Title
81347
    1CHL1    C3    1   0.805   3.773  10.192  0.1711 -0.4922 -0.7335
    1CHL1    H3    2   0.912   3.747  10.207 -0.1529 -1.2114  0.5351
    1CHL1    O3    3   0.742   3.778  10.323  0.1815  0.0371 -0.3812
    1CHL1   H3'    4   0.748   3.693  10.367 -0.0787  0.2564  0.0941
    1CHL1    C4    5   0.785   3.907  10.125 -0.0045  0.0798 -0.4689
    1CHL1   H4A    6   0.680   3.941  10.142 -0.3935 -1.9464  1.8215
    1CHL1   H4B    7   0.849   3.983  10.175  0.2597  1.0669 -2.2051
    1CHL1    C5    8   0.814   3.921   9.982 -0.1911 -0.0187  0.7220
    1CHL1    C6    9   0.896   4.008   9.917  0.0111  0.7918  0.1304
    1CHL1    H6   10   0.962   4.075   9.975 -0.0558  0.9065  0.0744
    1CHL1    C7   11   0.913   4.020   9.764  0.1826 -0.1293 -0.3774
    1CHL1   H7A   12   0.903   4.128   9.738  0.2152  0.2738  1.1817
    1CHL1   H7B   13   1.011   3.982   9.729  0.9126 -1.1061  2.4472
    1CHL1    C8   14   0.806   3.942   9.689 -0.2451 -0.6193  0.9804
    1CHL1    H8   15   0.713   4.002   9.698  0.4418  0.7908 -0.7531
    1CHL1   C14   16   0.852   3.932   9.540 -0.3654  0.4598 -0.3003
    1CHL1   H14   17   0.943   3.868   9.545  0.3447  1.4874  0.2284
    1CHL1   C15   18   0.888   4.060   9.468  0.0673  0.3513 -0.1998
    1CHL1  H15A   19   0.797   4.123   9.478 -0.8103 -0.8668 -0.2033
    1CHL1  H15B   20   0.976   4.111   9.513  0.4887  0.8954 -1.5810
    1CHL1   C16   21   0.900   4.019   9.323  0.0991 -0.2058  0.6875
    1CHL1  H16A   22   0.837   4.077   9.253 -1.0368 -2.3038 -0.1224
    1CHL1  H16B   23   1.002   4.027   9.279 -0.3249 -0.8212 -0.4715
    1CHL1   C17   24   0.855   3.864   9.317  0.5264  0.0913 -0.2452
    1CHL1   H17   25   0.939   3.795   9.339 -0.8951 -1.4843  0.4594
    1CHL1   C13   26   0.762   3.848   9.443 -0.1258 -0.3276  0.0858
    1CHL1   C18   27   0.628   3.921   9.421  0.1386  0.5554 -0.7574
    1CHL1  H18A   28   0.564   3.848   9.367 -1.9839  0.9282  1.0987
    1CHL1  H18B   29   0.588   3.964   9.515  1.6557 -1.4897  0.9304
    1CHL1  H18C   30   0.635   4.005   9.349  3.8306  0.7418 -0.3479
    1CHL1   C12   31   0.752   3.710   9.508 -0.6529 -0.0532  0.2653
    1CHL1  H12A   32   0.681   3.639   9.460 -1.0573  2.1530 -2.7183
    1CHL1  H12B   33   0.854   3.667   9.506  0.0780  1.6308 -0.6859
    1CHL1   C11   34   0.696   3.720   9.652  0.0810 -0.4476  0.3214
    1CHL1  H11A   35   0.593   3.753   9.628  0.4741 -0.4616 -1.5336
    1CHL1  H11B   36   0.694   3.615   9.688 -1.3521 -0.5632 -0.0419
    1CHL1    C9   37   0.782   3.807   9.746 -0.3659 -0.3403 -0.1061
    1CHL1    H9   38   0.878   3.751   9.740  0.2802  0.8586 -1.6082
    1CHL1   C10   39   0.743   3.812   9.895 -0.4501  0.1659  0.0924
    1CHL1   C19   40   0.592   3.822   9.894 -0.0740  0.1636 -0.9056
    1CHL1  H19A   41   0.538   3.729   9.866  0.9369 -0.4838 -0.7470
    1CHL1  H19B   42   0.551   3.855   9.992  1.2966 -0.6085 -0.0430
    1CHL1  H19C   43   0.558   3.901   9.824  0.0367  1.1786  0.1577
    1CHL1    C1   44   0.787   3.671   9.961 -0.4627 -0.0264  0.0941
    1CHL1   H1A   45   0.747   3.593   9.892  0.0479  0.7703 -1.1522
    1CHL1   H1B   46   0.897   3.664   9.972 -0.4626 -0.8091 -0.3390
    1CHL1    C2   47   0.751   3.655  10.105  0.5488  0.7438 -0.5485
    1CHL1   H2A   48   0.792   3.557  10.140  0.9594  1.7567  2.0015
    1CHL1   H2B   49   0.642   3.639  10.118  0.7897  0.3758  1.2558
    1CHL1   C20   50   0.809   3.819   9.175  0.3028 -0.6054 -0.2950
    1CHL1   H20   51   0.709   3.861   9.150  0.3052 -0.6182 -0.3273
    1CHL1   C21   52   0.791   3.668   9.172  0.0297 -0.0914  0.1521
    1CHL1  H21A   53   0.882   3.607   9.189 -0.8856 -1.6379 -0.2576
    1CHL1  H21B   54   0.757   3.650   9.067  1.2372 -0.9915 -0.1111
    1CHL1  H21C   55   0.704   3.627   9.228 -1.3399  3.3344  0.7502
    1CHL1   C22   56   0.925   3.845   9.069 -0.5469  0.5563  0.1702
    1CHL1  H22A   57   0.971   3.945   9.082  0.4971  0.9054 -4.5302
    1CHL1  H22B   58   1.011   3.777   9.084  0.0741  1.6465  1.8075
    1CHL1   C23   59   0.877   3.857   8.920 -0.4344  0.0783 -0.2013
    1CHL1  H23A   60   0.799   3.779   8.913  0.6299 -1.1645  1.0063
    1CHL1  H23B   61   0.845   3.963   8.930 -0.7594 -0.1895  2.5484
    1CHL1   C24   62   0.992   3.835   8.828 -0.0428  0.8072 -0.2471
    1CHL1  H24A   63   1.059   3.920   8.849  1.6637 -0.0556 -1.8834
    1CHL1  H24B   64   1.042   3.741   8.859 -0.4161  0.4410 -0.7201
    1CHL1   C25   65   0.965   3.844   8.677 -0.4425 -0.0722  0.6391
    1CHL1   H25   66   0.908   3.752   8.653 -2.4523  0.8951  1.4393
    1CHL1   C26   67   0.887   3.967   8.639  0.0161 -0.1530 -0.1836
    1CHL1  H26A   68   0.790   3.967   8.694 -0.0291 -1.6833 -0.2069
    1CHL1  H26B   69   0.956   4.050   8.665 -0.6305  1.1412 -2.3782
    1CHL1  H26C   70   0.878   3.984   8.530  0.0290  2.0532  0.1054
    1CHL1   C27   71   1.096   3.836   8.598 -0.2501  0.3925 -0.5745
    1CHL1  H27A   72   1.162   3.761   8.646 -2.0180  0.5945  2.4041
    1CHL1  H27B   73   1.088   3.811   8.490 -1.3154 -1.2127 -0.1596
    1CHL1  H27C   74   1.159   3.928   8.602  1.1402 -0.4816 -1.4557
    2CHL1    C3   75   2.108   3.490  10.183 -0.2927  0.3041  0.1102
    2CHL1    H3   76   2.197   3.425  10.194  0.9004  2.2105  2.3441
    2CHL1    O3   77   2.038   3.502  10.305 -0.0699 -0.5439 -0.3011
    2CHL1   H3'   78   2.103   3.536  10.368 -1.0127  1.6215 -0.3965
    2CHL1    C4   79   2.159   3.630  10.128 -1.1946  0.1086 -0.8160
    2CHL1   H4A   80   2.063   3.685  10.136 -2.1640 -1.7426  2.4956
    2CHL1   H4B   81   2.218   3.684  10.205 -0.9899 -3.0535  1.4495
    2CHL1    C5   82   2.209   3.635   9.984  0.1150 -0.4163 -0.5964
    2CHL1    C6   83   2.321   3.703   9.958 -0.0373 -0.3437 -0.6183
    2CHL1    H6   84   2.369   3.749  10.046  0.2558 -0.9863 -0.4309
    2CHL1    C7   85   2.375   3.720   9.818 -0.5514 -0.0211 -0.5448
    2CHL1   H7A   86   2.404   3.822   9.786  0.0983 -0.8719 -2.9130
    2CHL1   H7B   87   2.472   3.666   9.817 -0.4206  0.2122 -1.1752
    2CHL1    C8   88   2.283   3.657   9.708  0.5497  0.2414 -0.0355
    2CHL1    H8   89   2.203   3.732   9.687  0.2956  0.1426  0.5774
    2CHL1   C14   90   2.364   3.630   9.581 -0.3128  0.2050  0.3275
    2CHL1   H14   91   2.431   3.548   9.615 -0.4576 -0.0573 -0.0222
    2CHL1   C15   92   2.470   3.730   9.531 -0.2756  0.3835  0.1283
    2CHL1  H15A   93   2.438   3.836   9.535 -0.2543  0.3813  0.3767
    2CHL1  H15B   94   2.567   3.718   9.584  1.5813 -1.2346 -3.2668
    2CHL1   C16   95   2.492   3.682   9.387 -0.2765  0.1676 -0.5182
    2CHL1  H16A   96   2.484   3.767   9.315  0.8355  0.9627  0.2689
    2CHL1  H16B   97   2.587   3.628   9.370 -0.1175  0.7669 -1.6634
    2CHL1   C17   98   2.391   3.568   9.356  0.1251 -0.1191 -0.0218
    2CHL1   H17   99   2.433   3.467   9.376 -1.1458 -0.7551 -0.4279
    2CHL1   C13  100   2.275   3.600   9.461  0.5572  0.2394  0.8974
    2CHL1   C18  101   2.187   3.718   9.414 -0.0906 -0.2924 -0.4895
    2CHL1  H18A  102   2.118   3.690   9.332  0.6224 -0.6603 -0.9756
    2CHL1  H18B  103   2.124   3.754   9.498  1.9976  1.2708  0.5172
    2CHL1  H18C  104   2.251   3.804   9.385  1.1236 -0.6138  1.0707
    2CHL1   C12  105   2.192   3.472   9.506 -0.3752 -0.1631 -0.1669
    2CHL1  H12A  106   2.127   3.427   9.428 -1.9490  0.1628  0.9025
    2CHL1  H12B  107   2.268   3.395   9.531  1.2490  0.8878 -1.5805
    2CHL1   C11  108   2.110   3.490   9.633  0.4825  0.4091 -0.0548
    2CHL1  H11A  109   2.034   3.564   9.604 -0.6088 -1.2984 -1.7814
    2CHL1  H11B  110   2.064   3.391   9.655  1.5906 -1.0597 -3.6780
    2CHL1    C9  111   2.201   3.530   9.747 -0.0658  0.6491  0.7318
    2CHL1    H9  112   2.278   3.450   9.756 -0.8447 -0.5309 -2.0764
    2CHL1   C10  113   2.127   3.540   9.883  0.3801  0.0554  0.7132
    2CHL1   C19  114   1.997   3.623   9.862  0.1514 -0.7717 -0.2320
    2CHL1  H19A  115   1.921   3.564   9.807 -1.3937  0.9253 -0.0312
    2CHL1  H19B  116   1.941   3.643   9.955  0.3705  1.4192 -0.5094
    2CHL1  H19C  117   2.012   3.716   9.801  0.8000  0.7860  2.1769
    2CHL1    C1  118   2.092   3.405   9.938  0.0990  0.0851  0.7609
    2CHL1   H1A  119   2.017   3.355   9.874 -0.0114  2.8255 -1.4309
    2CHL1   H1B  120   2.191   3.354   9.940  2.1709  3.7690  0.8038
    2CHL1    C2  121   2.027   3.406  10.076 -0.0770 -0.0826 -0.8919
    2CHL1   H2A  122   2.017   3.304  10.120  0.5767 -0.1202 -0.8275
    2CHL1   H2B  123   1.922   3.443  10.080 -0.3980 -1.0041 -0.1727
    2CHL1   C20  124   2.352   3.575   9.209 -0.0227  0.4001  0.7268
    2CHL1   H20  125   2.322   3.680   9.192  0.4971  0.4676  0.2081
    2CHL1   C21  126   2.230   3.479   9.177 -0.6708  0.0803 -0.3936
    2CHL1  H21A  127   2.248   3.381   9.225 -1.7296  0.2983  0.4730
    2CHL1  H21B  128   2.216   3.473   9.067 -2.7404 -0.4941 -0.1262
    2CHL1  H21C  129   2.135   3.521   9.215 -1.6456  0.4999 -3.0422
    2CHL1   C22  130   2.465   3.554   9.104  0.0526 -0.2641 -0.4181
    2CHL1  H22A  131   2.420   3.558   9.002  1.3846  0.7870 -0.9975
    2CHL1  H22B  132   2.542   3.633   9.097 -0.8109  0.6293 -0.0731
    2CHL1   C23  133   2.538   3.421   9.107 -0.1176  0.0128 -0.2230
    2CHL1  H23A  134   2.579   3.401   9.208  1.5121 -2.0920 -1.2358
    2CHL1  H23B  135   2.452   3.354   9.082 -0.2646 -0.1727  0.7655
    2CHL1   C24  136   2.647   3.392   9.009 -0.2061 -0.3455 -0.7195
    2CHL1  H24A  137   2.621   3.405   8.902  0.0998 -1.6138 -0.9610
    2CHL1  H24B  138   2.725   3.466   9.037 -0.6829 -0.0892 -0.0307
    2CHL1   C25  139   2.703   3.243   9.021  0.3907  0.0746 -0.1153
    2CHL1   H25  140   2.619   3.174   8.997  0.6000  0.2110 -1.3218
    2CHL1   C26  141   2.822   3.224   8.923  0.1921 -0.6561  0.1104
    2CHL1  H26A  142   2.901   3.302   8.932  2.8871 -3.3297  1.4722
    2CHL1  H26B  143   2.882   3.130   8.925  3.2245  1.1186 -1.4039
    2CHL1  H26C  144   2.777   3.225   8.822 -1.8816  0.6498  0.9681
    2CHL1   C27  145   2.738   3.202   9.167 -0.5295  0.2826 -0.1120
    2CHL1  H27A  146   2.777   3.099   9.169 -0.9772  0.1166  0.1350
    2CHL1  H27B  147   2.815   3.273   9.203 -1.1263  1.1864 -0.5695
    2CHL1  H27C  148   2.651   3.207   9.236  0.2975  0.7634  0.9326
    3CHL1    C3  149   3.434   2.530  10.250 -0.1773  0.4196 -0.7492
    3CHL1    H3  150   3.542   2.551  10.233 -0.1761  0.1160 -1.1143
    3CHL1    O3  151   3.400   2.554  10.384  0.7946 -0.3490 -0.1637
    3CHL1   H3'  152   3.304   2.551  10.386  0.6141  2.7476  1.4306
    3CHL1    C4  153   3.364   2.637  10.162 -0.8271  0.5158  0.2522
    3CHL1   H4A  154   3.253   2.646  10.166 -0.8007  1.8070 -1.0734
    3CHL1   H4B  155   3.404   2.735  10.198 -1.4032  0.9950 -0.3881
    3CHL1    C5  156   3.402   2.605  10.016 -0.4374  0.0436 -0.2160
    3CHL1    C6  157   3.450   2.700   9.943  0.6232 -0.0139 -0.5742
    3CHL1    H6  158   3.452   2.798   9.993 -0.6677 -0.9477  1.4588
    3CHL1    C7  159   3.492   2.689   9.805 -0.0901 -0.6066  0.4752
    3CHL1   H7A  160   3.457   2.773   9.742  0.5484 -1.8200 -1.5746
    3CHL1   H7B  161   3.601   2.675   9.794 -0.2202 -0.0859 -2.2169
    3CHL1    C8  162   3.438   2.555   9.736 -0.0509  0.9937  0.6181
    3CHL1    H8  163   3.332   2.564   9.705 -0.5148 -1.1020  1.4629
    3CHL1   C14  164   3.510   2.531   9.599  1.2127 -0.2950  0.1671
    3CHL1   H14  165   3.618   2.520   9.621  1.4101  2.1658  0.7760
    3CHL1   C15  166   3.510   2.650   9.502  0.4469 -0.0465 -0.6740
    3CHL1  H15A  167   3.416   2.709   9.498  0.1282 -0.4319  0.5657
    3CHL1  H15B  168   3.587   2.728   9.513  1.9074 -1.3465 -1.2872
    3CHL1   C16  169   3.529   2.589   9.364 -0.5408 -1.0445  0.0741
    3CHL1  H16A  170   3.444   2.617   9.298 -0.9585  0.4527  1.1850
    3CHL1  H16B  171   3.621   2.634   9.320 -1.6955  1.1685 -0.1905
    3CHL1   C17  172   3.533   2.435   9.378 -0.2239 -0.5445  0.1348
    3CHL1   H17  173   3.639   2.414   9.400 -0.9007 -1.9074  2.3941
    3CHL1   C13  174   3.463   2.410   9.517  0.0193  0.0885  0.6780
    3CHL1   C18  175   3.313   2.400   9.480 -0.5888  0.3713 -0.5875
    3CHL1  H18A  176   3.247   2.389   9.568  1.7523  1.4787  1.4382
    3CHL1  H18B  177   3.280   2.485   9.415  1.8992  1.8392 -0.0563
    3CHL1  H18C  178   3.301   2.312   9.414  0.8248 -0.2516 -0.0409
    3CHL1   C12  179   3.485   2.287   9.610  0.1373  0.3468 -0.2101
    3CHL1  H12A  180   3.445   2.191   9.573 -0.2872  0.1067  0.8284
    3CHL1  H12B  181   3.595   2.273   9.620  0.5204  0.0307 -3.8079
    3CHL1   C11  182   3.421   2.303   9.753  0.3540 -0.0158  0.6334
    3CHL1  H11A  183   3.312   2.300   9.735  0.4503 -1.5738  0.1634
    3CHL1  H11B  184   3.432   2.214   9.819 -2.8008  0.5138  2.0491
    3CHL1    C9  185   3.448   2.435   9.825  0.3368 -0.3762  0.1228
    3CHL1    H9  186   3.557   2.429   9.849  0.5257 -1.3527 -0.9011
    3CHL1   C10  187   3.376   2.459   9.962 -0.1977 -0.5108 -0.2783
    3CHL1   C19  188   3.224   2.441   9.938 -0.3767  0.0146 -0.2389
    3CHL1  H19A  189   3.192   2.512   9.858  1.1103  2.5759  1.3107
    3CHL1  H19B  190   3.190   2.336   9.925 -1.7584  0.0618  2.2842
    3CHL1  H19C  191   3.167   2.464  10.031  1.2498  1.8326  0.3562
    3CHL1    C1  192   3.427   2.355  10.066 -0.1946  0.5555 -0.5714
    3CHL1   H1A  193   3.376   2.262  10.033  2.8668 -1.2516 -0.5816
    3CHL1   H1B  194   3.537   2.346  10.053 -0.3276 -1.1630 -0.7099
    3CHL1    C2  195   3.391   2.382  10.213 -0.5082  0.0709 -0.8590
    3CHL1   H2A  196   3.453   2.312  10.274  0.4648  0.9570 -0.8044
    3CHL1   H2B  197   3.282   2.369  10.230 -0.2660 -2.1386 -0.7280
    3CHL1   C20  198   3.474   2.359   9.251 -0.8190 -0.4939 -0.2624
    3CHL1   H20  199   3.367   2.386   9.238 -0.4213  1.7343  0.5655
    3CHL1   C21  200   3.481   2.206   9.267  0.4357 -0.1527 -0.2258
    3CHL1  H21A  201   3.452   2.162   9.169 -0.1174  0.8546 -0.5255
    3CHL1  H21B  202   3.429   2.167   9.358  1.1068 -1.4438 -0.3751
    3CHL1  H21C  203   3.588   2.181   9.284  0.1037 -0.6620  1.3417
    3CHL1   C22  204   3.550   2.398   9.121  0.7643 -0.2245 -0.1629
    3CHL1  H22A  205   3.490   2.356   9.037  0.9150 -2.8980  0.9592
    3CHL1  H22B  206   3.549   2.508   9.108  1.3413 -0.0300  1.2425
    3CHL1   C23  207   3.694   2.353   9.099 -0.4848 -0.2576  0.8261
    3CHL1  H23A  208   3.752   2.404   9.178  1.1448  0.5313 -0.7869
    3CHL1  H23B  209   3.710   2.244   9.115 -0.2598 -0.4756 -0.7276
    3CHL1   C24  210   3.747   2.385   8.958  0.3920 -0.5609  0.7333
    3CHL1  H24A  211   3.704   2.314   8.883  0.9561  1.0402 -1.1776
    3CHL1  H24B  212   3.724   2.491   8.935 -0.8072 -1.5345 -3.2928
    3CHL1   C25  213   3.899   2.373   8.950  0.5453  0.9385  0.1585
    3CHL1   H25  214   3.949   2.435   9.028  2.2822  2.0490 -1.7225
    3CHL1   C26  215   3.961   2.233   8.982 -0.9121 -0.3218 -1.1202
    3CHL1  H26A  216   3.938   2.159   8.903 -2.8483 -0.6385 -0.3221
    3CHL1  H26B  217   4.072   2.242   8.987 -0.9762  0.1212  2.6431
    3CHL1  H26C  218   3.935   2.188   9.080  1.5523  2.1898  0.8833
    3CHL1   C27  219   3.954   2.439   8.824  0.1679  0.1511  0.3477
    3CHL1  H27A  220   4.062   2.465   8.826  0.7400 -2.0041  0.1993
    3CHL1  H27B  221   3.937   2.374   8.735 -0.2312  2.5572 -1.4382
    3CHL1  H27C  222   3.893   2.529   8.801 -1.2273 -0.9417 -0.4272
    4CHL1    C3  223   1.217   4.882  10.670 -0.3042  0.7959  0.7276
    4CHL1    H3  224   1.158   4.974  10.653  1.7856  2.3618  1.4888
    4CHL1    O3  225   1.206   4.845  10.805 -0.8074 -0.2476 -0.9642
    4CHL1   H3'  226   1.241   4.755  10.812 -0.2045  0.0450  0.0167
    4CHL1    C4  227   1.171   4.768  10.579  0.3673 -0.5505  0.7932
    4CHL1   H4A  228   1.220   4.676  10.619 -0.2773 -1.1954  0.1255
    4CHL1   H4B  229   1.063   4.749  10.594 -0.3430  2.4890  0.0821
    4CHL1    C5  230   1.189   4.785  10.429 -0.7960  0.2306 -0.3085
    4CHL1    C6  231   1.087   4.785  10.346 -0.3185  0.4121  0.0374
    4CHL1    H6  232   0.989   4.754  10.386 -1.0851 -0.0099 -2.0353
    4CHL1    C7  233   1.111   4.817  10.197 -0.2819  0.5098 -0.2163
    4CHL1   H7A  234   1.055   4.734  10.149  1.5738 -1.9328  1.5788
    4CHL1   H7B  235   1.070   4.913  10.158  0.4486  1.3203  0.9280
    4CHL1    C8  236   1.260   4.801  10.156  0.1166 -0.0544 -0.1512
    4CHL1    H8  237   1.295   4.695  10.157  1.1499  0.2739 -0.2125
    4CHL1   C14  238   1.277   4.854  10.013 -0.2360 -0.5312  0.1516
    4CHL1   H14  239   1.245   4.960  10.014 -2.1816 -1.0411 -1.8716
    4CHL1   C15  240   1.192   4.806   9.895 -0.0669  0.0994  0.2890
    4CHL1  H15A  241   1.189   4.696   9.907  0.1994  0.0590 -0.0159
    4CHL1  H15B  242   1.090   4.850   9.888  0.1594  0.9107  1.7121
    4CHL1   C16  243   1.272   4.835   9.762  0.1736 -0.1287 -0.3189
    4CHL1  H16A  244   1.293   4.739   9.711  0.9453  0.1731 -0.5749
    4CHL1  H16B  245   1.212   4.896   9.691  0.5752  0.8125  0.1320
    4CHL1   C17  246   1.405   4.904   9.810 -0.1392  0.3105  0.4009
    4CHL1   H17  247   1.378   5.011   9.817 -1.2346  0.2366 -1.8461
    4CHL1   C13  248   1.428   4.855   9.959 -0.5073  0.2905  0.2010
    4CHL1   C18  249   1.487   4.714   9.945 -0.1588  0.3702  0.1528
    4CHL1  H18A  250   1.452   4.663   9.852  1.0114 -1.9236  0.9118
    4CHL1  H18B  251   1.598   4.719   9.948 -0.0659  0.0099 -1.4575
    4CHL1  H18C  252   1.460   4.647  10.029  2.2792 -2.0421 -0.8411
    4CHL1   C12  253   1.518   4.935  10.053  0.3344 -0.4468 -0.2028
    4CHL1  H12A  254   1.624   4.947  10.025  0.2489  4.0039  0.6443
    4CHL1  H12B  255   1.475   5.037  10.047 -1.2755 -1.0730  0.0609
    4CHL1   C11  256   1.506   4.881  10.196 -0.1474  0.6027 -0.2459
    4CHL1  H11A  257   1.562   4.784  10.198 -0.3312  0.4662  2.0666
    4CHL1  H11B  258   1.555   4.941  10.276 -0.2095 -2.4008  2.2767
    4CHL1    C9  259   1.359   4.878  10.250 -0.2636 -0.2641 -0.0506
    4CHL1    H9  260   1.327   4.984  10.240  3.2182  0.7648 -2.2568
    4CHL1   C10  261   1.339   4.827  10.395  0.5786  0.3567 -0.3106
    4CHL1   C19  262   1.424   4.695  10.408  0.0653  0.3145  0.6002
    4CHL1  H19A  263   1.409   4.646  10.507 -2.2900 -0.0507  0.1255
    4CHL1  H19B  264   1.388   4.632  10.323 -0.9795  0.6040  0.8090
    4CHL1  H19C  265   1.531   4.717  10.390 -0.1241 -0.5135 -1.9329
    4CHL1    C1  266   1.392   4.941  10.487  0.3041  0.0587  0.1190
    4CHL1   H1A  267   1.498   4.974  10.483 -0.0785  1.2901 -0.6330
    4CHL1   H1B  268   1.337   5.035  10.462  0.2648  0.4153  1.4945
    4CHL1    C2  269   1.362   4.915  10.638  0.0518 -0.1289 -0.1746
    4CHL1   H2A  270   1.403   5.004  10.692 -2.0010  0.8775 -0.1725
    4CHL1   H2B  271   1.428   4.827  10.655  0.5960 -0.0120 -1.4999
    4CHL1   C20  272   1.510   4.882   9.711 -1.4760 -0.1808  0.1495
    4CHL1   H20  273   1.551   4.779   9.714  1.3780  0.7355 -1.9482
    4CHL1   C21  274   1.631   4.981   9.736  0.4135 -0.2368  0.1810
    4CHL1  H21A  275   1.692   5.001   9.646  2.3088 -1.0255  1.2331
    4CHL1  H21B  276   1.702   4.952   9.817  0.4973 -0.8068 -0.0943
    4CHL1  H21C  277   1.591   5.080   9.765  0.6562  0.0823 -0.5721
    4CHL1   C22  278   1.469   4.906   9.565  0.4847 -0.1117  0.0874
    4CHL1  H22A  279   1.382   4.851   9.525 -1.1445  4.2811 -3.1860
    4CHL1  H22B  280   1.430   5.009   9.551 -1.0613 -0.6737  0.1076
    4CHL1   C23  281   1.582   4.863   9.473  0.3220 -0.0372 -0.4965
    4CHL1  H23A  282   1.674   4.925   9.473  0.3669 -0.1030 -0.8172
    4CHL1  H23B  283   1.614   4.766   9.519 -2.0306 -0.0063  1.3502
    4CHL1   C24  284   1.533   4.839   9.328  0.1334 -0.1837 -0.6528
    4CHL1  H24A  285   1.601   4.770   9.275  0.5303 -1.7044  1.6988
    4CHL1  H24B  286   1.444   4.773   9.331  0.0601 -0.0769 -0.4338
    4CHL1   C25  287   1.484   4.957   9.230 -0.3252  0.4384  0.9124
    4CHL1   H25  288   1.567   5.030   9.231  0.7395 -0.6703 -0.8670
    4CHL1   C26  289   1.470   4.903   9.089  0.5370  0.8466  0.1503
    4CHL1  H26A  290   1.566   4.870   9.043  1.0547  2.8320 -0.3078
    4CHL1  H26B  291   1.405   4.813   9.092 -0.7963  1.8018  1.6126
    4CHL1  H26C  292   1.434   4.986   9.025  1.2735  1.7893  0.9291
    4CHL1   C27  293   1.347   5.013   9.270  0.1139 -0.1298  1.1470
    4CHL1  H27A  294   1.365   5.067   9.366  0.4899 -0.0201  1.0168
    4CHL1  H27B  295   1.299   5.083   9.198 -1.3085 -0.7425  1.4724
    4CHL1  H27C  296   1.270   4.936   9.294 -0.9416  1.4294  3.1520
    5CHL1    C3  297   2.941   3.138  10.222  0.4816 -0.0078 -0.6221
    5CHL1    H3  298   2.871   3.219  10.192 -1.1991 -0.9347  0.6466
    5CHL1    O3  299   2.952   3.149  10.360 -0.7973  0.4079 -0.6028
    5CHL1   H3'  300   3.027   3.090  10.368  0.7172  2.3645  0.7784
    5CHL1    C4  301   2.882   3.002  10.184 -0.0808  0.5122  0.3724
    5CHL1   H4A  302   2.947   2.922  10.225  1.2155  1.2836 -0.0946
    5CHL1   H4B  303   2.786   2.985  10.236 -0.4733 -1.7642 -0.9549
    5CHL1    C5  304   2.876   2.974  10.040 -0.2315  0.5536 -0.0179
    5CHL1    C6  305   2.762   2.937   9.977 -0.0371 -0.4748 -0.4130
    5CHL1    H6  306   2.667   2.928  10.032 -0.0382 -0.8649 -0.4728
    5CHL1    C7  307   2.754   2.914   9.836  0.3146  0.2113 -0.2441
    5CHL1   H7A  308   2.682   2.834   9.806  0.6076  0.1538 -0.8101
    5CHL1   H7B  309   2.723   3.005   9.781 -0.4323 -1.4816 -2.8430
    5CHL1    C8  310   2.890   2.889   9.775 -0.0790  0.8445  1.0814
    5CHL1    H8  311   2.923   2.789   9.811  2.9289  0.1657 -2.7893
    5CHL1   C14  312   2.883   2.885   9.620 -0.4651  0.2667 -0.0205
    5CHL1   H14  313   2.840   2.985   9.596  0.4153  0.5633 -0.3873
    5CHL1   C15  314   2.776   2.795   9.553 -0.1171  0.2818  0.4624
    5CHL1  H15A  315   2.780   2.701   9.611 -1.8860  0.6241  1.2203
    5CHL1  H15B  316   2.670   2.827   9.566  0.1397  1.4272 -0.1221
    5CHL1   C16  317   2.830   2.780   9.406 -0.1335  0.4968  0.1631
    5CHL1  H16A  318   2.839   2.674   9.376 -0.1159  0.0568  1.6365
    5CHL1  H16B  319   2.755   2.828   9.340 -2.1465 -0.4594  1.6548
    5CHL1   C17  320   2.967   2.862   9.396  0.5114  0.3337 -0.8554
    5CHL1   H17  321   2.931   2.963   9.365  2.1956  1.0990 -0.4317
    5CHL1   C13  322   3.013   2.862   9.543 -0.0761  0.0401  0.1954
    5CHL1   C18  323   3.076   2.728   9.581  0.3502  0.1868 -0.0946
    5CHL1  H18A  324   3.024   2.639   9.538  1.1741 -1.0464  1.3901
    5CHL1  H18B  325   3.169   2.706   9.525 -1.2095 -1.1074 -2.3502
    5CHL1  H18C  326   3.094   2.714   9.690  0.3090  1.1823  0.0513
    5CHL1   C12  327   3.097   2.984   9.583 -0.3905  0.0258 -0.8165
    5CHL1  H12A  328   3.201   2.977   9.544 -0.4661  0.3790 -1.0878
    5CHL1  H12B  329   3.050   3.078   9.549  0.6996  0.3506 -1.4942
    5CHL1   C11  330   3.117   3.000   9.739 -0.2535 -0.4649 -0.3038
    5CHL1  H11A  331   3.186   2.917   9.764  1.1240  1.6163  3.6732
    5CHL1  H11B  332   3.170   3.095   9.759  0.2105 -0.9641  0.9234
    5CHL1    C9  333   2.987   2.993   9.821 -0.6417 -0.1767  1.1644
    5CHL1    H9  334   2.933   3.087   9.795  0.4946  0.8013  2.1995
    5CHL1   C10  335   3.012   2.998   9.971  0.3293 -0.9305  0.5325
    5CHL1   C19  336   3.102   2.871  10.014 -0.0573 -0.6064 -0.1886
    5CHL1  H19A  337   3.193   2.889   9.953 -2.3300  1.7706 -3.1937
    5CHL1  H19B  338   3.125   2.869  10.123  1.2002  0.0456 -0.4183
    5CHL1  H19C  339   3.059   2.771   9.992  3.5178 -2.5823  0.8860
    5CHL1    C1  340   3.068   3.135  10.013 -0.1211 -0.3872  0.6604
    5CHL1   H1A  341   3.163   3.147   9.956 -1.5795  0.8506 -1.6639
    5CHL1   H1B  342   3.006   3.219   9.976  1.0864  0.6084  0.8413
    5CHL1    C2  343   3.089   3.152  10.161  0.0663  0.0916 -0.7989
    5CHL1   H2A  344   3.135   3.246  10.199  0.4967 -1.0084  1.5973
    5CHL1   H2B  345   3.142   3.064  10.201  1.0201  0.0684 -2.0443
    5CHL1   C20  346   3.054   2.791   9.283  0.4172 -0.4884  0.6272
    5CHL1   H20  347   3.082   2.687   9.312  0.7410 -1.2674 -2.1834
    5CHL1   C21  348   3.187   2.874   9.271  0.1640 -0.2610 -0.3532
    5CHL1  H21A  349   3.168   2.980   9.243 -1.1515 -0.4691 -0.3370
    5CHL1  H21B  350   3.244   2.827   9.188 -0.8323 -0.6766 -0.8253
    5CHL1  H21C  351   3.248   2.879   9.364  1.2748  2.8462 -1.1011
    5CHL1   C22  352   2.983   2.796   9.145  0.4095  0.5574 -0.9381
    5CHL1  H22A  353   2.885   2.744   9.151  0.4112  0.4355 -1.8384
    5CHL1  H22B  354   2.961   2.903   9.127  0.0873  1.7600  4.6134
    5CHL1   C23  355   3.064   2.744   9.032  0.3215 -0.3522  0.3413
    5CHL1  H23A  356   3.147   2.815   9.009  0.3014  0.3143  2.1367
    5CHL1  H23B  357   3.106   2.646   9.063 -2.0058 -0.6285  3.1539
    5CHL1   C24  358   2.969   2.730   8.911 -0.2830 -0.5075  0.2525
    5CHL1  H24A  359   2.893   2.653   8.934  0.0371 -0.7678  0.4388
    5CHL1  H24B  360   2.912   2.825   8.906 -2.1378 -1.2554  4.0577
    5CHL1   C25  361   3.038   2.697   8.781  0.5361 -0.0429  0.4618
    5CHL1   H25  362   3.116   2.619   8.796 -0.4227 -1.0537  0.2945
    5CHL1   C26  363   2.941   2.640   8.683  0.9741  0.4446  0.0221
    5CHL1  H26A  364   2.995   2.606   8.592  0.3345  0.5425 -0.3985
    5CHL1  H26B  365   2.893   2.545   8.716 -0.6924  1.4060  0.4652
    5CHL1  H26C  366   2.858   2.709   8.660 -0.4392 -0.4530  2.0776
    5CHL1   C27  367   3.086   2.822   8.709  0.3483  0.3882 -0.4416
    5CHL1  H27A  368   3.004   2.870   8.652  0.5181  0.2960 -0.7678
    5CHL1  H27B  369   3.113   2.896   8.787 -2.6132 -0.3801  1.4428
    5CHL1  H27C  370   3.171   2.803   8.639 -0.0191  0.3241 -0.8748
    6CHL1    C3  371   1.246   5.971  10.359  0.2812 -0.4041 -0.7427
    6CHL1    H3  372   1.247   5.860  10.370  0.1808 -0.4220 -0.9076
    6CHL1    O3  373   1.242   6.037  10.485  0.1879  0.2259  0.0811
    6CHL1   H3'  374   1.329   6.065  10.515  0.1655 -0.7003  1.0860
    6CHL1    C4  375   1.367   6.022  10.272  0.2774 -0.6115 -0.2600
    6CHL1   H4A  376   1.373   6.133  10.269  2.5829 -0.6515  0.5781
    6CHL1   H4B  377   1.463   5.996  10.322 -0.5596 -0.6953  1.3476
    6CHL1    C5  378   1.350   5.981  10.129 -0.3915  0.5692  0.3322
    6CHL1    C6  379   1.446   5.905  10.075 -1.5214  0.2122  0.2807
    6CHL1    H6  380   1.544   5.888  10.123 -1.2795  0.9581  0.0596
    6CHL1    C7  381   1.438   5.876   9.928  0.5080 -0.1894  0.0713
    6CHL1   H7A  382   1.537   5.898   9.883  0.3313  1.8574  0.6133
    6CHL1   H7B  383   1.411   5.768   9.920  0.2604 -0.4252  2.9756
    6CHL1    C8  384   1.336   5.966   9.853  0.0728 -0.0372  0.2356
    6CHL1    H8  385   1.370   6.071   9.844 -0.4961  0.0392 -1.1899
    6CHL1   C14  386   1.312   5.914   9.713 -0.0809 -0.5112  0.4643
    6CHL1   H14  387   1.271   5.815   9.743 -4.2234  1.4174  1.9418
    6CHL1   C15  388   1.435   5.899   9.623 -0.2434 -0.7806  0.7177
    6CHL1  H15A  389   1.476   6.002   9.620 -1.3360 -0.3699 -1.1324
    6CHL1  H15B  390   1.516   5.827   9.648  1.1495  1.0327  1.7240
    6CHL1   C16  391   1.376   5.871   9.489 -0.4072 -0.0433  0.8215
    6CHL1  H16A  392   1.441   5.927   9.418  2.1570 -3.2090  0.4356
    6CHL1  H16B  393   1.386   5.762   9.470 -1.0849 -0.2441  1.5687
    6CHL1   C17  394   1.224   5.909   9.490 -1.0700  0.3715  0.6799
    6CHL1   H17  395   1.171   5.812   9.496  0.4744 -0.4267  2.6620
    6CHL1   C13  396   1.204   5.990   9.625 -0.5871  0.3829 -0.6096
    6CHL1   C18  397   1.238   6.140   9.608  0.2962 -0.4370  0.4122
    6CHL1  H18A  398   1.332   6.136   9.549  0.3821  3.2811  0.0342
    6CHL1  H18B  399   1.170   6.201   9.545  0.3554 -0.6495  0.1422
    6CHL1  H18C  400   1.256   6.197   9.702 -1.4134  0.1143  0.4497
    6CHL1   C12  401   1.071   5.968   9.694 -0.4264 -0.3451 -0.2453
    6CHL1  H12A  402   0.986   6.013   9.639 -0.3269 -1.3379 -1.2493
    6CHL1  H12B  403   1.053   5.859   9.703 -1.9545 -0.0222  1.3623
    6CHL1   C11  404   1.078   6.017   9.843  0.3559 -0.0734  0.7423
    6CHL1  H11A  405   1.094   6.127   9.835  0.5571 -0.2220 -2.2072
    6CHL1  H11B  406   0.981   6.000   9.894 -1.2463  2.1954 -1.2684
    6CHL1    C9  407   1.196   5.959   9.923 -0.1245  0.1648 -0.3317
    6CHL1    H9  408   1.181   5.849   9.931 -2.2497  0.3466 -1.1813
    6CHL1   C10  409   1.214   6.013  10.064 -0.6525 -0.3946 -0.2292
    6CHL1   C19  410   1.207   6.169  10.057  0.0401  0.1076  0.5458
    6CHL1  H19A  411   1.275   6.217   9.984  0.8075  1.3779  2.0348
    6CHL1  H19B  412   1.104   6.207  10.040  0.7234  0.4576 -4.2013
    6CHL1  H19C  413   1.233   6.209  10.158  0.0027  0.9344  0.2294
    6CHL1    C1  414   1.105   5.960  10.157 -0.1922  0.1796  0.0140
    6CHL1   H1A  415   1.010   5.986  10.106  0.3624  0.8642 -0.6935
    6CHL1   H1B  416   1.123   5.850  10.162  1.9556  0.4419 -0.6176
    6CHL1    C2  417   1.107   6.013  10.299 -0.1896  0.0993  0.1712
    6CHL1   H2A  418   1.025   5.956  10.350 -1.2025  0.8313 -0.5894
    6CHL1   H2B  419   1.095   6.123  10.302  2.2082  0.5233 -2.4381
    6CHL1   C20  420   1.187   5.974   9.359  0.6103  0.1259 -0.3587
    6CHL1   H20  421   1.243   6.070   9.358 -0.0861  0.5678  0.7894
    6CHL1   C21  422   1.033   6.008   9.355  0.0310 -0.0279  0.0006
    6CHL1  H21A  423   1.023   6.049   9.252  1.4191 -0.7475 -0.4544
    6CHL1  H21B  424   1.009   6.083   9.434 -2.6924  1.8469 -2.3812
    6CHL1  H21C  425   0.971   5.917   9.367  0.5875 -0.3030  0.8974
    6CHL1   C22  426   1.230   5.885   9.234  0.2494  0.4284 -0.3006
    6CHL1  H22A  427   1.332   5.840   9.239  0.4666  0.8001 -1.2847
    6CHL1  H22B  428   1.168   5.793   9.220  0.2612  0.4852 -0.7393
    6CHL1   C23  429   1.232   5.955   9.098 -0.2057 -0.3285  0.6940
    6CHL1  H23A  430   1.142   6.020   9.093 -0.5354 -0.7924  0.4904
    6CHL1  H23B  431   1.324   6.017   9.097 -0.7368  0.4763 -0.4221
    6CHL1   C24  432   1.245   5.861   8.983  0.6969  0.6682 -0.2977
    6CHL1  H24A  433   1.347   5.816   8.978  0.4024 -0.1590  0.7096
    6CHL1  H24B  434   1.172   5.779   9.005  1.3037 -0.1509 -1.2753
    6CHL1   C25  435   1.204   5.922   8.846 -0.7019 -0.8935  0.2342
    6CHL1   H25  436   1.118   5.989   8.866  0.9480  1.5446 -0.3366
    6CHL1   C26  437   1.317   6.024   8.796 -0.3909 -0.4568 -0.3162
    6CHL1  H26A  438   1.418   5.988   8.823 -0.3168 -1.0983 -1.3978
    6CHL1  H26B  439   1.311   6.039   8.686  0.0141  1.8399 -0.0708
    6CHL1  H26C  440   1.292   6.128   8.826  0.7565 -0.0630 -0.6670
    6CHL1   C27  441   1.178   5.825   8.738 -0.1352 -0.2119 -0.3961
    6CHL1  H27A  442   1.138   5.882   8.651  1.4829  0.4616 -0.7321
    6CHL1  H27B  443   1.275   5.778   8.711  0.4799  1.6923 -1.6832
    6CHL1  H27C  444   1.097   5.751   8.759 -0.5734  0.6888  1.2866
    7CHL1    C3  445   3.978   3.671  10.459  0.7187 -0.6221 -0.4404
    7CHL1    H3  446   4.067   3.617  10.499 -0.0903 -0.2098  2.0969
    7CHL1    O3  447   3.891   3.641  10.570 -0.4116  0.2449 -0.1631
    7CHL1   H3'  448   3.873   3.547  10.557 -4.9674  0.9435 -0.7535
    7CHL1    C4  449   4.009   3.820  10.441  0.0481 -0.1285 -0.4850
    7CHL1   H4A  450   3.911   3.866  10.417 -0.8157 -2.0470 -0.7741
    7CHL1   H4B  451   4.033   3.869  10.538 -1.7873  2.2778 -1.1502
    7CHL1    C5  452   4.108   3.830  10.324  0.0656  0.1024  0.2967
    7CHL1    C6  453   4.229   3.877  10.339 -0.0124  0.0726  0.6992
    7CHL1    H6  454   4.261   3.917  10.436  2.1026 -0.7751  0.4016
    7CHL1    C7  455   4.320   3.890  10.221 -0.8340  0.3852 -0.6620
    7CHL1   H7A  456   4.360   3.992  10.235  2.2987 -0.8151  0.1227
    7CHL1   H7B  457   4.401   3.813  10.221  0.0232  1.1103  2.8468
    7CHL1    C8  458   4.250   3.884  10.077  0.1844  0.1771 -0.1063
    7CHL1    H8  459   4.192   3.976  10.058  1.9365  1.7197  1.4888
    7CHL1   C14  460   4.349   3.868   9.958  0.9384  0.6465  0.7199
    7CHL1   H14  461   4.404   3.776   9.986  0.0372 -0.1853 -0.1766
    7CHL1   C15  462   4.467   3.976   9.938 -0.7023  0.0456  0.2877
    7CHL1  H15A  463   4.410   4.070   9.949 -1.0724 -0.3806  2.4377
    7CHL1  H15B  464   4.538   3.966  10.023 -1.2526 -0.0537  0.7362
    7CHL1   C16  465   4.516   3.931   9.800 -0.6074  0.3231  0.4325
    7CHL1  H16A  466   4.495   4.020   9.737 -1.8718  0.6346  1.2372
    7CHL1  H16B  467   4.623   3.903   9.798 -1.0930 -1.6013 -0.3828
    7CHL1   C17  468   4.423   3.824   9.740  0.4759  0.1873  0.2713
    7CHL1   H17  469   4.456   3.721   9.764 -0.1344  0.1417  0.9536
    7CHL1   C13  470   4.284   3.836   9.816  0.3654  0.2510 -0.3423
    7CHL1   C18  471   4.206   3.965   9.786  0.6597 -0.5269 -0.0600
    7CHL1  H18A  472   4.185   3.976   9.677  1.1835  3.3289  0.0909
    7CHL1  H18B  473   4.106   3.968   9.833  0.6129 -1.6467 -0.0447
    7CHL1  H18C  474   4.258   4.060   9.809  0.2870  0.5616 -3.1981
    7CHL1   C12  475   4.199   3.712   9.833 -0.2814  0.3640  0.0716
    7CHL1  H12A  476   4.148   3.677   9.740 -1.2844  1.7170  0.1023
    7CHL1  H12B  477   4.260   3.625   9.867  0.6238  0.9289 -0.0760
    7CHL1   C11  478   4.086   3.727   9.939 -0.6872 -0.6568 -0.2461
    7CHL1  H11A  479   4.003   3.793   9.903  1.5073  2.2317 -0.4029
    7CHL1  H11B  480   4.033   3.630   9.939 -1.4455 -0.2979 -2.2114
    7CHL1    C9  481   4.151   3.764  10.074  0.3898 -0.8228  0.0920
    7CHL1    H9  482   4.218   3.679  10.098  0.5640 -0.0878  2.3952
    7CHL1   C10  483   4.050   3.772  10.194 -0.9522  0.3609  0.5395
    7CHL1   C19  484   3.923   3.844  10.143 -0.2880  0.4451  0.1369
    7CHL1  H19A  485   3.845   3.848  10.222 -1.4094 -1.4544 -0.8153
    7CHL1  H19B  486   3.939   3.950  10.113 -1.4724  0.5664 -0.0899
    7CHL1  H19C  487   3.870   3.789  10.063 -2.3244  0.5293  1.3632
    7CHL1    C1  488   4.014   3.629  10.217 -0.4670  0.4781 -0.5280
    7CHL1   H1A  489   3.961   3.577  10.135  0.7708  1.3801 -1.9615
    7CHL1   H1B  490   4.105   3.568  10.238 -1.7030 -1.9159 -1.6775
    7CHL1    C2  491   3.922   3.605  10.336  0.0590  0.3912 -0.1786
    7CHL1   H2A  492   3.894   3.499  10.357  1.0021 -0.5167 -3.0979
    7CHL1   H2B  493   3.825   3.655  10.312 -0.3981  1.1097  2.7742
    7CHL1   C20  494   4.417   3.809   9.581 -0.1387 -0.0145 -1.1274
    7CHL1   H20  495   4.345   3.887   9.548 -4.9617 -3.0602  1.0144
    7CHL1   C21  496   4.348   3.677   9.540 -1.4218  0.2277 -0.2906
    7CHL1  H21A  497   4.245   3.668   9.581 -0.9499 -0.6324  0.7244
    7CHL1  H21B  498   4.408   3.594   9.582 -0.7387  0.2219 -1.2331
    7CHL1  H21C  499   4.352   3.676   9.429  1.4220  0.1725 -0.2491
    7CHL1   C22  500   4.558   3.825   9.506 -0.4469 -0.5210  0.0687
    7CHL1  H22A  501   4.609   3.920   9.532  5.6553 -2.6078 -2.3497
    7CHL1  H22B  502   4.629   3.743   9.533 -0.7593 -0.7667  0.1517
    7CHL1   C23  503   4.551   3.821   9.354 -0.5646  0.3073  0.2539
    7CHL1  H23A  504   4.533   3.720   9.311  1.0815 -0.3567  1.0354
    7CHL1  H23B  505   4.459   3.875   9.322 -1.1068 -1.3696 -1.1656
    7CHL1   C24  506   4.681   3.875   9.299 -0.3916  0.6919 -0.5323
    7CHL1  H24A  507   4.712   3.970   9.347  0.0715  1.3807 -2.1339
    7CHL1  H24B  508   4.763   3.809   9.337 -1.3122  0.6152  1.4654
    7CHL1   C25  509   4.682   3.887   9.147 -0.2204  0.3201  0.4459
    7CHL1   H25  510   4.660   3.788   9.101 -1.0706  0.8793 -0.4036
    7CHL1   C26  511   4.590   3.995   9.085  0.4800  0.7242  0.2007
    7CHL1  H26A  512   4.486   3.996   9.126 -0.5772 -1.5888 -2.1427
    7CHL1  H26B  513   4.632   4.095   9.111  0.7564  1.1642 -1.7541
    7CHL1  H26C  514   4.584   3.998   8.974  0.3540 -0.3871  0.1735
    7CHL1   C27  515   4.828   3.921   9.106  0.1406  0.1952 -0.1892
    7CHL1  H27A  516   4.897   3.843   9.144  0.8890  1.6036  1.4673
    7CHL1  H27B  517   4.835   3.930   8.995  0.8151 -1.0164 -0.2696
    7CHL1  H27C  518   4.852   4.016   9.157 -0.4200  0.1195  0.2227
    8CHL1    C3  519   4.888   4.641  10.464  0.9274 -0.1040 -0.0230
    8CHL1    H3  520   4.892   4.748  10.432 -0.5633 -0.1539 -0.4216
    8CHL1    O3  521   4.798   4.633  10.572  0.3423  0.0790 -0.2399
    8CHL1   H3'  522   4.812   4.546  10.611  1.3741  0.2248 -0.2662
    8CHL1    C4  523   4.822   4.552  10.352 -0.1837 -0.5587 -0.4923
    8CHL1   H4A  524   4.810   4.456  10.406  1.0434  0.8126  2.4344
    8CHL1   H4B  525   4.717   4.580  10.329 -0.1191  0.3723  0.2653
    8CHL1    C5  526   4.920   4.543  10.234  0.2078  0.2772 -0.1581
    8CHL1    C6  527   4.886   4.580  10.109 -0.3638  0.2287  0.5036
    8CHL1    H6  528   4.789   4.627  10.088  1.4054  3.2708 -1.6594
    8CHL1    C7  529   4.970   4.554   9.988  0.3874 -0.5577 -0.0166
    8CHL1   H7A  530   4.904   4.515   9.908 -0.0171 -3.0341  1.4074
    8CHL1   H7B  531   5.020   4.650   9.963  0.5800  0.2001  2.8760
    8CHL1    C8  532   5.092   4.460  10.012  0.4753  0.0343 -0.2169
    8CHL1    H8  533   5.055   4.355  10.012 -0.2120  0.0212 -5.1278
    8CHL1   C14  534   5.188   4.471   9.899  0.5815  0.1709 -0.5284
    8CHL1   H14  535   5.229   4.575   9.905 -0.2067  0.6147 -2.2152
    8CHL1   C15  536   5.130   4.456   9.764 -0.9966 -0.0730  0.2297
    8CHL1  H15A  537   5.057   4.372   9.769  0.9727 -1.8463  0.7523
    8CHL1  H15B  538   5.084   4.555   9.741 -0.8076  0.6462  2.6849
    8CHL1   C16  539   5.249   4.424   9.680 -0.2837  0.1236 -0.5830
    8CHL1  H16A  540   5.241   4.326   9.628 -1.1783  0.0877 -0.3818
    8CHL1  H16B  541   5.268   4.498   9.599  1.5667  0.2791 -0.0520
    8CHL1   C17  542   5.370   4.409   9.777  0.4772  0.0573  0.1731
    8CHL1   H17  543   5.411   4.512   9.782  0.4900  0.0962 -0.6285
    8CHL1   C13  544   5.306   4.375   9.908 -0.3323  1.1028 -0.2101
    8CHL1   C18  545   5.276   4.224   9.904  0.3438 -0.5192  0.5366
    8CHL1  H18A  546   5.252   4.200   9.798 -1.2482  2.1190  0.2118
    8CHL1  H18B  547   5.366   4.164   9.930  1.6006 -0.3819 -2.9540
    8CHL1  H18C  548   5.190   4.210   9.973 -1.0098  0.9121 -0.7869
    8CHL1   C12  549   5.381   4.418  10.036 -0.9280 -0.5606  0.2049
    8CHL1  H12A  550   5.465   4.348  10.052 -0.6013 -0.4276 -0.8867
    8CHL1  H12B  551   5.423   4.519  10.017 -1.2146 -0.3391  0.7338
    8CHL1   C11  552   5.296   4.417  10.165  0.7683  0.3300  0.3424
    8CHL1  H11A  553   5.279   4.311  10.197 -0.1571  0.7814  1.4159
    8CHL1  H11B  554   5.347   4.457  10.255  1.2951 -0.1550  0.2714
    8CHL1    C9  555   5.159   4.486  10.149  1.0833  0.6575 -0.0864
    8CHL1    H9  556   5.188   4.593  10.151  2.6613  0.2410  1.1169
    8CHL1   C10  557   5.062   4.482  10.269 -0.8505  0.2392 -1.0785
    8CHL1   C19  558   5.046   4.336  10.307 -0.2767  0.2403 -0.5027
    8CHL1  H19A  559   4.993   4.332  10.404 -2.0567  0.1629 -1.4379
    8CHL1  H19B  560   4.992   4.276  10.231  1.5250 -1.7700 -0.2844
    8CHL1  H19C  561   5.142   4.284  10.325 -0.6653 -0.4802 -0.5051
    8CHL1    C1  562   5.119   4.572  10.378  0.0593 -0.1284 -0.2303
    8CHL1   H1A  563   5.214   4.535  10.422 -0.4891  1.3688  2.4419
    8CHL1   H1B  564   5.146   4.673  10.341  0.1395 -0.3930 -0.8895
    8CHL1    C2  565   5.028   4.589  10.503  0.4194  1.1806 -0.2904
    8CHL1   H2A  566   5.064   4.675  10.564 -1.4084  0.8670  1.3396
    8CHL1   H2B  567   5.018   4.504  10.575 -1.7422  0.6424 -1.1381
    8CHL1   C20  568   5.485   4.318   9.722  0.4250  0.2698 -0.1449
    8CHL1   H20  569   5.443   4.218   9.702 -0.9024  0.8111 -0.1476
    8CHL1   C21  570   5.603   4.298   9.824 -0.4059  0.5106  0.7457
    8CHL1  H21A  571   5.691   4.262   9.766 -0.6287 -0.2443  0.8739
    8CHL1  H21B  572   5.567   4.227   9.901  0.3874 -1.4488 -0.6149
    8CHL1  H21C  573   5.634   4.394   9.871  3.4510  0.5646 -1.4603
    8CHL1   C22  574   5.539   4.364   9.583 -0.3661 -0.7859  0.2128
    8CHL1  H22A  575   5.465   4.419   9.522  0.9774  0.5122 -0.3264
    8CHL1  H22B  576   5.626   4.431   9.603  0.1506 -1.7377  1.3522
    8CHL1   C23  577   5.593   4.246   9.510  0.2121 -0.5636  0.0855
    8CHL1  H23A  578   5.677   4.197   9.564 -0.8682 -3.2049 -0.5012
    8CHL1  H23B  579   5.510   4.177   9.485 -0.5383  0.4555 -0.2892
    8CHL1   C24  580   5.643   4.288   9.369  0.3880 -0.2069 -0.2312
    8CHL1  H24A  581   5.559   4.344   9.323  0.0753 -0.5963 -0.1322
    8CHL1  H24B  582   5.734   4.351   9.379  1.7924 -2.1083 -0.4973
    8CHL1   C25  583   5.666   4.158   9.282 -0.2981 -0.1361 -0.4868
    8CHL1   H25  584   5.575   4.096   9.295  0.4175 -1.0045  0.5902
    8CHL1   C26  585   5.671   4.207   9.139 -0.1838  0.0729 -0.3338
    8CHL1  H26A  586   5.597   4.280   9.101  0.6845  0.7845 -0.7091
    8CHL1  H26B  587   5.774   4.243   9.119 -1.2398  1.7778 -3.3011
    8CHL1  H26C  588   5.655   4.109   9.089  1.3399 -0.3697 -0.0124
    8CHL1   C27  589   5.785   4.072   9.321 -0.6315 -0.2910  0.0143
    8CHL1  H27A  590   5.873   4.139   9.307 -0.4189 -0.0777  2.0565
    8CHL1  H27B  591   5.776   4.038   9.427  0.7753  0.6378  0.4683
    8CHL1  H27C  592   5.790   3.982   9.257 -0.4546 -0.2712 -0.0013
    9CHL1    C3  593   0.528   0.942  10.099 -0.2193  0.1799 -0.4698
    9CHL1    H3  594   0.619   1.005  10.086 -0.2922 -0.1020 -2.7560
    9CHL1    O3  595   0.506   0.926  10.239  0.1398  0.5510  0.9418
    9CHL1   H3'  596   0.591   0.957  10.270  0.9212  0.2046 -0.7163
    9CHL1    C4  597   0.410   1.010  10.035 -0.2191 -0.3408 -0.2946
    9CHL1   H4A  598   0.318   0.961  10.073 -0.1777  0.0428  0.3111
    9CHL1   H4B  599   0.407   1.112  10.079  1.7589  0.3161 -1.5621
    9CHL1    C5  600   0.419   1.010   9.888  1.0402 -0.1153  0.7941
    9CHL1    C6  601   0.410   1.118   9.804  0.2072  0.5561  0.0875
    9CHL1    H6  602   0.394   1.218   9.847  1.4388  0.7756  0.0529
    9CHL1    C7  603   0.414   1.114   9.662 -0.2930 -0.1106 -0.0692
    9CHL1   H7A  604   0.340   1.184   9.619  1.4939  2.3784  0.7060
    9CHL1   H7B  605   0.511   1.152   9.624 -1.0356 -0.2934 -2.2560
    9CHL1    C8  606   0.398   0.978   9.599 -0.4905 -0.1103 -0.6504
    9CHL1    H8  607   0.291   0.947   9.597 -0.3994 -0.5909  0.9076
    9CHL1   C14  608   0.456   0.987   9.459  0.8785 -0.6521 -0.3608
    9CHL1   H14  609   0.562   1.007   9.482  0.9910 -0.2831 -1.1892
    9CHL1   C15  610   0.395   1.095   9.374  0.0759 -0.3244  0.1959
    9CHL1  H15A  611   0.284   1.101   9.382  0.0672  0.9751 -0.5872
    9CHL1  H15B  612   0.442   1.193   9.395 -1.2939  1.0262 -2.5230
    9CHL1   C16  613   0.429   1.054   9.227  0.0460 -0.4549 -0.0705
    9CHL1  H16A  614   0.333   1.032   9.175 -1.2013  2.4492  0.7622
    9CHL1  H16B  615   0.482   1.131   9.167  0.0051  0.6850  1.2973
    9CHL1   C17  616   0.509   0.918   9.240  0.0800  0.1856  0.1765
    9CHL1   H17  617   0.615   0.952   9.250  0.1363  0.0831 -0.0733
    9CHL1   C13  618   0.451   0.854   9.375 -0.1456  0.7231  0.1370
    9CHL1   C18  619   0.309   0.799   9.351  0.0727  0.0519  0.0234
    9CHL1  H18A  620   0.235   0.874   9.316 -1.8889 -1.1308  1.4256
    9CHL1  H18B  621   0.314   0.709   9.287  0.8079 -0.2827  0.5400
    9CHL1  H18C  622   0.270   0.759   9.448  1.2882 -5.2534 -1.3601
    9CHL1   C12  623   0.539   0.745   9.449  0.0881  0.0946 -0.5021
    9CHL1  H12A  624   0.526   0.644   9.404 -0.4852 -0.7058  1.3547
    9CHL1  H12B  625   0.645   0.775   9.452 -0.0922  0.6848  0.1809
    9CHL1   C11  626   0.481   0.728   9.597  0.2041  0.0298 -0.0221
    9CHL1  H11A  627   0.376   0.691   9.595  0.0553  0.3294  1.1805
    9CHL1  H11B  628   0.548   0.657   9.650  0.5523 -0.2244 -0.7949
    9CHL1    C9  629   0.470   0.865   9.670 -0.2538 -0.1288 -0.6423
    9CHL1    H9  630   0.577   0.894   9.679 -0.9546  2.3989  0.7288
    9CHL1   C10  631   0.435   0.872   9.820 -0.3661  0.0708 -0.4997
    9CHL1   C19  632   0.315   0.778   9.840  0.3791 -0.4326  0.4260
    9CHL1  H19A  633   0.232   0.819   9.780  1.1290 -0.7713 -0.8845
    9CHL1  H19B  634   0.343   0.678   9.799 -1.0658  0.4288 -2.9530
    9CHL1  H19C  635   0.298   0.759   9.949 -2.0582 -1.7883 -0.1268
    9CHL1    C1  636   0.562   0.817   9.891  0.4762  0.0054  0.0127
    9CHL1   H1A  637   0.590   0.719   9.845  2.0671  0.0269  0.8914
    9CHL1   H1B  638   0.650   0.881   9.873 -0.0863  1.2556  1.4873
    9CHL1    C2  639   0.546   0.801  10.039 -0.0647 -0.2017 -0.0567
    9CHL1   H2A  640   0.632   0.752  10.090 -0.7190  0.1670  1.4681
    9CHL1   H2B  641   0.465   0.730  10.068 -0.8508  0.7391  0.1035
    9CHL1   C20  642   0.502   0.829   9.115 -0.2223  0.2615 -0.2894
    9CHL1   H20  643   0.398   0.795   9.102 -0.5366  0.8797  0.5197
    9CHL1   C21  644   0.594   0.712   9.136  0.0358  0.1709  0.2944
    9CHL1  H21A  645   0.559   0.618   9.184 -2.3681  0.4931 -0.7007
    9CHL1  H21B  646   0.695   0.752   9.160 -0.4188  1.6384 -0.1289
    9CHL1  H21C  647   0.609   0.669   9.035 -0.1559  0.1638  0.2679
    9CHL1   C22  648   0.552   0.909   8.988  0.6729  0.5691 -0.3831
    9CHL1  H22A  649   0.559   0.840   8.901 -0.1597 -1.3766  1.0294
    9CHL1  H22B  650   0.476   0.985   8.960 -1.0800 -1.0042 -0.0792
    9CHL1   C23  651   0.689   0.980   8.991  0.0920 -0.0852  0.0010
    9CHL1  H23A  652   0.694   1.047   9.079 -4.2395  3.0085 -1.7332
    9CHL1  H23B  653   0.762   0.897   9.001 -0.7425 -0.7992  0.3268
    9CHL1   C24  654   0.720   1.076   8.882  0.3365  0.3039  0.3896
    9CHL1  H24A  655   0.630   1.134   8.853  1.2410  1.0101 -1.1367
    9CHL1  H24B  656   0.795   1.149   8.921 -0.7556  0.6328  2.0078
    9CHL1   C25  657   0.769   1.001   8.754  0.7340 -0.5227  0.9580
    9CHL1   H25  658   0.701   0.916   8.732  0.7944 -0.1841 -0.6516
    9CHL1   C26  659   0.775   1.091   8.630  0.6406  0.2858  0.2584
    9CHL1  H26A  660   0.794   1.020   8.546 -1.2221  0.3353 -0.2482
    9CHL1  H26B  661   0.674   1.132   8.612  0.9296  1.5542  1.3863
    9CHL1  H26C  662   0.845   1.177   8.633 -1.6061  2.1806  1.7262
    9CHL1   C27  663   0.909   0.939   8.768 -0.2337  0.4505 -0.4885
    9CHL1  H27A  664   0.975   1.019   8.808  1.9675 -0.2319 -2.5260
    9CHL1  H27B  665   0.919   0.848   8.830 -0.7334  1.7918  1.6629
    9CHL1  H27C  666   0.956   0.920   8.669  1.1922  0.3964  0.1789
   10CHL1    C3  667   0.242   4.769   9.983 -0.0173 -0.0621 -0.4183
   10CHL1    H3  668   0.132   4.760   9.986 -0.1595  1.5511  0.6118
   10CHL1    O3  669   0.285   4.743  10.117  0.3759  0.4205 -0.2151
   10CHL1   H3'  670   0.235   4.809  10.166 -0.7626 -0.1286 -0.5911
   10CHL1    C4  671   0.306   4.675   9.883 -0.1424 -0.5023  0.2714
   10CHL1   H4A  672   0.415   4.698   9.886 -0.3506  0.9138 -1.6002
   10CHL1   H4B  673   0.284   4.573   9.922 -1.8965  0.4823  1.9841
   10CHL1    C5  674   0.253   4.700   9.743 -0.0579  0.5251 -0.9948
   10CHL1    C6  675   0.193   4.597   9.677  0.3107  0.3676  0.8154
   10CHL1    H6  676   0.181   4.501   9.730  1.5129 -1.3733 -1.8465
   10CHL1    C7  677   0.148   4.608   9.535  0.3668  0.2080  0.0611
   10CHL1   H7A  678   0.188   4.524   9.474  1.0617  1.0659 -0.6898
   10CHL1   H7B  679   0.037   4.607   9.526  0.0951  0.7246  2.5735
   10CHL1    C8  680   0.198   4.742   9.465  0.1130 -0.1608  0.9102
   10CHL1    H8  681   0.302   4.711   9.445 -0.3364 -0.6760 -0.7825
   10CHL1   C14  682   0.136   4.762   9.324 -0.6425 -0.1155 -0.8433
   10CHL1   H14  683   0.030   4.788   9.348 -0.6410  0.1336 -1.1059
   10CHL1   C15  684   0.145   4.646   9.227 -0.2795  0.7747  0.9920
   10CHL1  H15A  685   0.237   4.584   9.237 -2.0315 -1.9904  1.2412
   10CHL1  H15B  686   0.053   4.589   9.254 -0.9946  2.0595  1.3141
   10CHL1   C16  687   0.132   4.712   9.089 -0.1919  0.0646 -0.3567
   10CHL1  H16A  688   0.219   4.678   9.029  0.4921 -0.8597  1.1031
   10CHL1  H16B  689   0.044   4.669   9.037 -0.3368 -1.4335  1.0217
   10CHL1   C17  690   0.121   4.873   9.113  0.1202 -0.1228  0.4342
   10CHL1   H17  691   0.014   4.885   9.136 -0.0756 -0.3875 -0.2968
   10CHL1   C13  692   0.191   4.890   9.254  1.0550  0.8131  0.4487
   10CHL1   C18  693   0.348   4.879   9.235  0.4396 -0.2632  0.4966
   10CHL1  H18A  694   0.370   4.793   9.168 -1.0111  0.4773 -0.9825
   10CHL1  H18B  695   0.382   4.972   9.185  0.8986  0.9782  2.9393
   10CHL1  H18C  696   0.409   4.848   9.323  2.3586 -2.0661 -1.3558
   10CHL1   C12  697   0.158   5.013   9.339  0.4580 -0.8762  0.5633
   10CHL1  H12A  698   0.202   5.099   9.284 -1.9361 -0.9653 -1.7065
   10CHL1  H12B  699   0.049   5.031   9.354  0.6204 -0.0014  0.7135
   10CHL1   C11  700   0.227   4.997   9.475 -0.4921 -0.6615  0.2698
   10CHL1  H11A  701   0.337   4.998   9.459 -0.3368  0.5169  1.2721
   10CHL1  H11B  702   0.210   5.088   9.536  2.2588 -0.3740  0.7328
   10CHL1    C9  703   0.193   4.867   9.552 -0.4413  0.1295  0.0130
   10CHL1    H9  704   0.086   4.863   9.579 -0.8348 -1.0022 -1.5640
   10CHL1   C10  705   0.274   4.845   9.689  0.4669 -0.1959 -0.2582
   10CHL1   C19  706   0.424   4.865   9.665 -0.0122  0.6067  0.7404
   10CHL1  H19A  707   0.462   4.791   9.590 -0.3672  2.0378 -0.9195
   10CHL1  H19B  708   0.450   4.968   9.633 -0.3268  1.2515  2.4879
   10CHL1  H19C  709   0.483   4.839   9.756 -0.1210  0.9893  0.9195
   10CHL1    C1  710   0.224   4.948   9.797 -0.5154  0.0120 -0.2050
   10CHL1   H1A  711   0.273   5.042   9.763 -0.6445  0.4955  0.9025
   10CHL1   H1B  712   0.114   4.962   9.791 -0.3942  0.8856 -0.5766
   10CHL1    C2  713   0.264   4.918   9.945 -0.1709 -0.1746  0.5153
   10CHL1   H2A  714   0.207   4.982  10.015 -1.0554 -0.4471  0.0661
   10CHL1   H2B  715   0.373   4.939   9.955 -0.0152 -1.1303  0.9453
   10CHL1   C20  716   0.153   4.953   8.987 -0.5320  0.5944 -0.1873
   10CHL1   H20  717   0.262   4.968   8.975 -0.6596  1.9825  0.2300
   10CHL1   C21  718   0.099   5.096   8.994 -0.1512 -0.0867 -0.4729
   10CHL1  H21A  719  -0.010   5.104   9.016 -0.2758  0.6828 -1.2885
   10CHL1  H21B  720   0.118   5.154   8.901  1.8504  0.8051  0.4287
   10CHL1  H21C  721   0.161   5.145   9.072  1.2310 -0.4832 -1.2773
   10CHL1   C22  722   0.099   4.893   8.858  0.3769  0.0286  0.3095
   10CHL1  H22A  723   0.118   4.784   8.849 -3.1195 -0.8394  1.9356
   10CHL1  H22B  724  -0.011   4.896   8.846  0.0410 -0.6032  2.7917
   10CHL1   C23  725   0.165   4.950   8.729 -0.0090 -0.1313 -0.5704
   10CHL1  H23A  726   0.134   5.057   8.731 -0.2398 -0.1881 -0.9693
   10CHL1  H23B  727   0.276   4.951   8.739  0.0446 -0.5969 -1.0994
   10CHL1   C24  728   0.120   4.884   8.603 -0.4073 -0.0266  0.0719
   10CHL1  H24A  729   0.165   4.783   8.611  1.9463  0.9076 -0.4306
   10CHL1  H24B  730   0.009   4.882   8.606 -0.4987  1.0085 -1.3038
   10CHL1   C25  731   0.167   4.943   8.473 -0.7242 -0.4792 -0.4150
   10CHL1   H25  732   0.133   5.049   8.471  0.8519  0.0924  1.0643
   10CHL1   C26  733   0.319   4.954   8.450 -0.1856  0.3193  0.0343
   10CHL1  H26A  734   0.369   5.035   8.508  0.2719  0.4833 -0.5689
   10CHL1  H26B  735   0.371   4.860   8.482 -0.1499 -0.5815 -2.4479
   10CHL1  H26C  736   0.350   4.979   8.347  0.4241  1.0263  0.3788
   10CHL1   C27  737   0.103   4.882   8.349  0.1912 -0.2095 -0.3254
   10CHL1  H27A  738  -0.007   4.896   8.343 -0.0869 -2.6056 -2.2904
   10CHL1  H27B  739   0.143   4.931   8.258 -0.3754  0.5169 -0.1947
   10CHL1  H27C  740   0.111   4.771   8.348 -2.1233 -0.4350 -0.5623
   11CHL1    C3  741   0.757   0.283  10.107  0.4891  0.8274  0.7373
   11CHL1    H3  742   0.658   0.273  10.057  1.6353 -0.5130 -1.4345
   11CHL1    O3  743   0.747   0.242  10.245 -0.2218 -0.0674  0.0228
   11CHL1   H3'  744   0.666   0.192  10.252  0.4234 -1.3436 -1.0026
   11CHL1    C4  745   0.854   0.193  10.019 -0.4685 -0.6770  0.1654
   11CHL1   H4A  746   0.952   0.187  10.071 -0.9374 -1.9017  0.9536
   11CHL1   H4B  747   0.813   0.090  10.029 -1.6008 -0.1969  0.6444
   11CHL1    C5  748   0.867   0.234   9.875 -0.2424 -0.2912 -0.6946
   11CHL1    C6  749   0.836   0.145   9.777 -0.0258 -0.6792 -0.7365
   11CHL1    H6  750   0.808   0.042   9.805 -0.2083 -0.3582  0.2830
   11CHL1    C7  751   0.845   0.188   9.632  0.1544 -0.7263 -0.5126
   11CHL1   H7A  752   0.886   0.110   9.565  0.5531 -0.0422 -1.0738
   11CHL1   H7B  753   0.744   0.222   9.597  0.4617  1.3286  0.4332
   11CHL1    C8  754   0.935   0.313   9.611  0.2549  0.1929 -0.2481
   11CHL1    H8  755   1.041   0.286   9.629  0.2728  0.0415 -0.5730
   11CHL1   C14  756   0.908   0.359   9.462  0.6232  0.1341  0.0698
   11CHL1   H14  757   0.805   0.399   9.453  0.2886 -0.7572 -0.1427
   11CHL1   C15  758   0.921   0.266   9.341 -0.4440 -0.2453  0.5699
   11CHL1  H15A  759   1.023   0.223   9.352  0.3127  1.1466 -0.6231
   11CHL1  H15B  760   0.851   0.182   9.322 -1.7133  0.3620  2.3228
   11CHL1   C16  761   0.921   0.369   9.227  0.1860  0.0254  0.5904
   11CHL1  H16A  762   1.001   0.343   9.155 -3.5619 -1.8188 -3.3929
   11CHL1  H16B  763   0.825   0.380   9.171  0.7635  2.5453 -0.0278
   11CHL1   C17  764   0.948   0.518   9.276  0.4024  0.6541 -0.2668
   11CHL1   H17  765   0.847   0.563   9.284  0.0702 -0.1525  0.2118
   11CHL1   C13  766   0.992   0.491   9.429  0.5852  0.0366  0.3122
   11CHL1   C18  767   1.141   0.473   9.436  0.1327  0.1179  0.2993
   11CHL1  H18A  768   1.173   0.397   9.361  1.8600  1.3609 -0.2965
   11CHL1  H18B  769   1.200   0.564   9.409  1.3394 -0.8100 -0.3144
   11CHL1  H18C  770   1.178   0.447   9.538  1.2848  1.6050  0.3075
   11CHL1   C12  771   0.941   0.593   9.528 -0.7524  0.1609 -0.7802
   11CHL1  H12A  772   0.993   0.691   9.519  1.2378 -0.8152 -0.2595
   11CHL1  H12B  773   0.834   0.624   9.517 -0.7863  1.3492  2.0498
   11CHL1   C11  774   0.971   0.558   9.676 -0.5569 -0.0069 -0.3313
   11CHL1  H11A  775   1.079   0.552   9.702 -0.6093 -2.7750 -0.5128
   11CHL1  H11B  776   0.931   0.640   9.740  3.5461  1.7484  0.3518
   11CHL1    C9  777   0.896   0.425   9.711 -0.1703  0.3264 -0.9858
   11CHL1    H9  778   0.789   0.451   9.698 -1.0668 -1.5957  1.6671
   11CHL1   C10  779   0.907   0.381   9.862 -0.2200 -0.0742 -0.3906
   11CHL1   C19  780   1.055   0.387   9.910 -0.0504  0.3831 -0.4521
   11CHL1  H19A  781   1.072   0.344  10.011 -0.1697  1.0634 -0.1364
   11CHL1  H19B  782   1.106   0.314   9.844 -3.0011 -1.9950 -0.3409
   11CHL1  H19C  783   1.102   0.487   9.917  1.6012 -0.4659  1.6066
   11CHL1    C1  784   0.814   0.471   9.946  0.1134  0.1646 -0.0512
   11CHL1   H1A  785   0.832   0.578   9.921 -0.4289  0.0642 -0.9075
   11CHL1   H1B  786   0.706   0.462   9.923 -0.5017  1.9436  1.8396
   11CHL1    C2  787   0.812   0.426  10.095 -0.4754 -0.0650  0.7478
   11CHL1   H2A  788   0.752   0.495  10.158 -0.3429 -1.1406  2.0871
   11CHL1   H2B  789   0.912   0.429  10.143 -0.1926  2.2547  0.1374
   11CHL1   C20  790   1.044   0.591   9.181  0.1444  0.2030  0.4591
   11CHL1   H20  791   1.144   0.542   9.189  0.3048  0.5103  0.3272
   11CHL1   C21  792   1.037   0.740   9.224 -0.3764 -0.0668  0.2575
   11CHL1  H21A  793   0.933   0.774   9.244 -0.7095 -1.5638  1.2771
   11CHL1  H21B  794   1.070   0.790   9.130  1.7405 -1.5010  0.1738
   11CHL1  H21C  795   1.099   0.763   9.313  0.7345 -0.8491 -0.2880
   11CHL1   C22  796   1.009   0.580   9.025  0.5744 -0.4196  0.0159
   11CHL1  H22A  797   0.970   0.479   8.999  0.0600 -0.5777  1.3308
   11CHL1  H22B  798   0.936   0.663   9.016  0.4027 -0.2669  2.3099
   11CHL1   C23  799   1.138   0.608   8.932 -0.8269 -0.1977  0.2599
   11CHL1  H23A  800   1.172   0.712   8.950  1.5485 -0.8586 -0.0971
   11CHL1  H23B  801   1.220   0.535   8.951  0.6035  1.0441 -0.9089
   11CHL1   C24  802   1.092   0.584   8.785 -0.2352  0.0972 -0.7859
   11CHL1  H24A  803   1.057   0.479   8.776 -0.5401  0.2675 -1.6201
   11CHL1  H24B  804   1.012   0.659   8.766  0.4206  1.2804  0.7945
   11CHL1   C25  805   1.202   0.607   8.682 -0.4787  0.5324  0.6450
   11CHL1   H25  806   1.260   0.697   8.712 -0.1440 -0.3176  2.6955
   11CHL1   C26  807   1.300   0.487   8.672  0.0682  0.3211  1.3074
   11CHL1  H26A  808   1.355   0.478   8.768 -0.4984  0.1900  1.6232
   11CHL1  H26B  809   1.236   0.397   8.666 -0.4237  0.5431  2.8267
   11CHL1  H26C  810   1.367   0.496   8.584  0.6983  2.3313  1.9407
   11CHL1   C27  811   1.137   0.626   8.536  0.4110 -0.9481  0.4419
   11CHL1  H27A  812   1.220   0.660   8.470 -1.3954  1.1952 -0.8746
   11CHL1  H27B  813   1.086   0.536   8.496 -0.9559 -1.5643  3.2406
   11CHL1  H27C  814   1.059   0.705   8.539 -0.4387 -1.7332 -0.3918
   12CHL1    C3  815   5.477   4.826  10.246  0.1243 -0.2660 -0.4983
   12CHL1    H3  816   5.476   4.715  10.236  0.2523 -0.2769 -0.3943
   12CHL1    O3  817   5.492   4.866  10.377 -0.1609  0.3641  0.7843
   12CHL1   H3'  818   5.505   4.961  10.381  0.0920  0.3221  1.0098
   12CHL1    C4  819   5.605   4.877  10.169 -0.4447 -0.6071  0.2302
   12CHL1   H4A  820   5.615   4.986  10.187  3.6745 -0.7490 -0.1518
   12CHL1   H4B  821   5.691   4.825  10.217  0.2196 -0.6608 -0.9752
   12CHL1    C5  822   5.589   4.857  10.018  0.7071  0.2152 -0.2843
   12CHL1    C6  823   5.674   4.783   9.949  0.0380  0.8246 -0.0635
   12CHL1    H6  824   5.769   4.754   9.996 -0.1555  0.2968  0.0065
   12CHL1    C7  825   5.657   4.752   9.806  0.6581 -0.2775  0.1809
   12CHL1   H7A  826   5.753   4.774   9.753  0.3257 -0.9308 -0.7144
   12CHL1   H7B  827   5.632   4.645   9.793  0.3208 -0.3658  1.4495
   12CHL1    C8  828   5.554   4.838   9.719 -0.2473 -0.1520 -0.1115
   12CHL1    H8  829   5.606   4.935   9.704 -0.4674 -0.1978 -1.2914
   12CHL1   C14  830   5.515   4.770   9.585 -0.4991  0.7527 -0.7297
   12CHL1   H14  831   5.473   4.673   9.620  0.5271  0.5489 -0.0024
   12CHL1   C15  832   5.624   4.733   9.483  0.1020 -0.4610  0.0387
   12CHL1  H15A  833   5.712   4.802   9.480 -1.7522  2.0772  0.4498
   12CHL1  H15B  834   5.659   4.629   9.501  1.6752 -0.0329 -0.3748
   12CHL1   C16  835   5.549   4.726   9.351  0.1257 -0.5100 -0.0951
   12CHL1  H16A  836   5.575   4.804   9.276  2.3465 -0.1226  0.9932
   12CHL1  H16B  837   5.562   4.627   9.302 -2.0655  0.1487 -2.2394
   12CHL1   C17  838   5.397   4.741   9.385 -0.8064 -0.7574 -0.1647
   12CHL1   H17  839   5.364   4.640   9.419 -2.4756 -0.1669  0.0181
   12CHL1   C13  840   5.403   4.834   9.514 -0.4584 -1.1142  0.3701
   12CHL1   C18  841   5.439   4.981   9.463  0.7364 -0.0844 -0.0876
   12CHL1  H18A  842   5.466   5.034   9.557  1.1984 -3.5044  1.9162
   12CHL1  H18B  843   5.526   4.981   9.395 -1.0092 -0.9878 -2.4475
   12CHL1  H18C  844   5.362   5.034   9.403 -1.5245 -1.5972  1.3297
   12CHL1   C12  845   5.277   4.842   9.602 -0.2376 -0.1361 -0.6113
   12CHL1  H12A  846   5.210   4.898   9.534  2.2553  1.2670 -2.0687
   12CHL1  H12B  847   5.239   4.739   9.617 -2.8269  0.5161 -2.1305
   12CHL1   C11  848   5.304   4.910   9.738 -0.3008 -0.4464  1.0724
   12CHL1  H11A  849   5.315   5.020   9.737 -0.0079 -0.4581  1.8590
   12CHL1  H11B  850   5.218   4.880   9.802 -0.3370 -2.2588  0.2244
   12CHL1    C9  851   5.429   4.849   9.807 -0.2410 -0.1915 -0.0532
   12CHL1    H9  852   5.389   4.747   9.820  0.5213 -0.7356 -1.7920
   12CHL1   C10  853   5.455   4.900   9.952  0.8298  0.0656  0.4224
   12CHL1   C19  854   5.464   5.054   9.948  0.0706  1.3163 -0.4585
   12CHL1  H19A  855   5.365   5.092   9.917 -0.4229  0.6786  0.3022
   12CHL1  H19B  856   5.454   5.102  10.048 -2.4918 -0.7770  0.4285
   12CHL1  H19C  857   5.545   5.101   9.888  0.5095  1.5147  0.2742
   12CHL1    C1  858   5.328   4.856  10.046 -0.5302  0.8376  0.2958
   12CHL1   H1A  859   5.240   4.911  10.004 -0.5763 -0.2560 -1.0983
   12CHL1   H1B  860   5.310   4.749  10.027 -3.6093  1.3333 -0.0605
   12CHL1    C2  861   5.351   4.891  10.198  0.5703  0.1871  0.3746
   12CHL1   H2A  862   5.262   4.851  10.252  1.0754  0.2661  1.2933
   12CHL1   H2B  863   5.354   5.001  10.207 -2.3247  0.8359 -3.5796
   12CHL1   C20  864   5.315   4.781   9.267  0.2735 -0.3865 -0.1048
   12CHL1   H20  865   5.327   4.889   9.245 -2.1465  0.0717  0.5461
   12CHL1   C21  866   5.169   4.764   9.304  0.0413 -0.0713 -0.6860
   12CHL1  H21A  867   5.137   4.685   9.376  3.2153  0.2376  1.2743
   12CHL1  H21B  868   5.123   4.741   9.206 -1.7809  0.7646 -0.0728
   12CHL1  H21C  869   5.125   4.857   9.344 -1.5278 -1.6445  1.4931
   12CHL1   C22  870   5.346   4.698   9.139  0.7484 -0.6167  0.1223
   12CHL1  H22A  871   5.287   4.745   9.057  1.6944  1.0537  0.3353
   12CHL1  H22B  872   5.455   4.712   9.119  0.5423  0.4652 -0.3482
   12CHL1   C23  873   5.311   4.545   9.139 -0.3250  0.3340 -0.3280
   12CHL1  H23A  874   5.367   4.488   9.217  0.9751 -3.2293 -3.5128
   12CHL1  H23B  875   5.204   4.531   9.162 -0.3131  0.5003 -0.1746
   12CHL1   C24  876   5.329   4.468   9.002 -0.0223  0.5177  0.4570
   12CHL1  H24A  877   5.297   4.527   8.914  2.7136 -0.0720 -1.0374
   12CHL1  H24B  878   5.438   4.461   8.982 -0.4738  0.2380 -2.1720
   12CHL1   C25  879   5.280   4.326   8.992  0.2089 -0.0185 -0.7127
   12CHL1   H25  880   5.353   4.268   8.932 -0.5579 -1.6009 -0.1835
   12CHL1   C26  881   5.262   4.252   9.125  0.1503  1.0069 -0.2408
   12CHL1  H26A  882   5.271   4.142   9.113 -3.8113  0.8481 -4.3740
   12CHL1  H26B  883   5.341   4.291   9.193 -1.4809  2.7134  0.8034
   12CHL1  H26C  884   5.177   4.282   9.190 -0.6907 -1.9367  0.1551
   12CHL1   C27  885   5.147   4.314   8.918  0.3620  0.3457  1.0369
   12CHL1  H27A  886   5.107   4.214   8.944  1.6964 -1.1120 -2.0221
   12CHL1  H27B  887   5.067   4.381   8.955  0.7003  2.2175 -1.3448
   12CHL1  H27C  888   5.165   4.318   8.808 -1.1443 -4.8964  0.3227
   13CHL1    C3  889   5.176   6.234   9.823 -0.5005  0.0986  0.4414
   13CHL1    H3  890   5.257   6.299   9.783 -0.9212  0.1083 -0.4260
   13CHL1    O3  891   5.151   6.274   9.953 -0.2630  0.3798 -0.3530
   13CHL1   H3'  892   5.220   6.244  10.013  0.2055  2.3149  0.1692
   13CHL1    C4  893   5.044   6.264   9.743 -1.3489  0.2702 -0.6720
   13CHL1   H4A  894   4.959   6.210   9.791 -0.4330  0.0583  0.7516
   13CHL1   H4B  895   5.020   6.372   9.747 -0.2245  0.5046  2.3788
   13CHL1    C5  896   5.062   6.221   9.596 -0.0149 -0.6030 -0.3822
   13CHL1    C6  897   5.063   6.308   9.488  0.7248 -0.0074  0.0010
   13CHL1    H6  898   5.031   6.412   9.500 -0.8570 -0.5079  0.3636
   13CHL1    C7  899   5.092   6.262   9.352 -0.1505  0.1921  0.7025
   13CHL1   H7A  900   5.024   6.316   9.282  1.3832  0.4350 -0.6415
   13CHL1   H7B  901   5.189   6.300   9.313 -1.0926 -0.1723 -2.2087
   13CHL1    C8  902   5.074   6.109   9.333 -0.5145  0.1159  0.2244
   13CHL1    H8  903   4.969   6.074   9.343 -0.7923  0.8400 -0.0757
   13CHL1   C14  904   5.125   6.071   9.189 -0.3074 -0.9817 -0.8474
   13CHL1   H14  905   5.231   6.106   9.193 -0.5525 -0.3081 -0.1016
   13CHL1   C15  906   5.057   6.140   9.069 -0.0061  0.5143  0.1981
   13CHL1  H15A  907   4.949   6.125   9.090 -0.8625  0.5767 -3.4843
   13CHL1  H15B  908   5.087   6.246   9.079  0.5426  0.3546  0.2703
   13CHL1   C16  909   5.113   6.061   8.949  0.4779  0.8108 -0.1576
   13CHL1  H16A  910   5.036   6.020   8.880 -1.6993  0.7398  2.1453
   13CHL1  H16B  911   5.189   6.117   8.891  0.1692 -0.3742 -1.7919
   13CHL1   C17  912   5.176   5.932   9.004 -0.3166 -0.2959  0.0645
   13CHL1   H17  913   5.284   5.958   9.006 -0.7943  1.8831 -0.5090
   13CHL1   C13  914   5.128   5.928   9.153  0.1404  0.2960 -0.2576
   13CHL1   C18  915   4.981   5.861   9.169 -0.5854 -0.6034  0.4337
   13CHL1  H18A  916   4.973   5.756   9.135  0.5662 -0.9866  1.2853
   13CHL1  H18B  917   4.955   5.859   9.277 -0.1500  0.3994  0.5633
   13CHL1  H18C  918   4.900   5.924   9.125 -1.6526 -1.8539  0.5174
   13CHL1   C12  919   5.221   5.860   9.250  0.2289  0.1833 -0.3836
   13CHL1  H12A  920   5.230   5.750   9.246 -0.9187 -0.0500  1.8500
   13CHL1  H12B  921   5.319   5.911   9.247 -0.2839  1.2600  0.3684
   13CHL1   C11  922   5.187   5.891   9.403 -0.4016  0.4101 -0.0323
   13CHL1  H11A  923   5.103   5.826   9.436  1.8392 -1.6190  2.1040
   13CHL1  H11B  924   5.270   5.859   9.470 -0.0907 -0.1700 -0.6811
   13CHL1    C9  925   5.162   6.041   9.438  0.8033  0.2736 -0.0380
   13CHL1    H9  926   5.263   6.087   9.430  0.2588  1.6931  0.9710
   13CHL1   C10  927   5.111   6.074   9.582  0.5504  0.5467 -0.0184
   13CHL1   C19  928   4.984   5.990   9.619 -0.0257 -0.0742  0.5153
   13CHL1  H19A  929   4.948   6.024   9.718  0.6103 -1.3319  1.2087
   13CHL1  H19B  930   4.903   6.006   9.545  0.7436 -1.2413 -0.6457
   13CHL1  H19C  931   5.009   5.882   9.624  1.2700  0.1396 -0.5907
   13CHL1    C1  932   5.219   6.037   9.676  0.0194  0.5807 -0.0690
   13CHL1   H1A  933   5.239   5.928   9.670 -1.1629  0.3935 -0.8296
   13CHL1   H1B  934   5.316   6.079   9.641 -0.2967 -0.5865 -2.5142
   13CHL1    C2  935   5.199   6.083   9.822  0.2614 -0.0346  0.2119
   13CHL1   H2A  936   5.284   6.048   9.884 -0.9871  0.4274  2.2735
   13CHL1   H2B  937   5.111   6.039   9.874 -0.1772 -2.1704 -2.1647
   13CHL1   C20  938   5.164   5.804   8.921  0.7285  0.3510  1.5719
   13CHL1   H20  939   5.055   5.781   8.920  0.5992  0.9075 -0.5546
   13CHL1   C21  940   5.237   5.686   8.978 -0.7185 -0.0238 -0.8353
   13CHL1  H21A  941   5.253   5.604   8.905  3.3163 -0.6707  0.5114
   13CHL1  H21B  942   5.185   5.640   9.065 -0.9411  2.8198  0.6809
   13CHL1  H21C  943   5.340   5.721   8.999 -0.1228 -0.1070 -3.3257
   13CHL1   C22  944   5.205   5.808   8.776 -0.0562  0.5212  0.7498
   13CHL1  H22A  945   5.187   5.709   8.728 -0.4818 -0.0280  1.9749
   13CHL1  H22B  946   5.140   5.883   8.726 -0.5860 -0.7308 -0.4948
   13CHL1   C23  947   5.343   5.847   8.733  0.2426 -0.2684 -0.0499
   13CHL1  H23A  948   5.354   5.949   8.775  0.9600  0.0678 -1.0097
   13CHL1  H23B  949   5.407   5.769   8.781  2.1390  0.8721 -0.6247
   13CHL1   C24  950   5.376   5.842   8.581 -0.4275 -0.5889  0.5260
   13CHL1  H24A  951   5.299   5.900   8.525 -1.7929 -3.8758 -1.2715
   13CHL1  H24B  952   5.474   5.889   8.562 -1.8310  2.9755  1.2666
   13CHL1   C25  953   5.384   5.702   8.513 -0.5258  0.0973  0.6321
   13CHL1   H25  954   5.293   5.647   8.543  0.8652 -0.7210  3.7844
   13CHL1   C26  955   5.397   5.714   8.363 -0.6807 -0.7541  0.1174
   13CHL1  H26A  956   5.387   5.622   8.301  1.1096  0.1705 -1.6446
   13CHL1  H26B  957   5.313   5.772   8.320 -0.0123 -0.6966 -1.1678
   13CHL1  H26C  958   5.488   5.771   8.334 -0.9274 -0.3101  0.2072
   13CHL1   C27  959   5.507   5.627   8.565 -0.5233  0.0704 -0.6021
   13CHL1  H27A  960   5.475   5.579   8.659 -2.3176  1.9685 -0.1581
   13CHL1  H27B  961   5.530   5.545   8.493 -3.2181 -1.0107 -0.3561
   13CHL1  H27C  962   5.590   5.698   8.585 -0.1026 -0.7468  0.6227
   14CHL1    C3  963   2.939   3.822  10.322 -0.2456  0.0963  0.3131
   14CHL1    H3  964   2.945   3.917  10.266 -1.7218 -0.3718 -0.6863
   14CHL1    O3  965   2.901   3.853  10.455 -0.3548  0.5539 -0.2277
   14CHL1   H3'  966   2.890   3.766  10.493  1.6041  0.2779 -0.1912
   14CHL1    C4  967   2.826   3.728  10.271 -0.3405 -0.6621  0.3134
   14CHL1   H4A  968   2.822   3.633  10.327 -0.2887 -1.7263 -1.4135
   14CHL1   H4B  969   2.731   3.782  10.291 -0.4692 -0.5297 -0.5933
   14CHL1    C5  970   2.853   3.714  10.121 -0.5084  0.0220  0.7825
   14CHL1    C6  971   2.772   3.757  10.027 -0.3337 -0.4356  1.0216
   14CHL1    H6  972   2.673   3.797  10.053 -0.7451 -0.0517 -0.9432
   14CHL1    C7  973   2.793   3.734   9.876 -0.3001 -0.1706  0.1885
   14CHL1   H7A  974   2.693   3.705   9.837 -0.3890 -1.4370  1.2930
   14CHL1   H7B  975   2.826   3.826   9.823 -0.7016 -0.2985 -0.2984
   14CHL1    C8  976   2.896   3.621   9.842 -0.1134  0.0190 -0.2963
   14CHL1    H8  977   2.853   3.522   9.869  0.5552 -0.7625 -1.9042
   14CHL1   C14  978   2.937   3.613   9.700 -1.0385 -0.7343  0.2666
   14CHL1   H14  979   2.992   3.707   9.680  0.6213 -2.2786 -3.5342
   14CHL1   C15  980   2.832   3.602   9.588  0.1899  0.0022 -0.1707
   14CHL1  H15A  981   2.743   3.538   9.604 -0.0786  0.2723 -0.5835
   14CHL1  H15B  982   2.792   3.704   9.570 -2.1256 -0.2423  2.7918
   14CHL1   C16  983   2.909   3.544   9.470 -0.4271 -0.2070  0.2933
   14CHL1  H16A  984   2.855   3.453   9.435 -0.2773 -0.3544  0.4454
   14CHL1  H16B  985   2.910   3.610   9.381 -1.6178  0.0755  0.4638
   14CHL1   C17  986   3.054   3.510   9.517  0.3825 -0.2911  0.8645
   14CHL1   H17  987   3.113   3.602   9.500 -1.2616  0.9384  1.4680
   14CHL1   C13  988   3.033   3.495   9.668  0.2562 -1.0902 -0.0829
   14CHL1   C18  989   2.966   3.359   9.707  0.1320 -0.0765 -0.7858
   14CHL1  H18A  990   2.874   3.338   9.648 -0.1939 -1.7450  0.2417
   14CHL1  H18B  991   3.038   3.283   9.669  0.8562  0.9803 -1.6153
   14CHL1  H18C  992   2.949   3.357   9.816  1.9097  0.2228 -0.4671
   14CHL1   C12  993   3.159   3.526   9.750 -0.1259  0.4291  0.4940
   14CHL1  H12A  994   3.234   3.444   9.743 -1.2787 -0.6096 -0.2761
   14CHL1  H12B  995   3.210   3.621   9.722 -1.0104  1.4932  2.3141
   14CHL1   C11  996   3.130   3.542   9.895 -0.2349  0.3654  0.2316
   14CHL1  H11A  997   3.106   3.440   9.932  0.6187 -0.0508 -0.3197
   14CHL1  H11B  998   3.212   3.580   9.960 -0.6294 -1.3234  1.8008
   14CHL1    C9  999   3.018   3.641   9.932 -0.3785 -0.3245 -0.1420
   14CHL1    H9 1000   3.065   3.738   9.910 -0.1422 -0.6550 -1.1499
   14CHL1   C10 1001   2.987   3.641  10.085  0.0789  0.4491  0.1310
   14CHL1   C19 1002   2.972   3.495  10.142 -0.2038 -0.1911  0.5931
   14CHL1  H19A 1003   2.885   3.450  10.089 -0.5235  0.8484  0.2074
   14CHL1  H19B 1004   3.063   3.432  10.127 -0.5492 -0.5192 -0.1911
   14CHL1  H19C 1005   2.970   3.506  10.252  2.1550  1.0712  0.5684
   14CHL1    C1 1006   3.104   3.709  10.170 -0.1071 -0.5460 -0.4084
   14CHL1   H1A 1007   3.203   3.660  10.155  0.1061  0.5454 -2.9843
   14CHL1   H1B 1008   3.119   3.810  10.127  1.0021  0.9951  3.1933
   14CHL1    C2 1009   3.076   3.757  10.314 -0.2887  0.0033 -0.7935
   14CHL1   H2A 1010   3.155   3.821  10.358 -0.4942 -0.3487  0.1050
   14CHL1   H2B 1011   3.076   3.656  10.361 -2.0393 -0.3296 -1.4443
   14CHL1   C20 1012   3.125   3.398   9.441 -0.2373 -0.1289  0.9481
   14CHL1   H20 1013   3.065   3.305   9.441 -0.0709 -0.2415  0.5116
   14CHL1   C21 1014   3.275   3.376   9.487  0.6408 -0.2879 -0.8220
   14CHL1  H21A 1015   3.337   3.331   9.407 -0.7394 -0.2844 -1.9349
   14CHL1  H21B 1016   3.278   3.308   9.574  0.8811 -1.2415 -1.5620
   14CHL1  H21C 1017   3.313   3.478   9.512 -0.4012 -0.1171  0.1710
   14CHL1   C22 1018   3.136   3.427   9.286  0.7674  0.3887  0.1210
   14CHL1  H22A 1019   3.037   3.464   9.251 -0.0627 -1.8984 -0.1414
   14CHL1  H22B 1020   3.222   3.493   9.265  3.6628 -3.2797 -0.6694
   14CHL1   C23 1021   3.162   3.301   9.205 -0.7571  0.0710  0.1398
   14CHL1  H23A 1022   3.253   3.244   9.232 -1.4396 -0.6232  1.0264
   14CHL1  H23B 1023   3.077   3.233   9.230 -1.1433 -0.2706 -1.9064
   14CHL1   C24 1024   3.172   3.328   9.055  1.3977 -0.0785  0.1834
   14CHL1  H24A 1025   3.085   3.391   9.025  0.5692 -1.6709 -0.8825
   14CHL1  H24B 1026   3.262   3.390   9.036  1.0605  0.1836 -0.5720
   14CHL1   C25 1027   3.182   3.210   8.957 -0.5151  0.3708  0.3278
   14CHL1   H25 1028   3.087   3.152   8.964 -0.9705  0.9221 -1.1111
   14CHL1   C26 1029   3.193   3.257   8.811 -0.4874 -0.1730  0.6615
   14CHL1  H26A 1030   3.094   3.303   8.793 -0.0331  0.1968 -1.1075
   14CHL1  H26B 1031   3.271   3.335   8.794 -1.1028  0.0395 -1.4348
   14CHL1  H26C 1032   3.216   3.167   8.750  1.9626 -0.5752  2.0316
   14CHL1   C27 1033   3.303   3.120   8.994  0.8441 -0.3910 -0.0127
   14CHL1  H27A 1034   3.393   3.183   9.007 -1.7998  3.4271  1.5461
   14CHL1  H27B 1035   3.287   3.072   9.093  0.3885 -1.2917 -0.5049
   14CHL1  H27C 1036   3.324   3.036   8.924  1.2356 -0.6797  0.4491
   15CHL1    C3 1037   2.283   2.300  10.260  0.9241  0.2812  0.1329
   15CHL1    H3 1038   2.390   2.329  10.264  0.6120  1.6802 -0.8288
   15CHL1    O3 1039   2.236   2.262  10.388 -0.0748 -0.3384 -0.1126
   15CHL1   H3' 1040   2.146   2.231  10.372 -0.2572  0.9203 -1.7693
   15CHL1    C4 1041   2.187   2.406  10.210  0.5433 -0.3012 -0.0080
   15CHL1   H4A 1042   2.079   2.380  10.217  0.5417 -0.5080 -0.7348
   15CHL1   H4B 1043   2.190   2.498  10.272 -2.1332  0.4301 -0.8109
   15CHL1    C5 1044   2.216   2.449  10.072 -0.3091 -0.0948 -0.0543
   15CHL1    C6 1045   2.258   2.579  10.049  0.3624  0.6496  0.1574
   15CHL1    H6 1046   2.278   2.646  10.133  1.4880 -0.9296  1.2124
   15CHL1    C7 1047   2.306   2.626   9.913  0.0004 -0.3208  0.1892
   15CHL1   H7A 1048   2.266   2.724   9.882  0.3733 -0.7380 -1.7069
   15CHL1   H7B 1049   2.417   2.633   9.916 -0.0510  0.3754  0.6139
   15CHL1    C8 1050   2.270   2.528   9.797 -0.7672 -0.0937  0.5827
   15CHL1    H8 1051   2.161   2.523   9.776 -0.7721  0.5898  0.4224
   15CHL1   C14 1052   2.346   2.565   9.672 -0.2728  0.5863 -0.5272
   15CHL1   H14 1053   2.454   2.559   9.698 -0.7769 -1.5127  1.3945
   15CHL1   C15 1054   2.334   2.706   9.620  0.0844  0.6558  0.5197
   15CHL1  H15A 1055   2.225   2.728   9.618  0.1950  1.4267 -2.6036
   15CHL1  H15B 1056   2.386   2.760   9.701  2.3785  1.2998 -1.2698
   15CHL1   C16 1057   2.400   2.699   9.483  0.0193  0.2195 -0.4312
   15CHL1  H16A 1058   2.342   2.745   9.401  1.1655 -0.0164 -1.3992
   15CHL1  H16B 1059   2.502   2.742   9.481  0.5912 -1.0796 -2.7380
   15CHL1   C17 1060   2.426   2.546   9.447 -0.1525 -0.8592  0.0385
   15CHL1   H17 1061   2.534   2.532   9.471 -0.2426 -0.9472  0.4017
   15CHL1   C13 1062   2.342   2.471   9.554  0.6047 -0.2156 -0.1878
   15CHL1   C18 1063   2.194   2.472   9.506 -0.0756 -0.1949  0.6384
   15CHL1  H18A 1064   2.164   2.565   9.454 -2.0985  0.3331  2.6226
   15CHL1  H18B 1065   2.166   2.391   9.435 -2.4503  0.4295  0.7802
   15CHL1  H18C 1066   2.130   2.472   9.597 -1.2160  1.9934 -0.1031
   15CHL1   C12 1067   2.385   2.331   9.602 -0.0601  0.4334 -0.2690
   15CHL1  H12A 1068   2.383   2.257   9.520 -2.2594  0.2281 -0.0896
   15CHL1  H12B 1069   2.493   2.355   9.616 -0.2722  1.3563 -0.0943
   15CHL1   C11 1070   2.315   2.281   9.730  0.5945 -0.0822 -0.5680
   15CHL1  H11A 1071   2.209   2.261   9.701  0.7368 -1.0788 -0.4371
   15CHL1  H11B 1072   2.353   2.184   9.768 -3.7140 -1.4176  0.9933
   15CHL1    C9 1073   2.309   2.386   9.845 -0.1630  0.0531  0.2614
   15CHL1    H9 1074   2.414   2.406   9.876 -0.0517 -1.9421  1.3039
   15CHL1   C10 1075   2.224   2.342   9.963  0.2988  0.5698 -0.9241
   15CHL1   C19 1076   2.083   2.288   9.936 -0.4419  0.0819 -0.0830
   15CHL1  H19A 1077   2.092   2.189   9.887  0.0873  0.4873 -0.8257
   15CHL1  H19B 1078   2.041   2.263  10.036 -0.0918 -1.8023 -0.3674
   15CHL1  H19C 1079   2.012   2.363   9.896 -1.3737  0.0984  1.5186
   15CHL1    C1 1080   2.305   2.228  10.024  0.6663  0.3921 -0.7168
   15CHL1   H1A 1081   2.291   2.144   9.952 -0.4219  0.4876 -0.6417
   15CHL1   H1B 1082   2.411   2.260  10.022  0.7864  0.0160 -0.5153
   15CHL1    C2 1083   2.273   2.180  10.167  0.2264  0.4700  1.1238
   15CHL1   H2A 1084   2.348   2.102  10.193  0.5781  0.0452 -0.9608
   15CHL1   H2B 1085   2.167   2.147  10.169 -0.0394  1.2783  0.9362
   15CHL1   C20 1086   2.417   2.512   9.300  0.0836  0.3436 -0.6152
   15CHL1   H20 1087   2.315   2.539   9.263 -0.1255  0.4564  0.0250
   15CHL1   C21 1088   2.444   2.359   9.289  0.8655 -0.2671 -0.2664
   15CHL1  H21A 1089   2.473   2.344   9.182 -0.6060 -0.1949 -0.6950
   15CHL1  H21B 1090   2.358   2.292   9.310  1.1820 -0.3248  0.9370
   15CHL1  H21C 1091   2.535   2.322   9.342  0.3270  0.1942  0.9996
   15CHL1   C22 1092   2.512   2.595   9.212  0.0163 -0.2130 -0.1910
   15CHL1  H22A 1093   2.511   2.705   9.224  0.1260 -0.2962  0.6544
   15CHL1  H22B 1094   2.618   2.562   9.225  0.4644  0.8482 -1.0033
   15CHL1   C23 1095   2.472   2.600   9.069  0.4181  0.1149  0.5394
   15CHL1  H23A 1096   2.455   2.497   9.031  0.0451  1.1350 -2.2936
   15CHL1  H23B 1097   2.376   2.657   9.064  0.0732 -0.4109  0.9310
   15CHL1   C24 1098   2.582   2.668   8.981 -0.6216  0.7647 -0.0703
   15CHL1  H24A 1099   2.568   2.778   8.991 -1.4987  0.8346 -1.7249
   15CHL1  H24B 1100   2.681   2.652   9.028  0.2603  3.0218 -1.0337
   15CHL1   C25 1101   2.601   2.627   8.830  0.6662 -0.3763  0.4274
   15CHL1   H25 1102   2.685   2.687   8.790  0.9984  0.1561  1.8783
   15CHL1   C26 1103   2.637   2.481   8.821  0.4209  1.0397 -0.1964
   15CHL1  H26A 1104   2.562   2.414   8.870  1.2985 -1.1001 -1.6345
   15CHL1  H26B 1105   2.651   2.459   8.713  0.6961  2.2921 -0.4264
   15CHL1  H26C 1106   2.736   2.461   8.869 -0.4840  0.5797  1.5906
   15CHL1   C27 1107   2.474   2.651   8.747 -0.0233  0.3249 -0.4513
   15CHL1  H27A 1108   2.487   2.608   8.645 -4.1208 -0.9218 -0.6118
   15CHL1  H27B 1109   2.389   2.599   8.796  0.3907  1.5112  1.6842
   15CHL1  H27C 1110   2.455   2.760   8.753  1.2442  0.5317  0.4557
   16CHL1    C3 1111   3.931   2.613  10.381  0.3566  0.5095 -0.0032
   16CHL1    H3 1112   4.020   2.678  10.394 -0.2606  1.1706  0.9867
   16CHL1    O3 1113   3.884   2.601  10.511  0.3445 -0.0182  0.2790
   16CHL1   H3' 1114   3.814   2.536  10.501  1.6723 -1.5904  0.6898
   16CHL1    C4 1115   3.821   2.654  10.282 -0.2263 -0.2056 -0.4823
   16CHL1   H4A 1116   3.731   2.593  10.303 -1.0145  1.0490 -0.0385
   16CHL1   H4B 1117   3.776   2.751  10.314 -1.6376 -1.0596  0.2269
   16CHL1    C5 1118   3.857   2.652  10.133  0.2657 -0.8807 -0.7675
   16CHL1    C6 1119   3.838   2.759  10.051  0.1783 -0.2763  0.4099
   16CHL1    H6 1120   3.775   2.842  10.087 -1.6530 -1.8585  1.0522
   16CHL1    C7 1121   3.875   2.758   9.906 -0.0542 -0.0139  0.1256
   16CHL1   H7A 1122   3.798   2.802   9.839  0.6721 -3.2159 -3.1472
   16CHL1   H7B 1123   3.958   2.830   9.890 -1.1987  1.7769  1.8314
   16CHL1    C8 1124   3.906   2.622   9.852 -0.0234 -0.2299  0.1360
   16CHL1    H8 1125   3.808   2.573   9.837 -1.3136  2.1670  0.2528
   16CHL1   C14 1126   3.966   2.631   9.720 -0.0290  0.1294 -0.0443
   16CHL1   H14 1127   4.053   2.699   9.723 -1.6817  2.4704 -1.5310
   16CHL1   C15 1128   3.884   2.714   9.614  0.3411  0.2002  0.0953
   16CHL1  H15A 1129   3.778   2.683   9.623  0.7140 -1.2709 -0.3125
   16CHL1  H15B 1130   3.906   2.822   9.631 -0.2462  0.3466 -0.0352
   16CHL1   C16 1131   3.945   2.665   9.480  0.5382  0.0687 -0.4534
   16CHL1  H16A 1132   3.870   2.604   9.426  1.9523 -1.4726 -0.7609
   16CHL1  H16B 1133   3.991   2.744   9.417  0.5062 -0.7205 -1.4868
   16CHL1   C17 1134   4.054   2.561   9.521 -0.2624 -0.3689 -0.2568
   16CHL1   H17 1135   4.142   2.627   9.535 -1.1875  1.3455 -2.0187
   16CHL1   C13 1136   4.011   2.499   9.653  0.4401 -0.0664 -0.1814
   16CHL1   C18 1137   3.889   2.403   9.631  0.0649 -0.0761 -0.1163
   16CHL1  H18A 1138   3.825   2.451   9.554  1.4433  0.3995 -1.0030
   16CHL1  H18B 1139   3.928   2.304   9.599  0.7011  0.1378 -0.0212
   16CHL1  H18C 1140   3.830   2.389   9.724 -2.2948 -0.8515 -1.6274
   16CHL1   C12 1141   4.119   2.438   9.740  0.4317  0.2348 -0.2760
   16CHL1  H12A 1142   4.158   2.341   9.703  0.6575  1.4738 -3.5937
   16CHL1  H12B 1143   4.206   2.507   9.746  1.2850 -0.9215  2.4758
   16CHL1   C11 1144   4.078   2.421   9.890  0.4378 -0.5829 -0.5873
   16CHL1  H11A 1145   3.996   2.346   9.878  0.1454 -0.0337 -2.4309
   16CHL1  H11B 1146   4.154   2.378   9.958 -0.1394 -0.3234  0.2361
   16CHL1    C9 1147   4.003   2.545   9.945 -0.4660 -1.4640  0.5454
   16CHL1    H9 1148   4.079   2.625   9.963 -1.0032 -0.2009 -2.2120
   16CHL1   C10 1149   3.930   2.526  10.080 -0.6982 -0.6227  0.3655
   16CHL1   C19 1150   3.828   2.406  10.075 -0.4958 -0.1404 -0.2313
   16CHL1  H19A 1151   3.760   2.420   9.988 -0.6374  0.4582 -0.0218
   16CHL1  H19B 1152   3.889   2.313  10.066  0.1915  0.0291  2.1395
   16CHL1  H19C 1153   3.770   2.396  10.169 -1.8536  0.7246 -0.9378
   16CHL1    C1 1154   4.036   2.496  10.188  0.2654 -0.5174  0.0742
   16CHL1   H1A 1155   4.094   2.407  10.155  0.8279 -0.0023 -0.3694
   16CHL1   H1B 1156   4.108   2.581  10.191  0.0535 -0.2291 -1.9864
   16CHL1    C2 1157   3.983   2.481  10.333 -0.7666 -0.1429  0.4660
   16CHL1   H2A 1158   4.075   2.453  10.388  0.6759 -1.1569 -2.2845
   16CHL1   H2B 1159   3.900   2.407  10.341 -0.2338 -0.8239 -0.1391
   16CHL1   C20 1160   4.090   2.453   9.409 -0.3357  0.2472  0.1928
   16CHL1   H20 1161   4.003   2.389   9.384  0.2674  0.0400 -1.5199
   16CHL1   C21 1162   4.199   2.354   9.449 -0.7232  0.0096  0.3065
   16CHL1  H21A 1163   4.148   2.274   9.506  1.5807 -1.3829  0.5669
   16CHL1  H21B 1164   4.294   2.390   9.496 -1.5210  0.4916  1.6264
   16CHL1  H21C 1165   4.233   2.303   9.357  1.4592  0.6299  0.6891
   16CHL1   C22 1166   4.131   2.519   9.272  0.3703 -0.3052  0.2599
   16CHL1  H22A 1167   4.133   2.439   9.195 -0.7470  0.1381 -0.2442
   16CHL1  H22B 1168   4.039   2.575   9.244  0.7536 -0.5981 -1.7157
   16CHL1   C23 1169   4.265   2.597   9.271  0.2707  0.3205  0.4600
   16CHL1  H23A 1170   4.245   2.700   9.308 -0.7706  1.4008 -2.7943
   16CHL1  H23B 1171   4.350   2.554   9.329  0.6209 -2.0889 -1.6275
   16CHL1   C24 1172   4.315   2.619   9.129  0.5107  0.1819 -0.1826
   16CHL1  H24A 1173   4.238   2.653   9.057  2.7785  1.1546 -2.3140
   16CHL1  H24B 1174   4.392   2.699   9.118  0.8167 -0.0027  0.5449
   16CHL1   C25 1175   4.382   2.506   9.052 -0.1898 -0.4704  0.5709
   16CHL1   H25 1176   4.299   2.440   9.019 -2.2000 -0.4114  4.8664
   16CHL1   C26 1177   4.445   2.550   8.918  0.0231  0.1491  0.6509
   16CHL1  H26A 1178   4.365   2.576   8.846  2.0668  2.8606 -0.8427
   16CHL1  H26B 1179   4.515   2.635   8.926  1.4181 -0.8663 -0.1568
   16CHL1  H26C 1180   4.491   2.456   8.878  0.6875  0.4284  0.7570
   16CHL1   C27 1181   4.490   2.432   9.135 -0.4146  0.0193  0.3743
   16CHL1  H27A 1182   4.431   2.393   9.221 -1.6454  2.9225  0.9860
   16CHL1  H27B 1183   4.538   2.346   9.084 -2.3391 -0.9461  0.1027
   16CHL1  H27C 1184   4.551   2.510   9.186 -2.1490  1.6816  0.0558
   17CHL1    C3 1185   1.210   5.543  10.325  0.0067  0.6459 -0.7164
   17CHL1    H3 1186   1.129   5.607  10.284  1.2126  2.1184 -0.9006
   17CHL1    O3 1187   1.221   5.568  10.466  0.2067 -0.0271  0.4324
   17CHL1   H3' 1188   1.283   5.501  10.496 -1.3660 -0.9110  1.8771
   17CHL1    C4 1189   1.198   5.396  10.297  0.0965  0.0430  0.4783
   17CHL1   H4A 1190   1.291   5.352  10.338  0.0673  0.3240  0.8517
   17CHL1   H4B 1191   1.116   5.344  10.351  0.3451  0.5947  1.4094
   17CHL1    C5 1192   1.176   5.380  10.146  0.0133  0.2554 -0.4396
   17CHL1    C6 1193   1.061   5.334  10.100 -0.0663 -0.0691  0.1212
   17CHL1    H6 1194   0.978   5.302  10.164 -2.1756  3.7877 -0.3848
   17CHL1    C7 1195   1.034   5.316   9.952  0.0364  0.1637  0.1776
   17CHL1   H7A 1196   1.012   5.211   9.926  1.1264  0.1908 -0.9637
   17CHL1   H7B 1197   0.948   5.384   9.931 -1.3503 -0.3890  3.4385
   17CHL1    C8 1198   1.145   5.340   9.860 -0.0411 -0.2469  0.2085
   17CHL1    H8 1199   1.201   5.245   9.845  0.3578 -0.4930  2.8193
   17CHL1   C14 1200   1.086   5.368   9.722  0.2375 -0.2034 -0.1637
   17CHL1   H14 1201   1.022   5.457   9.737 -1.7341 -1.8170  1.6969
   17CHL1   C15 1202   0.989   5.269   9.662  0.0761  0.1710  0.0425
   17CHL1  H15A 1203   1.019   5.168   9.698  0.6305  0.2655 -0.1508
   17CHL1  H15B 1204   0.887   5.292   9.698 -0.8668 -0.2819 -2.1981
   17CHL1   C16 1205   1.001   5.290   9.506 -0.2403 -0.0310  0.4544
   17CHL1  H16A 1206   1.036   5.194   9.463 -1.4307  0.1760 -1.0418
   17CHL1  H16B 1207   0.909   5.324   9.453  1.0704  0.4130 -1.6368
   17CHL1   C17 1208   1.108   5.407   9.494  0.3542  0.3881  0.3235
   17CHL1   H17 1209   1.051   5.500   9.512  0.3323  0.2047  1.2694
   17CHL1   C13 1210   1.195   5.388   9.617  0.2655  1.0006  0.3336
   17CHL1   C18 1211   1.284   5.262   9.597  0.0493  0.2678 -0.9106
   17CHL1  H18A 1212   1.224   5.172   9.573  1.0595 -0.5736 -0.3792
   17CHL1  H18B 1213   1.356   5.274   9.514  1.8622  0.3336  0.5899
   17CHL1  H18C 1214   1.334   5.239   9.694 -2.7212  0.9154  0.7740
   17CHL1   C12 1215   1.280   5.508   9.655 -0.2459  0.5460 -0.0699
   17CHL1  H12A 1216   1.355   5.520   9.574 -1.4605 -1.7168 -1.6512
   17CHL1  H12B 1217   1.224   5.604   9.657 -0.9273  0.2131 -1.5624
   17CHL1   C11 1218   1.337   5.491   9.797  0.1583  0.4177 -0.3281
   17CHL1  H11A 1219   1.404   5.402   9.798  1.7090  1.5311  1.1104
   17CHL1  H11B 1220   1.402   5.577   9.821  1.3456 -0.9424  1.7020
   17CHL1    C9 1221   1.231   5.460   9.906  0.4851 -0.0804 -0.4262
   17CHL1    H9 1222   1.165   5.550   9.907 -0.8583 -1.0320  0.1349
   17CHL1   C10 1223   1.280   5.440  10.051  0.7801  0.3097 -0.1826
   17CHL1   C19 1224   1.403   5.343  10.051  0.6738 -0.0881  0.5856
   17CHL1  H19A 1225   1.359   5.249  10.012 -0.3229  1.2777 -1.8108
   17CHL1  H19B 1226   1.484   5.377   9.983 -0.1202 -0.1489 -0.4105
   17CHL1  H19C 1227   1.447   5.339  10.153 -1.7214  0.2881  1.6891
   17CHL1    C1 1228   1.332   5.578  10.108 -0.1613  0.3088 -0.1708
   17CHL1   H1A 1229   1.432   5.595  10.064  0.2970 -3.9393 -1.2238
   17CHL1   H1B 1230   1.270   5.663  10.073 -0.7870  0.1081  0.4254
   17CHL1    C2 1231   1.341   5.596  10.265  0.3386  0.0205  0.2849
   17CHL1   H2A 1232   1.368   5.702  10.283 -0.6532  0.3893 -0.3696
   17CHL1   H2B 1233   1.425   5.534  10.303  0.5984 -1.1571 -2.0181
   17CHL1   C20 1234   1.169   5.410   9.358 -0.5801 -0.0948 -0.4640
   17CHL1   H20 1235   1.269   5.361   9.367 -1.0942 -1.3071 -1.1990
   17CHL1   C21 1236   1.193   5.563   9.322 -0.5922  0.0199 -0.0735
   17CHL1  H21A 1237   1.102   5.594   9.266 -0.4941 -1.2040 -0.9725
   17CHL1  H21B 1238   1.280   5.581   9.254  0.4205  0.9473  1.4159
   17CHL1  H21C 1239   1.200   5.621   9.416  0.1649  1.5307 -1.0205
   17CHL1   C22 1240   1.099   5.340   9.234  0.3867  0.6399  0.1112
   17CHL1  H22A 1241   1.122   5.232   9.246  1.5028  0.7905 -0.5670
   17CHL1  H22B 1242   0.989   5.356   9.234 -0.0136 -1.7439  0.1411
   17CHL1   C23 1243   1.169   5.367   9.101 -0.6806 -0.4748 -0.8570
   17CHL1  H23A 1244   1.139   5.469   9.068 -2.6800 -0.0666  1.8553
   17CHL1  H23B 1245   1.278   5.367   9.122 -0.9047 -0.3973  0.3798
   17CHL1   C24 1246   1.127   5.263   9.002  0.4839  0.5266 -0.5047
   17CHL1  H24A 1247   1.139   5.163   9.050  0.3972  0.0066 -1.5369
   17CHL1  H24B 1248   1.024   5.283   8.965  0.5548 -1.1512 -1.7208
   17CHL1   C25 1249   1.218   5.254   8.879  0.5637  0.7642  0.2308
   17CHL1   H25 1250   1.317   5.209   8.901  0.6764  1.1117  0.4535
   17CHL1   C26 1251   1.169   5.165   8.762 -0.3810  0.6610  0.3701
   17CHL1  H26A 1252   1.067   5.197   8.729 -0.5169 -0.2256 -0.0999
   17CHL1  H26B 1253   1.239   5.171   8.675 -1.4943  0.3457 -0.5764
   17CHL1  H26C 1254   1.153   5.064   8.804  1.6684 -0.8613 -2.2028
   17CHL1   C27 1255   1.264   5.392   8.824  0.8507  1.1350 -0.5175
   17CHL1  H27A 1256   1.354   5.386   8.760  0.5472  1.0194 -0.9378
   17CHL1  H27B 1257   1.184   5.437   8.761 -0.2957 -0.5759 -0.3333
   17CHL1  H27C 1258   1.294   5.459   8.907 -1.3933  1.5328  0.0327
   18CHL1    C3 1259   6.123   4.629  10.274 -0.0492 -0.0876 -0.1203
   18CHL1    H3 1260   6.051   4.544  10.270  0.4701 -0.4796 -3.2765
   18CHL1    O3 1261   6.140   4.669  10.407  0.1262 -0.1176  0.1412
   18CHL1   H3' 1262   6.170   4.760  10.415  0.9923 -0.4349  0.7985
   18CHL1    C4 1263   6.247   4.564  10.211 -0.8095 -0.2218 -0.2254
   18CHL1   H4A 1264   6.334   4.634  10.206  0.5234 -1.9379 -2.5673
   18CHL1   H4B 1265   6.298   4.483  10.267  1.2678  1.6774  0.8005
   18CHL1    C5 1266   6.208   4.519  10.069 -0.3793  0.5316  0.6664
   18CHL1    C6 1267   6.216   4.390  10.030  0.0038 -0.2842 -0.0601
   18CHL1    H6 1268   6.256   4.312  10.097  1.4374  0.1086 -0.4422
   18CHL1    C7 1269   6.182   4.346   9.894  0.0074 -0.2119  0.9952
   18CHL1   H7A 1270   6.241   4.260   9.856 -1.1542  0.2929 -2.2564
   18CHL1   H7B 1271   6.082   4.300   9.892  0.2276 -0.9088  3.2291
   18CHL1    C8 1272   6.180   4.464   9.787  0.7207 -0.1483 -0.4428
   18CHL1    H8 1273   6.285   4.497   9.768  1.1795 -1.4153 -0.1907
   18CHL1   C14 1274   6.116   4.411   9.657 -0.1476 -0.6599 -0.1104
   18CHL1   H14 1275   6.012   4.389   9.688 -0.5137  0.0199 -0.8220
   18CHL1   C15 1276   6.162   4.282   9.582 -0.3800 -0.1804  0.0096
   18CHL1  H15A 1277   6.273   4.274   9.586 -0.2607  1.4788  1.1316
   18CHL1  H15B 1278   6.099   4.200   9.622 -0.7608  0.1271  0.0486
   18CHL1   C16 1279   6.104   4.307   9.439 -0.5776  0.1361 -0.4376
   18CHL1  H16A 1280   6.192   4.310   9.372 -1.2212  0.0600 -1.2972
   18CHL1  H16B 1281   6.034   4.228   9.404 -0.0699 -0.6159  0.2130
   18CHL1   C17 1282   6.038   4.452   9.436  0.6040 -0.0603 -0.4031
   18CHL1   H17 1283   5.937   4.432   9.478  0.7276  1.6509  0.8158
   18CHL1   C13 1284   6.107   4.520   9.551 -0.5481  0.5160  0.2058
   18CHL1   C18 1285   6.249   4.568   9.500  0.0009  0.7492 -0.4614
   18CHL1  H18A 1286   6.318   4.575   9.586  0.7694  0.7968 -1.0725
   18CHL1  H18B 1287   6.291   4.487   9.437  0.0210 -0.9234  1.5977
   18CHL1  H18C 1288   6.251   4.668   9.451  3.7767  0.6794 -0.7223
   18CHL1   C12 1289   6.030   4.639   9.614 -0.1775  0.4633  0.2598
   18CHL1  H12A 1290   6.039   4.727   9.546 -1.5320 -1.7582 -2.9988
   18CHL1  H12B 1291   5.926   4.605   9.633 -0.9927  1.3106 -2.3020
   18CHL1   C11 1292   6.099   4.693   9.738 -0.1826 -0.2983  1.0084
   18CHL1  H11A 1293   6.201   4.726   9.709  0.0819 -2.2518 -0.4461
   18CHL1  H11B 1294   6.034   4.778   9.771 -0.6328  0.7228 -2.1899
   18CHL1    C9 1295   6.097   4.580   9.846 -0.0313 -0.2993  0.4064
   18CHL1    H9 1296   5.989   4.558   9.862 -0.9431  2.6801 -0.9816
   18CHL1   C10 1297   6.159   4.627   9.984  0.7291 -0.0252 -0.6530
   18CHL1   C19 1298   6.276   4.722   9.958 -0.1290 -0.2131  0.0598
   18CHL1  H19A 1299   6.232   4.813   9.911 -0.9375 -0.2712  0.6863
   18CHL1  H19B 1300   6.324   4.758  10.052  0.4902 -0.8901  0.0129
   18CHL1  H19C 1301   6.357   4.669   9.903  0.3570 -1.6941  2.0832
   18CHL1    C1 1302   6.042   4.702  10.049 -0.2602  0.1403 -0.0155
   18CHL1   H1A 1303   6.012   4.786   9.983  1.1949  0.6543 -0.0454
   18CHL1   H1B 1304   5.954   4.636  10.067 -0.8563  1.3235  1.7091
   18CHL1    C2 1305   6.081   4.753  10.192  0.6885 -0.2783  0.1874
   18CHL1   H2A 1306   5.991   4.796  10.240 -0.2492  1.6813 -2.9975
   18CHL1   H2B 1307   6.160   4.831  10.192  1.6769 -1.2230  2.1197
   18CHL1   C20 1308   6.028   4.524   9.305  0.3170  0.5970  0.8820
   18CHL1   H20 1309   6.107   4.601   9.292  0.4962  0.0580 -2.0828
   18CHL1   C21 1310   5.895   4.599   9.306 -0.3551  0.1393 -0.2394
   18CHL1  H21A 1311   5.880   4.662   9.396  1.0397 -3.4209  2.7637
   18CHL1  H21B 1312   5.817   4.520   9.312  1.6147 -1.9975 -1.1753
   18CHL1  H21C 1313   5.880   4.664   9.218 -3.8001 -0.4324 -0.2110
   18CHL1   C22 1314   6.040   4.429   9.179 -0.0647 -0.0057  0.4076
   18CHL1  H22A 1315   6.136   4.374   9.181  1.0454  1.7365 -1.3095
   18CHL1  H22B 1316   5.957   4.358   9.196 -0.8495  0.9732  0.7894
   18CHL1   C23 1317   6.042   4.505   9.048  0.5490  0.0770  0.4715
   18CHL1  H23A 1318   5.934   4.523   9.032  0.7264  2.2187  1.3737
   18CHL1  H23B 1319   6.102   4.598   9.040 -1.7732  1.5043 -2.3350
   18CHL1   C24 1320   6.102   4.411   8.942  0.1157  0.1863  0.2241
   18CHL1  H24A 1321   6.199   4.370   8.978  2.4163  4.5504 -0.2596
   18CHL1  H24B 1322   6.044   4.318   8.923  3.5094 -1.9894 -0.5235
   18CHL1   C25 1323   6.120   4.474   8.809  0.3024  0.3061 -0.4419
   18CHL1   H25 1324   6.204   4.544   8.825  0.8846 -0.4963  0.0541
   18CHL1   C26 1325   6.156   4.381   8.694  0.4334  0.2060 -0.4281
   18CHL1  H26A 1326   6.069   4.313   8.685  0.4180  0.3227 -1.1929
   18CHL1  H26B 1327   6.165   4.425   8.592 -0.5675  0.9443 -0.2081
   18CHL1  H26C 1328   6.246   4.319   8.715 -0.2546 -0.7087 -0.0863
   18CHL1   C27 1329   5.994   4.552   8.771  0.4764 -0.1595  0.3665
   18CHL1  H27A 1330   6.003   4.568   8.661  0.4106  1.8879  0.6319
   18CHL1  H27B 1331   5.903   4.493   8.795 -0.4840  0.9254 -0.4857
   18CHL1  H27C 1332   5.997   4.646   8.829  2.5514  0.6548 -0.9522
   19CHL1    C3 1333   3.295   1.413  10.073 -0.1655 -0.1231  0.8171
   19CHL1    H3 1334   3.347   1.505  10.038  0.4608  0.4413  3.0271
   19CHL1    O3 1335   3.345   1.386  10.203  0.6579 -0.1286 -0.4214
   19CHL1   H3' 1336   3.401   1.308  10.194  1.3144  0.0998  1.2793
   19CHL1    C4 1337   3.143   1.449  10.074 -0.4716  0.3018  0.6215
   19CHL1   H4A 1338   3.081   1.367  10.116 -1.7744  0.9164 -0.0426
   19CHL1   H4B 1339   3.142   1.541  10.137  0.8251  0.0568  1.0293
   19CHL1    C5 1340   3.089   1.481   9.934  0.1911  0.2681 -0.3693
   19CHL1    C6 1341   3.034   1.597   9.908  0.5061  0.0226 -0.2419
   19CHL1    H6 1342   3.016   1.674   9.985 -2.4654 -0.7208 -0.0935
   19CHL1    C7 1343   2.971   1.620   9.768  0.2494  0.1208  0.1338
   19CHL1   H7A 1344   2.867   1.660   9.768  0.4987  0.7902  0.7612
   19CHL1   H7B 1345   3.032   1.703   9.727 -0.3131 -0.4183 -1.8832
   19CHL1    C8 1346   2.971   1.508   9.665  0.7824 -0.6658  0.3666
   19CHL1    H8 1347   2.878   1.448   9.681  1.3345 -1.8186 -0.5975
   19CHL1   C14 1348   2.957   1.559   9.529 -0.3904  0.1482 -0.2659
   19CHL1   H14 1349   3.049   1.618   9.509  1.4354 -2.8331 -1.3589
   19CHL1   C15 1350   2.833   1.652   9.498  0.3182 -0.4963 -0.4560
   19CHL1  H15A 1351   2.758   1.592   9.553  1.2538 -2.8737 -1.6076
   19CHL1  H15B 1352   2.847   1.756   9.531  2.5332 -0.6886 -0.6376
   19CHL1   C16 1353   2.814   1.636   9.343  0.5327  0.6274  0.2975
   19CHL1  H16A 1354   2.714   1.592   9.326  2.4059 -4.1542  0.0698
   19CHL1  H16B 1355   2.824   1.729   9.282  1.2782  1.1752  1.2254
   19CHL1   C17 1356   2.928   1.537   9.294  0.0258  0.1443 -0.2676
   19CHL1   H17 1357   3.014   1.604   9.278  1.0407 -1.3445 -1.2945
   19CHL1   C13 1358   2.960   1.450   9.420  0.1215 -0.5617 -1.1503
   19CHL1   C18 1359   2.843   1.359   9.447 -0.7213  0.3110 -0.1762
   19CHL1  H18A 1360   2.847   1.270   9.380  0.2095  0.8021 -0.7897
   19CHL1  H18B 1361   2.860   1.314   9.547  1.3438  1.0758 -0.1405
   19CHL1  H18C 1362   2.743   1.406   9.441  0.1644  2.4871  1.0294
   19CHL1   C12 1363   3.098   1.380   9.428 -0.3297  0.7763  0.2226
   19CHL1  H12A 1364   3.106   1.304   9.348  0.6090 -0.5288  1.4997
   19CHL1  H12B 1365   3.170   1.464   9.415  0.1367  0.6005  1.4783
   19CHL1   C11 1366   3.122   1.318   9.571  0.1331  0.1796  0.2830
   19CHL1  H11A 1367   3.056   1.230   9.575 -1.6401  1.4427 -0.1127
   19CHL1  H11B 1368   3.228   1.284   9.581  0.9133  2.5121  0.6708
   19CHL1    C9 1369   3.098   1.423   9.681  0.2321 -0.9588 -0.2550
   19CHL1    H9 1370   3.169   1.506   9.660 -0.8979 -0.5531 -2.8584
   19CHL1   C10 1371   3.125   1.372   9.830  0.6991 -0.0131  0.9966
   19CHL1   C19 1372   3.032   1.247   9.854 -0.1442 -0.4555  0.1015
   19CHL1  H19A 1373   2.927   1.278   9.835  0.7314  1.8207 -1.4189
   19CHL1  H19B 1374   3.081   1.166   9.796  1.4125  1.0800 -0.8078
   19CHL1  H19C 1375   3.043   1.210   9.958 -0.9726 -0.8466  0.0570
   19CHL1    C1 1376   3.278   1.334   9.837 -0.2286 -0.2373 -0.5625
   19CHL1   H1A 1377   3.289   1.242   9.775 -1.8602  1.4133 -3.5128
   19CHL1   H1B 1378   3.346   1.413   9.800  0.7706 -1.7703 -2.1629
   19CHL1    C2 1379   3.322   1.298   9.984  0.0739  0.4263  0.4112
   19CHL1   H2A 1380   3.428   1.265   9.988 -0.2001 -0.4913  0.4782
   19CHL1   H2B 1381   3.266   1.208  10.018 -0.7418 -0.2879 -2.5069
   19CHL1   C20 1382   2.895   1.460   9.161  0.2323  0.3560  0.5596
   19CHL1   H20 1383   2.815   1.385   9.179 -1.6834  1.8091 -1.3262
   19CHL1   C21 1384   3.019   1.402   9.088 -0.4658 -0.0348 -0.6882
   19CHL1  H21A 1385   3.097   1.481   9.086  0.9197 -1.2714  1.5230
   19CHL1  H21B 1386   2.998   1.363   8.986 -0.1265  0.0915 -0.8094
   19CHL1  H21C 1387   3.066   1.320   9.147 -0.3884 -0.9062 -1.9216
   19CHL1   C22 1388   2.823   1.562   9.064 -0.0014 -0.1953 -0.3455
   19CHL1  H22A 1389   2.722   1.587   9.104 -0.6415 -0.1491 -1.9162
   19CHL1  H22B 1390   2.881   1.656   9.049 -0.8553  0.7646  1.8937
   19CHL1   C23 1391   2.772   1.498   8.940 -0.1616 -0.6165  0.5597
   19CHL1  H23A 1392   2.857   1.474   8.872  0.6883 -0.4129  1.5223
   19CHL1  H23B 1393   2.714   1.408   8.972 -1.8679  0.5610  0.8887
   19CHL1   C24 1394   2.693   1.591   8.850  0.2731 -0.3693 -0.1713
   19CHL1  H24A 1395   2.608   1.629   8.912  1.9222  1.7573  0.9576
   19CHL1  H24B 1396   2.748   1.684   8.825 -0.7642  0.4396  0.4551
   19CHL1   C25 1397   2.665   1.525   8.714 -0.5103  0.1277  0.1731
   19CHL1   H25 1398   2.761   1.530   8.659 -1.7525  0.8310 -2.0507
   19CHL1   C26 1399   2.621   1.381   8.721 -0.7867  0.3405  0.1945
   19CHL1  H26A 1400   2.687   1.321   8.787 -2.1813 -0.2937  1.0517
   19CHL1  H26B 1401   2.516   1.372   8.755  0.3001  0.2800  3.9832
   19CHL1  H26C 1402   2.628   1.344   8.616  2.0102  0.3987  0.2773
   19CHL1   C27 1403   2.553   1.606   8.639  0.5269 -0.0430 -0.0100
   19CHL1  H27A 1404   2.464   1.620   8.704  0.7584 -1.5549  0.6771
   19CHL1  H27B 1405   2.592   1.707   8.613 -1.8072  0.5024 -1.7039
   19CHL1  H27C 1406   2.520   1.557   8.545 -0.5591  2.3788 -0.9798
   20CHL1    C3 1407   4.911   1.656  10.430 -0.4101 -0.2650 -0.6894
   20CHL1    H3 1408   4.830   1.729  10.405 -1.5436 -1.3175 -0.1678
   20CHL1    O3 1409   4.946   1.685  10.565 -0.0739 -0.8833 -0.4676
   20CHL1   H3' 1410   5.041   1.682  10.578 -0.2597 -0.1015  1.3014
   20CHL1    C4 1411   4.835   1.525  10.418 -0.4469 -0.2587 -0.0389
   20CHL1   H4A 1412   4.888   1.450  10.481  0.1838  1.6302  1.7897
   20CHL1   H4B 1413   4.741   1.542  10.475 -2.5387  1.0455 -3.5835
   20CHL1    C5 1414   4.807   1.477  10.281 -0.0523  0.0446 -0.0567
   20CHL1    C6 1415   4.688   1.440  10.238 -0.4092  0.4334 -0.2503
   20CHL1    H6 1416   4.606   1.420  10.309 -0.0348 -2.6802 -0.5335
   20CHL1    C7 1417   4.654   1.390  10.097  0.3592  0.1752  0.2521
   20CHL1   H7A 1418   4.587   1.302  10.102 -0.7262  1.0570  2.8270
   20CHL1   H7B 1419   4.594   1.469  10.047  1.8770 -0.3165 -2.5395
   20CHL1    C8 1420   4.787   1.354  10.014 -0.0846 -0.2962  0.2173
   20CHL1    H8 1421   4.836   1.259  10.044  0.7780 -0.4781 -1.6522
   20CHL1   C14 1422   4.761   1.344   9.864 -0.1621  0.7732  0.2281
   20CHL1   H14 1423   4.722   1.445   9.840 -3.0823 -0.6992 -1.8290
   20CHL1   C15 1424   4.647   1.260   9.816  0.1298  0.3981  0.2446
   20CHL1  H15A 1425   4.632   1.163   9.868 -2.2264  0.2626 -0.5700
   20CHL1  H15B 1426   4.543   1.296   9.832 -1.0452 -1.6607 -2.0672
   20CHL1   C16 1427   4.676   1.241   9.665  0.9977 -0.4080 -0.0012
   20CHL1  H16A 1428   4.679   1.131   9.657 -1.2351 -0.5035 -0.2251
   20CHL1  H16B 1429   4.598   1.274   9.593  0.0778 -0.3290  1.0099
   20CHL1   C17 1430   4.813   1.311   9.639  0.5568 -0.3128 -0.3409
   20CHL1   H17 1431   4.791   1.416   9.611 -1.4385 -0.6922 -0.3111
   20CHL1   C13 1432   4.877   1.316   9.779 -0.8348 -0.3414  0.0470
   20CHL1   C18 1433   4.927   1.174   9.810 -0.0955 -0.2424 -0.1636
   20CHL1  H18A 1434   5.011   1.153   9.740 -2.9652 -2.3603 -3.2484
   20CHL1  H18B 1435   4.964   1.167   9.915 -0.2146  0.2327 -0.0911
   20CHL1  H18C 1436   4.861   1.087   9.790  1.3522 -1.9854  2.0105
   20CHL1   C12 1437   4.977   1.427   9.797 -0.1415 -0.0322  0.1576
   20CHL1  H12A 1438   5.069   1.401   9.740  1.0195  3.6625  0.0354
   20CHL1  H12B 1439   4.933   1.518   9.750  1.5014  0.8288  0.2249
   20CHL1   C11 1440   5.018   1.443   9.945 -0.2237 -0.0435  0.7456
   20CHL1  H11A 1441   5.074   1.351   9.971 -0.0477 -0.6541 -1.5360
   20CHL1  H11B 1442   5.093   1.525   9.943 -0.8486  0.5663 -1.4670
   20CHL1    C9 1443   4.894   1.465  10.032 -0.0098 -0.0723  0.6890
   20CHL1    H9 1444   4.842   1.559  10.004 -0.4503 -0.0433  1.5467
   20CHL1   C10 1445   4.930   1.481  10.185  0.3548  0.5815 -1.0579
   20CHL1   C19 1446   5.027   1.359  10.221 -0.2538  0.4591 -0.3521
   20CHL1  H19A 1447   5.131   1.366  10.183  0.7061 -1.6849  1.6659
   20CHL1  H19B 1448   5.038   1.358  10.331 -0.2397 -1.3468 -0.3336
   20CHL1  H19C 1449   4.993   1.257  10.191  0.9956 -0.4417  1.1724
   20CHL1    C1 1450   5.008   1.618  10.197  0.1106  0.0320  0.1061
   20CHL1   H1A 1451   5.095   1.611  10.129 -0.1008  0.6659 -0.2353
   20CHL1   H1B 1452   4.950   1.704  10.159  1.7396  0.8474 -0.6173
   20CHL1    C2 1453   5.037   1.665  10.341  1.0139 -0.1400  0.7306
   20CHL1   H2A 1454   5.084   1.765  10.345  0.4669  0.2723 -1.7048
   20CHL1   H2B 1455   5.110   1.592  10.383  1.0437 -0.8674 -0.5334
   20CHL1   C20 1456   4.890   1.243   9.522 -0.1361 -0.3480  0.1479
   20CHL1   H20 1457   4.942   1.149   9.551 -0.3939 -0.2193  1.0626
   20CHL1   C21 1458   4.987   1.351   9.457 -0.5519 -0.7071 -0.9731
   20CHL1  H21A 1459   5.059   1.311   9.382 -2.1563 -1.7404 -2.0217
   20CHL1  H21B 1460   5.046   1.401   9.537 -0.6903  0.8765 -1.8402
   20CHL1  H21C 1461   4.921   1.424   9.407 -0.5010 -1.8468 -2.7858
   20CHL1   C22 1462   4.793   1.210   9.408 -0.6273  0.0110  0.5481
   20CHL1  H22A 1463   4.721   1.134   9.448 -0.7331 -0.1154  0.1161
   20CHL1  H22B 1464   4.742   1.304   9.378  1.5269  0.6179 -1.4068
   20CHL1   C23 1465   4.850   1.132   9.286 -0.5135 -0.6955  0.5709
   20CHL1  H23A 1466   4.920   1.194   9.227  0.2712 -2.7379 -0.7464
   20CHL1  H23B 1467   4.917   1.048   9.317  0.8727 -0.0985 -0.6888
   20CHL1   C24 1468   4.744   1.097   9.180  0.1192  0.2099  0.2306
   20CHL1  H24A 1469   4.717   0.991   9.194 -1.1015 -0.4532 -4.9189
   20CHL1  H24B 1470   4.658   1.162   9.207 -0.8422  0.0724 -2.1906
   20CHL1   C25 1471   4.773   1.121   9.032 -0.1781 -0.0034  0.1715
   20CHL1   H25 1472   4.807   1.226   9.023  1.3028 -0.5688 -1.4840
   20CHL1   C26 1473   4.888   1.024   8.978  1.0670  0.4694  0.7550
   20CHL1  H26A 1474   4.896   1.049   8.870 -1.1361 -0.4363  0.3419
   20CHL1  H26B 1475   4.990   1.028   9.022  1.0296 -1.0344  1.0291
   20CHL1  H26C 1476   4.844   0.923   8.987  0.7473  0.6782  1.7123
   20CHL1   C27 1477   4.654   1.108   8.932 -0.3652 -0.0476 -0.3878
   20CHL1  H27A 1478   4.688   1.135   8.830  0.8898  0.8587  0.2333
   20CHL1  H27B 1479   4.622   1.002   8.926 -0.1246 -0.0479 -3.4236
   20CHL1  H27C 1480   4.570   1.177   8.956 -0.2301  0.0615 -0.2233
   21CHL1    C3 1481   6.060   5.529  10.198  0.1382  0.3377 -0.1877
   21CHL1    H3 1482   6.094   5.426  10.176 -0.3181  0.2908 -0.6805
   21CHL1    O3 1483   6.058   5.533  10.340  0.2103 -0.1327  0.3650
   21CHL1   H3' 1484   6.131   5.475  10.365  0.9259  1.1022  1.2620
   21CHL1    C4 1485   6.158   5.633  10.152 -0.1273 -0.4105  0.3556
   21CHL1   H4A 1486   6.125   5.735  10.182  0.1781 -0.6368  1.5134
   21CHL1   H4B 1487   6.252   5.620  10.208  0.2413  0.0517 -0.1393
   21CHL1    C5 1488   6.183   5.626  10.003 -0.3176  1.0590  0.0694
   21CHL1    C6 1489   6.301   5.592   9.946 -0.0441  0.3028 -0.1120
   21CHL1    H6 1490   6.392   5.571  10.005  1.0560  0.2480 -1.7794
   21CHL1    C7 1491   6.312   5.573   9.798  0.6598  0.4047  0.0596
   21CHL1   H7A 1492   6.405   5.619   9.759  2.5882 -0.4725  3.2496
   21CHL1   H7B 1493   6.327   5.464   9.780 -2.4918 -0.2990  0.9938
   21CHL1    C8 1494   6.192   5.626   9.710 -0.7592 -0.2943  0.5417
   21CHL1    H8 1495   6.200   5.737   9.706 -1.2248 -0.2974 -0.6274
   21CHL1   C14 1496   6.202   5.575   9.570 -0.4601 -0.3386  0.7768
   21CHL1   H14 1497   6.179   5.467   9.576 -0.3231 -0.5717 -1.6693
   21CHL1   C15 1498   6.341   5.572   9.489 -0.3810 -0.5112 -0.1257
   21CHL1  H15A 1499   6.378   5.677   9.498  1.0368 -1.0622  0.7526
   21CHL1  H15B 1500   6.419   5.504   9.530 -1.9250 -1.7406  0.8829
   21CHL1   C16 1501   6.296   5.548   9.344 -0.3049  0.2430  0.0538
   21CHL1  H16A 1502   6.329   5.624   9.270 -2.4942 -0.3478 -1.6530
   21CHL1  H16B 1503   6.327   5.453   9.294 -2.7807 -0.6773  0.1053
   21CHL1   C17 1504   6.136   5.544   9.350 -0.0967  0.0896 -0.2186
   21CHL1   H17 1505   6.105   5.439   9.373  0.4795 -0.1734 -0.6111
   21CHL1   C13 1506   6.097   5.629   9.475 -0.1038 -0.0368 -0.6598
   21CHL1   C18 1507   6.116   5.782   9.452 -0.5130  0.1888  0.1045
   21CHL1  H18A 1508   6.211   5.819   9.407 -1.4239  1.8712 -0.5682
   21CHL1  H18B 1509   6.031   5.816   9.389 -1.4310 -2.3920 -0.1647
   21CHL1  H18C 1510   6.111   5.848   9.541  0.9508  3.2768 -1.8797
   21CHL1   C12 1511   5.958   5.598   9.537 -0.1592  0.3049 -0.0285
   21CHL1  H12A 1512   5.880   5.654   9.480 -0.3151  0.2078  0.0882
   21CHL1  H12B 1513   5.943   5.489   9.522  1.2302  0.4293 -2.8830
   21CHL1   C11 1514   5.947   5.627   9.686  0.0813 -0.3636  0.4228
   21CHL1  H11A 1515   5.960   5.737   9.679  2.1037 -0.5370  0.8858
   21CHL1  H11B 1516   5.843   5.596   9.711 -0.6500  0.5800 -1.2365
   21CHL1    C9 1517   6.059   5.580   9.776 -0.4085  0.2156  0.3451
   21CHL1    H9 1518   6.046   5.470   9.774  2.7004 -0.2548 -1.8868
   21CHL1   C10 1519   6.047   5.628   9.925  0.0042  0.1842 -0.2486
   21CHL1   C19 1520   6.010   5.772   9.927  0.4643 -0.9666 -0.0305
   21CHL1  H19A 1521   6.062   5.838   9.854 -0.7022 -0.5071 -0.4702
   21CHL1  H19B 1522   5.904   5.788   9.902  0.3664 -1.9154 -0.2794
   21CHL1  H19C 1523   6.024   5.825  10.024 -1.4917  0.9983 -0.7538
   21CHL1    C1 1524   5.931   5.543   9.984 -0.1203  0.2569  0.0431
   21CHL1   H1A 1525   5.845   5.572   9.919  2.2993  1.5485 -2.8221
   21CHL1   H1B 1526   5.962   5.441   9.952 -1.0455 -0.0362  0.0361
   21CHL1    C2 1527   5.918   5.554  10.138 -0.3723 -0.1052  1.2446
   21CHL1   H2A 1528   5.837   5.489  10.175 -1.4530  0.0823 -0.6563
   21CHL1   H2B 1529   5.900   5.659  10.169  2.5183  0.8231  0.1651
   21CHL1   C20 1530   6.080   5.584   9.215  0.0992  0.1315 -0.1323
   21CHL1   H20 1531   6.121   5.687   9.208 -1.6059  1.0959  2.3547
   21CHL1   C21 1532   5.924   5.582   9.220  0.3146  0.0876 -0.0564
   21CHL1  H21A 1533   5.888   5.670   9.279  1.2988 -0.1316  0.9016
   21CHL1  H21B 1534   5.897   5.482   9.261  2.2647 -0.8682 -0.9741
   21CHL1  H21C 1535   5.892   5.593   9.115  3.7514 -0.3355 -1.2747
   21CHL1   C22 1536   6.142   5.509   9.092  0.2943  0.0246 -0.5494
   21CHL1  H22A 1537   6.253   5.505   9.097  0.3860 -0.2639 -2.2502
   21CHL1  H22B 1538   6.106   5.404   9.098  0.6167 -0.1056 -0.8284
   21CHL1   C23 1539   6.103   5.558   8.953  0.1128 -0.0629 -0.2747
   21CHL1  H23A 1540   5.994   5.551   8.932 -0.2696  1.9129  0.7991
   21CHL1  H23B 1541   6.139   5.662   8.933 -2.5575  1.0972  0.5715
   21CHL1   C24 1542   6.184   5.472   8.855  0.0576  0.1590 -0.2468
   21CHL1  H24A 1543   6.288   5.454   8.889  0.3782  4.4131  1.6283
   21CHL1  H24B 1544   6.130   5.375   8.865  0.5260 -0.0051  0.7250
   21CHL1   C25 1545   6.184   5.510   8.708 -0.7343  0.0106  0.6914
   21CHL1   H25 1546   6.087   5.556   8.683 -0.3007  1.7299  1.9438
   21CHL1   C26 1547   6.287   5.620   8.668 -0.6965 -0.0016  0.7711
   21CHL1  H26A 1548   6.292   5.699   8.746  1.5878  0.5031  0.2016
   21CHL1  H26B 1549   6.385   5.575   8.644 -1.5524 -1.0034 -1.0466
   21CHL1  H26C 1550   6.251   5.660   8.571  1.0000  0.8116  0.4440
   21CHL1   C27 1551   6.226   5.383   8.634 -0.1794 -0.0787 -0.2389
   21CHL1  H27A 1552   6.167   5.294   8.663 -1.6803  0.0693 -2.6032
   21CHL1  H27B 1553   6.221   5.394   8.524  0.3193 -1.3542 -0.4096
   21CHL1  H27C 1554   6.328   5.355   8.669 -0.0785  0.0456 -0.4307
   22CHL1    C3 1555   5.218   0.551  10.222  0.2676  0.6260 -0.0014
   22CHL1    H3 1556   5.322   0.569  10.256 -0.0754  0.5010  1.1496
   22CHL1    O3 1557   5.129   0.584  10.317 -0.0949  0.1241  0.5655
   22CHL1   H3' 1558   5.041   0.559  10.288  0.2542 -1.0016  0.4548
   22CHL1    C4 1559   5.195   0.634  10.093  0.4717 -0.2272 -0.2327
   22CHL1   H4A 1560   5.087   0.621  10.070  0.3464 -1.2174  0.8499
   22CHL1   H4B 1561   5.208   0.741  10.122  0.6904  0.5062 -2.8083
   22CHL1    C5 1562   5.268   0.594   9.968  0.2869  0.5128  1.0582
   22CHL1    C6 1563   5.326   0.682   9.889 -0.4217  0.3091 -0.1034
   22CHL1    H6 1564   5.322   0.791   9.897 -5.1964  0.4120 -0.8495
   22CHL1    C7 1565   5.382   0.629   9.758 -0.2305 -0.1069  0.2016
   22CHL1   H7A 1566   5.368   0.701   9.675 -1.1529 -0.4168  0.0789
   22CHL1   H7B 1567   5.493   0.634   9.764 -0.3081  0.6764  1.2448
   22CHL1    C8 1568   5.356   0.483   9.711  0.2052 -0.3764  0.0377
   22CHL1    H8 1569   5.253   0.474   9.672 -0.0179  0.7275  0.3450
   22CHL1   C14 1570   5.452   0.434   9.606  0.2161  0.5301  0.0535
   22CHL1   H14 1571   5.546   0.422   9.664 -0.3914 -2.7014  0.5322
   22CHL1   C15 1572   5.462   0.523   9.491  0.2361 -0.8151 -0.9393
   22CHL1  H15A 1573   5.363   0.564   9.462  0.5172  1.2113  0.8327
   22CHL1  H15B 1574   5.529   0.608   9.513 -0.5233 -0.7706  1.4385
   22CHL1   C16 1575   5.519   0.427   9.376  1.0777 -0.4121 -0.8390
   22CHL1  H16A 1576   5.449   0.442   9.292  1.6893  1.8814 -1.0166
   22CHL1  H16B 1577   5.619   0.466   9.347  2.9260 -2.7320  1.8479
   22CHL1   C17 1578   5.530   0.286   9.435 -0.9435  0.1809 -0.2825
   22CHL1   H17 1579   5.628   0.284   9.488 -2.1024 -0.8949  1.9862
   22CHL1   C13 1580   5.423   0.291   9.551 -0.3855 -0.1879 -0.5203
   22CHL1   C18 1581   5.284   0.282   9.486  0.6674  0.0287  0.3970
   22CHL1  H18A 1582   5.278   0.177   9.449  1.1151  0.3005 -0.4752
   22CHL1  H18B 1583   5.203   0.289   9.563  0.9367  0.3402  0.6539
   22CHL1  H18C 1584   5.270   0.363   9.411  0.2918  1.2716  1.7515
   22CHL1   C12 1585   5.440   0.199   9.672 -0.3831  0.2678 -0.0370
   22CHL1  H12A 1586   5.401   0.098   9.645 -1.0129  0.2363  0.9316
   22CHL1  H12B 1587   5.547   0.189   9.697 -0.3723 -0.6017 -0.3941
   22CHL1   C11 1588   5.354   0.236   9.792 -0.5143  0.6854 -0.1135
   22CHL1  H11A 1589   5.255   0.204   9.755  0.6417  0.4353 -3.3206
   22CHL1  H11B 1590   5.379   0.182   9.885  0.7727  1.2832 -0.0818
   22CHL1    C9 1591   5.358   0.388   9.832 -0.7474  0.0271  0.0339
   22CHL1    H9 1592   5.455   0.400   9.885 -0.6552 -0.6869  0.0359
   22CHL1   C10 1593   5.254   0.440   9.941 -1.0197  0.1412  0.7402
   22CHL1   C19 1594   5.110   0.408   9.895  0.4241 -0.3608  0.0457
   22CHL1  H19A 1595   5.093   0.300   9.878 -1.6481 -0.2258  0.9113
   22CHL1  H19B 1596   5.048   0.457   9.973  1.5525  1.5480 -0.1658
   22CHL1  H19C 1597   5.092   0.467   9.802 -1.3264  0.0121  0.5831
   22CHL1    C1 1598   5.278   0.362  10.075 -0.0205  0.4919  0.4035
   22CHL1   H1A 1599   5.257   0.254  10.055  1.8028  0.1108  0.3762
   22CHL1   H1B 1600   5.386   0.374  10.097  0.4644 -2.9368  0.4136
   22CHL1    C2 1601   5.197   0.400  10.200  0.2782  0.4414  0.2841
   22CHL1   H2A 1602   5.254   0.351  10.282 -0.9050 -1.5672 -0.0281
   22CHL1   H2B 1603   5.089   0.374  10.195  0.2453  0.3303  1.2454
   22CHL1   C20 1604   5.526   0.184   9.328  0.1485  0.2411 -0.0339
   22CHL1   H20 1605   5.424   0.162   9.289 -0.1157 -0.3952  0.9651
   22CHL1   C21 1606   5.565   0.057   9.403  0.3465 -0.0036  0.2207
   22CHL1  H21A 1607   5.487   0.004   9.461 -2.1410  0.8950 -2.0946
   22CHL1  H21B 1608   5.652   0.069   9.471 -0.6935 -1.3831  1.8725
   22CHL1  H21C 1609   5.580  -0.029   9.333  0.7924 -0.1343  0.4758
   22CHL1   C22 1610   5.615   0.213   9.201 -0.4168  0.3145  0.8683
   22CHL1  H22A 1611   5.614   0.317   9.162  0.4965  0.2042  0.5405
   22CHL1  H22B 1612   5.722   0.187   9.218 -0.3256  1.2664  1.8749
   22CHL1   C23 1613   5.577   0.119   9.083  0.7917  0.3273  0.4639
   22CHL1  H23A 1614   5.607   0.013   9.099 -0.6847 -0.0970  0.5304
   22CHL1  H23B 1615   5.468   0.114   9.063  0.6893 -0.4999  1.1475
   22CHL1   C24 1616   5.646   0.155   8.953 -0.1107  0.1237  0.1236
   22CHL1  H24A 1617   5.623   0.261   8.930 -0.4079  0.3831  1.5727
   22CHL1  H24B 1618   5.756   0.147   8.969 -0.1802  0.3303  0.7144
   22CHL1   C25 1619   5.620   0.070   8.820 -0.3382  0.2493 -0.3123
   22CHL1   H25 1620   5.645  -0.037   8.832 -0.4826  0.4196  1.8655
   22CHL1   C26 1621   5.473   0.077   8.774  0.3167  0.2477  0.0734
   22CHL1  H26A 1622   5.450   0.022   8.681 -4.4254 -0.4804  1.4188
   22CHL1  H26B 1623   5.407   0.018   8.841  2.8892 -0.6202  2.0267
   22CHL1  H26C 1624   5.432   0.181   8.773 -0.9662 -0.2258  0.9104
   22CHL1   C27 1625   5.698   0.125   8.709 -0.4462 -0.0338  0.4727
   22CHL1  H27A 1626   5.798   0.154   8.749 -0.1196 -0.3500 -0.0955
   22CHL1  H27B 1627   5.723   0.044   8.636  0.5917 -0.1617  0.9421
   22CHL1  H27C 1628   5.661   0.216   8.658  0.6994  1.0464  1.4994
   23CHL1    C3 1629   1.398   0.314  10.243 -0.1517 -0.4162 -0.0864
   23CHL1    H3 1630   1.296   0.345  10.212  0.4268  0.7998 -0.8331
   23CHL1    O3 1631   1.407   0.322  10.392 -0.2507  0.2078 -0.4253
   23CHL1   H3' 1632   1.488   0.275  10.411 -1.2360 -0.8528  1.4297
   23CHL1    C4 1633   1.427   0.169  10.191 -0.0453  0.1715 -0.1458
   23CHL1   H4A 1634   1.526   0.132  10.226 -0.6199 -1.5475 -0.2485
   23CHL1   H4B 1635   1.356   0.096  10.236 -1.0816  0.8631 -0.6296
   23CHL1    C5 1636   1.410   0.161  10.040  0.5017  0.7610 -0.4450
   23CHL1    C6 1637   1.322   0.082   9.983  0.4495  0.0870 -0.2194
   23CHL1    H6 1638   1.270   0.015  10.052 -1.3442  0.4582 -1.1703
   23CHL1    C7 1639   1.298   0.066   9.840 -0.3337  0.0406  0.2988
   23CHL1   H7A 1640   1.292  -0.041   9.810  1.4811 -0.4477  1.5228
   23CHL1   H7B 1641   1.208   0.119   9.804 -1.0498 -1.0404  0.4396
   23CHL1    C8 1642   1.414   0.126   9.755 -0.3155 -0.5502  0.0639
   23CHL1    H8 1643   1.500   0.057   9.766  0.0658  0.0916  1.2884
   23CHL1   C14 1644   1.366   0.140   9.612  0.0356 -0.3912 -0.5111
   23CHL1   H14 1645   1.291   0.222   9.610  1.0165  0.5136 -1.0839
   23CHL1   C15 1646   1.312   0.016   9.546  1.1222 -0.7401  0.4881
   23CHL1  H15A 1647   1.372  -0.073   9.575  0.8932 -0.4115  2.0173
   23CHL1  H15B 1648   1.205   0.003   9.570  1.0599  0.5083  0.9730
   23CHL1   C16 1649   1.328   0.046   9.393 -0.6076 -0.1850  0.2085
   23CHL1  H16A 1650   1.382  -0.038   9.346 -1.7220 -0.8199  0.0251
   23CHL1  H16B 1651   1.227   0.061   9.348 -0.5977  1.3585  0.6279
   23CHL1   C17 1652   1.401   0.180   9.381 -0.4954 -0.1419  0.0602
   23CHL1   H17 1653   1.319   0.256   9.379 -0.5150 -0.0973  1.4062
   23CHL1   C13 1654   1.469   0.203   9.518 -0.4221  0.8434 -0.1963
   23CHL1   C18 1655   1.601   0.107   9.523  0.6947 -0.1396  0.3589
   23CHL1  H18A 1656   1.577  -0.000   9.505 -1.3836 -0.2649  3.1298
   23CHL1  H18B 1657   1.674   0.150   9.452 -0.1060  1.4941  0.4817
   23CHL1  H18C 1658   1.646   0.116   9.624 -0.9480 -1.4423  1.2611
   23CHL1   C12 1659   1.501   0.345   9.574 -0.4932  0.5760  0.6701
   23CHL1  H12A 1660   1.565   0.410   9.510  0.8749  0.6817  2.0781
   23CHL1  H12B 1661   1.406   0.402   9.584 -1.2009 -0.5098  0.3322
   23CHL1   C11 1662   1.555   0.342   9.718 -0.6812  0.4691  0.4404
   23CHL1  H11A 1663   1.654   0.291   9.724 -0.9526 -0.1428 -0.1458
   23CHL1  H11B 1664   1.568   0.450   9.740 -1.1410  0.9330 -1.3975
   23CHL1    C9 1665   1.463   0.268   9.809  0.2667 -0.0984 -0.2277
   23CHL1    H9 1666   1.373   0.333   9.811  0.9888  0.9355  1.6383
   23CHL1   C10 1667   1.506   0.255   9.955  0.7702  0.0747  0.0413
   23CHL1   C19 1668   1.650   0.209   9.970 -0.0088 -0.0715 -0.3224
   23CHL1  H19A 1669   1.668   0.115   9.914  0.2551  1.0386 -2.1749
   23CHL1  H19B 1670   1.722   0.292   9.950 -0.7022  1.2965  2.3271
   23CHL1  H19C 1671   1.672   0.185  10.077 -1.4421  0.5071  0.1275
   23CHL1    C1 1672   1.485   0.397  10.020 -0.2347  0.2757  0.0875
   23CHL1   H1A 1673   1.569   0.451   9.970 -0.4836 -0.3206 -1.0097
   23CHL1   H1B 1674   1.398   0.449   9.976  0.3338  0.9503 -0.2585
   23CHL1    C2 1675   1.499   0.409  10.176 -0.0577  0.3354 -0.0114
   23CHL1   H2A 1676   1.482   0.516  10.202  0.3003  0.2813  0.4543
   23CHL1   H2B 1677   1.597   0.372  10.213 -0.9431 -2.7605 -0.4975
   23CHL1   C20 1678   1.485   0.191   9.254 -0.1208 -0.1515 -0.6318
   23CHL1   H20 1679   1.562   0.110   9.251  1.9868  1.6953  0.2354
   23CHL1   C21 1680   1.555   0.326   9.252 -0.7450 -0.5374  0.2743
   23CHL1  H21A 1681   1.628   0.329   9.336  0.3142 -3.4504 -0.4178
   23CHL1  H21B 1682   1.489   0.415   9.263  0.6182  0.8434 -1.9148
   23CHL1  H21C 1683   1.609   0.332   9.155  0.2539  0.4613  0.8578
   23CHL1   C22 1684   1.405   0.169   9.121 -0.0795 -0.3079  0.1655
   23CHL1  H22A 1685   1.482   0.159   9.042  0.7527  0.9559  0.7873
   23CHL1  H22B 1686   1.365   0.066   9.133  1.3647 -1.0732 -1.2214
   23CHL1   C23 1687   1.285   0.263   9.094  0.0494 -0.6531 -0.4015
   23CHL1  H23A 1688   1.225   0.255   9.187  2.9323 -1.5035  1.5380
   23CHL1  H23B 1689   1.318   0.369   9.084 -0.8753  0.0574  2.7702
   23CHL1   C24 1690   1.203   0.233   8.962 -0.2231 -0.1199 -0.4159
   23CHL1  H24A 1691   1.119   0.303   8.949 -0.1497  0.0212 -0.1511
   23CHL1  H24B 1692   1.273   0.262   8.881  0.7360  2.0575  1.0916
   23CHL1   C25 1693   1.150   0.089   8.938 -0.4236  0.2703  0.3064
   23CHL1   H25 1694   1.227   0.011   8.954 -1.6822 -0.9816  0.4341
   23CHL1   C26 1695   1.043   0.057   9.037  0.0164  0.4749 -0.6085
   23CHL1  H26A 1696   0.949   0.094   8.992 -0.4518  2.4488  1.7775
   23CHL1  H26B 1697   1.047  -0.053   9.053  0.9857  0.5026 -0.5588
   23CHL1  H26C 1698   1.069   0.110   9.131 -1.0198  0.8779 -0.5394
   23CHL1   C27 1699   1.105   0.079   8.795  0.8432  0.4392  0.0161
   23CHL1  H27A 1700   1.045  -0.011   8.769 -0.6060  1.0773  1.0452
   23CHL1  H27B 1701   1.047   0.167   8.760 -2.7063 -1.6096  0.3604
   23CHL1  H27C 1702   1.194   0.057   8.732 -0.2102 -1.5681 -0.8796
   24CHL1    C3 1703   1.984   1.268  10.229  0.1406 -0.2099 -0.8463
   24CHL1    H3 1704   1.885   1.224  10.253 -0.6525  2.7202  1.7732
   24CHL1    O3 1705   2.031   1.320  10.353  0.2862 -0.3063 -0.2258
   24CHL1   H3' 1706   1.960   1.376  10.386 -0.0547  0.7698 -2.5221
   24CHL1    C4 1707   2.065   1.146  10.168  0.0722  0.3619 -0.1947
   24CHL1   H4A 1708   2.171   1.177  10.179  0.6521 -1.4443 -0.3422
   24CHL1   H4B 1709   2.048   1.065  10.242  5.2018  0.8700  1.9535
   24CHL1    C5 1710   2.020   1.103  10.030  0.3312 -0.5096  0.1511
   24CHL1    C6 1711   1.988   0.977  10.002 -0.4151  0.1425 -0.2929
   24CHL1    H6 1712   1.991   0.892  10.073  1.1902 -2.2959 -3.0579
   24CHL1    C7 1713   1.964   0.930   9.864 -0.4135 -0.0475 -0.4546
   24CHL1   H7A 1714   2.021   0.837   9.841 -0.2903  0.0534 -0.5565
   24CHL1   H7B 1715   1.859   0.895   9.863 -0.1897 -0.7239 -1.0390
   24CHL1    C8 1716   1.989   1.032   9.751  0.2129 -0.5576 -0.9454
   24CHL1    H8 1717   2.099   1.043   9.745  0.0645  1.2194 -0.8538
   24CHL1   C14 1718   1.926   0.998   9.624  0.1687 -0.0406 -0.2234
   24CHL1   H14 1719   1.815   0.995   9.637  0.1012 -1.1435 -0.9853
   24CHL1   C15 1720   1.966   0.860   9.574  0.0755  0.9089  0.0449
   24CHL1  H15A 1721   2.070   0.837   9.606 -0.4839 -1.3223  0.4136
   24CHL1  H15B 1722   1.901   0.782   9.618  0.6957  0.5461  0.3394
   24CHL1   C16 1723   1.935   0.866   9.421 -0.1961  0.3024 -0.3346
   24CHL1  H16A 1724   2.030   0.833   9.374 -0.8339 -1.1942 -0.6374
   24CHL1  H16B 1725   1.850   0.798   9.402  0.8202 -1.9957  2.5825
   24CHL1   C17 1726   1.887   1.012   9.393 -0.6949 -0.4803  0.0293
   24CHL1   H17 1727   1.778   1.023   9.410 -0.7438  0.7890 -0.9388
   24CHL1   C13 1728   1.940   1.094   9.517 -0.0954 -0.1729  0.4521
   24CHL1   C18 1729   2.101   1.121   9.496  0.5183  0.5219 -0.6249
   24CHL1  H18A 1730   2.145   1.023   9.471  0.5785  0.2050  0.6359
   24CHL1  H18B 1731   2.117   1.193   9.413 -0.7454  0.9098 -0.5526
   24CHL1  H18C 1732   2.154   1.158   9.587  1.1187 -0.7399 -0.4418
   24CHL1   C12 1733   1.868   1.224   9.550  0.2033 -0.4124 -0.1133
   24CHL1  H12A 1734   1.887   1.303   9.475  1.4155  0.6114  1.2172
   24CHL1  H12B 1735   1.757   1.211   9.554 -0.2868  2.1073 -2.5729
   24CHL1   C11 1736   1.922   1.274   9.687  0.3467 -0.3738 -0.3874
   24CHL1  H11A 1737   2.026   1.307   9.664  0.3697 -0.3472 -0.2437
   24CHL1  H11B 1738   1.865   1.363   9.720 -1.6056 -1.7853  0.2197
   24CHL1    C9 1739   1.936   1.169   9.792  0.5493 -0.1751 -0.5005
   24CHL1    H9 1740   1.831   1.143   9.818  0.2970  1.2687  0.0257
   24CHL1   C10 1741   2.000   1.216   9.925  0.3747  0.3092  0.3206
   24CHL1   C19 1742   2.146   1.273   9.897  0.4329 -0.8275  0.6364
   24CHL1  H19A 1743   2.201   1.215   9.820 -0.2789  0.2665 -0.7412
   24CHL1  H19B 1744   2.138   1.377   9.861  0.3605 -0.5053  1.5650
   24CHL1  H19C 1745   2.198   1.274   9.995 -0.0285  0.5721  0.8811
   24CHL1    C1 1746   1.921   1.333   9.989 -0.0334  0.2974  0.0344
   24CHL1   H1A 1747   1.922   1.420   9.920  0.1957  0.2164 -0.0633
   24CHL1   H1B 1748   1.816   1.297   9.991  0.5129 -1.5075 -1.0760
   24CHL1    C2 1749   1.979   1.379  10.125 -0.2931 -0.5470  0.0414
   24CHL1   H2A 1750   1.918   1.469  10.145  0.3925  0.2951 -1.5289
   24CHL1   H2B 1751   2.083   1.417  10.124 -0.2074 -0.7967 -0.8211
   24CHL1   C20 1752   1.916   1.063   9.251 -0.2341  0.3677  0.7853
   24CHL1   H20 1753   2.022   1.037   9.233 -0.9699 -0.5061 -3.3482
   24CHL1   C21 1754   1.908   1.217   9.232  0.3200  0.6242  0.7930
   24CHL1  H21A 1755   1.805   1.249   9.261  0.5739  2.3811 -0.1166
   24CHL1  H21B 1756   1.921   1.248   9.126  1.3604 -2.0397  0.0778
   24CHL1  H21C 1757   1.980   1.277   9.292  3.1631 -0.5213 -1.2883
   24CHL1   C22 1758   1.818   0.993   9.153  0.6020 -0.6149  0.1733
   24CHL1  H22A 1759   1.833   0.883   9.162 -0.5542 -0.9056 -1.1645
   24CHL1  H22B 1760   1.713   1.024   9.171  1.1397  1.2765  0.2702
   24CHL1   C23 1761   1.837   1.023   9.000  0.3744 -0.0808  0.0246
   24CHL1  H23A 1762   1.813   1.129   8.979  1.6760  0.1976 -0.1518
   24CHL1  H23B 1763   1.946   1.010   8.981  0.6338 -1.8488  2.3033
   24CHL1   C24 1764   1.755   0.937   8.904  0.1925  0.2511 -0.0024
   24CHL1  H24A 1765   1.791   0.832   8.908 -0.4679 -0.0249 -0.9749
   24CHL1  H24B 1766   1.645   0.951   8.913  0.2335  0.7096 -0.1747
   24CHL1   C25 1767   1.779   0.971   8.758  0.1421  0.2919  0.3693
   24CHL1   H25 1768   1.742   1.074   8.738 -3.3543 -0.9588 -0.2742
   24CHL1   C26 1769   1.919   0.943   8.707 -0.5909  0.1636 -0.3737
   24CHL1  H26A 1770   1.937   0.834   8.700  4.4170  0.8420 -2.2584
   24CHL1  H26B 1771   1.934   0.995   8.610  1.9546  1.5043  0.6224
   24CHL1  H26C 1772   1.998   0.992   8.769 -0.2288 -0.0021 -0.6979
   24CHL1   C27 1773   1.689   0.888   8.665 -0.0489 -0.1922 -0.1510
   24CHL1  H27A 1774   1.678   0.935   8.566 -3.2710  2.0246  1.0939
   24CHL1  H27B 1775   1.737   0.788   8.652  0.7316 -0.0387  1.2718
   24CHL1  H27C 1776   1.594   0.874   8.722  0.5955 -0.9266  0.7863
   25CHL1    C3 1777   4.005   3.067  10.318 -0.0211  0.7145  0.4221
   25CHL1    H3 1778   3.960   2.974  10.277  1.1973 -0.5966  1.8840
   25CHL1    O3 1779   3.992   3.065  10.460 -0.2104 -0.6945  0.1734
   25CHL1   H3' 1780   4.038   2.988  10.493 -1.3485 -0.8005  1.6346
   25CHL1    C4 1781   4.155   3.055  10.285  0.3206 -0.4095 -0.6336
   25CHL1   H4A 1782   4.205   3.142  10.332 -0.8755  0.4238 -0.8645
   25CHL1   H4B 1783   4.200   2.966  10.335  3.8748  1.6187  0.1151
   25CHL1    C5 1784   4.182   3.069  10.142  0.2280 -0.3639 -0.6710
   25CHL1    C6 1785   4.259   2.974  10.088  0.0492  0.3391 -0.0953
   25CHL1    H6 1786   4.295   2.901  10.161 -1.5601 -0.0347  0.3573
   25CHL1    C7 1787   4.290   2.969   9.940 -0.1211  0.0360 -0.3062
   25CHL1   H7A 1788   4.397   2.943   9.927 -0.0306 -0.1282  0.7020
   25CHL1   H7B 1789   4.221   2.889   9.904 -0.9842  0.3842  0.5394
   25CHL1    C8 1790   4.258   3.099   9.855  0.8908  0.1363  0.0728
   25CHL1    H8 1791   4.334   3.175   9.883  0.1273  0.8402  0.2797
   25CHL1   C14 1792   4.254   3.067   9.707  0.5528  0.2886 -0.4793
   25CHL1   H14 1793   4.178   2.989   9.686  0.7703 -0.1604  0.3425
   25CHL1   C15 1794   4.386   3.018   9.638 -0.0644  0.5987 -0.4099
   25CHL1  H15A 1795   4.468   3.082   9.677 -1.1596  0.3694  2.4674
   25CHL1  H15B 1796   4.405   2.910   9.653 -1.3211  0.4690  0.4177
   25CHL1   C16 1797   4.369   3.053   9.486 -0.3874 -0.6899  0.1023
   25CHL1  H16A 1798   4.452   3.117   9.448 -1.5638 -0.3011 -1.9764
   25CHL1  H16B 1799   4.351   2.964   9.422  0.3340 -0.6292 -0.1883
   25CHL1   C17 1800   4.232   3.145   9.478  0.8874 -0.2430 -0.1036
   25CHL1   H17 1801   4.158   3.064   9.457  0.3296  0.3568 -0.4766
   25CHL1   C13 1802   4.218   3.193   9.622 -0.1005 -0.8037  0.0370
   25CHL1   C18 1803   4.322   3.311   9.647 -0.3220 -1.0555  0.1316
   25CHL1  H18A 1804   4.270   3.407   9.628  0.4798 -0.9486 -1.7367
   25CHL1  H18B 1805   4.370   3.305   9.747  1.5551  2.2158 -0.4248
   25CHL1  H18C 1806   4.401   3.301   9.570  1.3657  1.6562  1.3855
   25CHL1   C12 1807   4.083   3.244   9.668  0.1930 -0.2359  0.6641
   25CHL1  H12A 1808   4.054   3.338   9.617  1.6197  0.0053  0.2612
   25CHL1  H12B 1809   4.018   3.157   9.643  1.1826 -0.9508  0.5280
   25CHL1   C11 1810   4.076   3.271   9.819 -0.0044 -0.1645  0.2826
   25CHL1  H11A 1811   4.130   3.366   9.840 -0.9606  0.7177 -1.0999
   25CHL1  H11B 1812   3.970   3.295   9.838  0.2311  0.6092  0.6605
   25CHL1    C9 1813   4.119   3.152   9.903  0.2323 -0.9879  0.3195
   25CHL1    H9 1814   4.055   3.067   9.875 -0.6022 -0.5363  0.8091
   25CHL1   C10 1815   4.107   3.180  10.065  0.0072 -0.7407 -0.0687
   25CHL1   C19 1816   4.184   3.319  10.097  0.0865 -0.3876 -0.2122
   25CHL1  H19A 1817   4.140   3.402  10.037  0.5232  0.0694  0.0946
   25CHL1  H19B 1818   4.187   3.341  10.206  2.4887 -1.1676 -0.0604
   25CHL1  H19C 1819   4.288   3.310  10.060  0.8000  0.3709  1.5296
   25CHL1    C1 1820   3.961   3.194  10.104 -0.2279  0.2605 -0.3975
   25CHL1   H1A 1821   3.919   3.286  10.059 -1.1026 -0.9684 -2.2142
   25CHL1   H1B 1822   3.915   3.100  10.065 -0.5993 -0.2173  1.1006
   25CHL1    C2 1823   3.946   3.200  10.259 -0.7916 -0.0800  0.3340
   25CHL1   H2A 1824   3.836   3.200  10.275 -1.1448  0.5634 -1.7677
   25CHL1   H2B 1825   3.975   3.292  10.314 -1.4074  0.5953 -0.4375
   25CHL1   C20 1826   4.221   3.247   9.368  0.0470 -0.2365 -0.1577
   25CHL1   H20 1827   4.249   3.349   9.402  0.6441  0.0618 -1.4620
   25CHL1   C21 1828   4.073   3.242   9.309  0.3453 -0.9592  0.0432
   25CHL1  H21A 1829   4.064   3.154   9.242  0.3729 -0.8122 -0.1530
   25CHL1  H21B 1830   4.059   3.328   9.240  1.8669 -0.8498 -0.1552
   25CHL1  H21C 1831   3.991   3.235   9.383  2.1080  0.0123  2.2070
   25CHL1   C22 1832   4.312   3.219   9.243  0.8743 -0.0659 -0.5638
   25CHL1  H22A 1833   4.419   3.227   9.271  1.0643 -1.2260 -0.8997
   25CHL1  H22B 1834   4.291   3.118   9.201 -0.4740  0.2396 -0.6763
   25CHL1   C23 1835   4.287   3.324   9.126 -0.6251  0.1770  0.1745
   25CHL1  H23A 1836   4.365   3.299   9.050  0.4657 -0.7434  1.5284
   25CHL1  H23B 1837   4.186   3.305   9.085 -1.3530  0.1920  1.9007
   25CHL1   C24 1838   4.305   3.471   9.157  0.4420 -0.3298 -0.2824
   25CHL1  H24A 1839   4.243   3.497   9.246 -0.4280 -1.0629 -0.6639
   25CHL1  H24B 1840   4.415   3.482   9.172  0.3047  0.7655 -0.0065
   25CHL1   C25 1841   4.263   3.566   9.039 -0.2037  0.3866  0.5027
   25CHL1   H25 1842   4.321   3.534   8.949 -1.6083  1.1753 -0.7284
   25CHL1   C26 1843   4.112   3.565   9.011  0.2466  0.4991  0.0096
   25CHL1  H26A 1844   4.059   3.606   9.100 -2.3993 -1.5191 -0.5008
   25CHL1  H26B 1845   4.086   3.613   8.915  3.4838  1.2159 -0.6310
   25CHL1  H26C 1846   4.061   3.467   9.018 -0.3451  0.7174 -1.0795
   25CHL1   C27 1847   4.307   3.714   9.069  0.1773  0.6103  0.4832
   25CHL1  H27A 1848   4.310   3.759   8.968  0.8890 -2.4083 -0.9663
   25CHL1  H27B 1849   4.237   3.769   9.136  0.8300  0.6791  1.1233
   25CHL1  H27C 1850   4.410   3.722   9.111 -0.3233 -0.6533  2.0381
   26CHL1    C3 1851   6.446   5.067  10.174 -0.1360 -0.2220 -0.0225
   26CHL1    H3 1852   6.380   4.979  10.187 -1.9845  1.2038  0.6474
   26CHL1    O3 1853   6.489   5.113  10.301  1.1581 -0.9184  0.6003
   26CHL1   H3' 1854   6.465   5.206  10.296 -0.2155 -1.2767  0.3671
   26CHL1    C4 1855   6.575   5.039  10.091  0.2640 -0.3290  0.2108
   26CHL1   H4A 1856   6.644   5.126  10.093  0.4309 -0.3873 -1.6243
   26CHL1   H4B 1857   6.623   4.959  10.151  1.2547 -0.1832 -0.3682
   26CHL1    C5 1858   6.553   5.004   9.945 -0.0742  0.5110 -0.7301
   26CHL1    C6 1859   6.598   4.893   9.889  0.2537  0.8007  0.2056
   26CHL1    H6 1860   6.656   4.821   9.948 -0.2610  0.3428  0.1495
   26CHL1    C7 1861   6.571   4.851   9.746 -0.3367 -0.2711  0.6543
   26CHL1   H7A 1862   6.664   4.811   9.701 -1.2045 -1.5581 -0.0704
   26CHL1   H7B 1863   6.508   4.759   9.740  0.6927 -1.0347  1.2418
   26CHL1    C8 1864   6.514   4.966   9.656  0.9338  0.2810  0.0222
   26CHL1    H8 1865   6.602   5.029   9.629 -0.2019  0.8409 -2.6721
   26CHL1   C14 1866   6.457   4.904   9.526 -0.6055 -0.4234 -0.2006
   26CHL1   H14 1867   6.378   4.831   9.553 -2.4041  1.0383 -1.2231
   26CHL1   C15 1868   6.547   4.820   9.441 -0.2350  0.8924  0.6845
   26CHL1  H15A 1869   6.646   4.870   9.454 -1.0382  2.8343 -0.2444
   26CHL1  H15B 1870   6.563   4.713   9.467 -0.4234  0.7758  0.3109
   26CHL1   C16 1871   6.490   4.829   9.297  0.3199 -0.1829  0.2825
   26CHL1  H16A 1872   6.565   4.877   9.230 -0.7641 -0.0100 -0.8665
   26CHL1  H16B 1873   6.464   4.729   9.256 -1.5815  1.0745 -1.8781
   26CHL1   C17 1874   6.369   4.930   9.305  0.4400 -0.0289 -0.3757
   26CHL1   H17 1875   6.275   4.879   9.336  0.0119  0.1776 -1.3059
   26CHL1   C13 1876   6.407   5.018   9.427 -0.3158 -0.3256 -0.0376
   26CHL1   C18 1877   6.525   5.112   9.387  1.2058  0.0421 -0.1142
   26CHL1  H18A 1878   6.480   5.179   9.311  0.3688  0.1275  0.4391
   26CHL1  H18B 1879   6.559   5.178   9.470  3.5885 -1.2529  0.0460
   26CHL1  H18C 1880   6.608   5.060   9.335 -1.2337 -1.6769 -2.5852
   26CHL1   C12 1881   6.302   5.106   9.501 -0.5370 -0.4669  0.5292
   26CHL1  H12A 1882   6.272   5.190   9.435 -0.1918 -1.6191 -1.1705
   26CHL1  H12B 1883   6.211   5.043   9.502  0.6651 -2.3084 -0.3024
   26CHL1   C11 1884   6.349   5.158   9.628  0.0407 -0.0479  0.0952
   26CHL1  H11A 1885   6.434   5.228   9.617 -0.0733  0.1705  0.6062
   26CHL1  H11B 1886   6.264   5.203   9.683  0.8562 -1.4568  2.6930
   26CHL1    C9 1887   6.409   5.054   9.729  0.0859  0.5402 -0.2748
   26CHL1    H9 1888   6.321   4.988   9.744  0.9503 -1.3460 -2.7370
   26CHL1   C10 1889   6.465   5.105   9.870 -0.0471 -0.5384  0.1313
   26CHL1   C19 1890   6.546   5.238   9.841  0.1625  0.0894 -0.6005
   26CHL1  H19A 1891   6.472   5.310   9.799 -2.7889 -2.0370  0.6287
   26CHL1  H19B 1892   6.592   5.277   9.934 -0.0570 -1.1052  0.0223
   26CHL1  H19C 1893   6.627   5.209   9.770  0.5930  0.0710 -0.1107
   26CHL1    C1 1894   6.337   5.131   9.958 -0.2729 -0.0929  0.1020
   26CHL1   H1A 1895   6.271   5.201   9.902  0.7675 -0.1983 -1.3430
   26CHL1   H1B 1896   6.284   5.034   9.964  2.1969 -1.5866 -0.4470
   26CHL1    C2 1897   6.369   5.174  10.103 -0.3665 -0.3637  0.6473
   26CHL1   H2A 1898   6.274   5.196  10.156 -0.4036 -1.4123  1.0393
   26CHL1   H2B 1899   6.426   5.269  10.109 -0.4383 -0.3686  1.4795
   26CHL1   C20 1900   6.334   4.987   9.167  0.2598  0.3802  0.6008
   26CHL1   H20 1901   6.423   5.030   9.117  2.0909 -2.8477  0.7871
   26CHL1   C21 1902   6.225   5.088   9.181 -0.0524 -0.0967  0.4326
   26CHL1  H21A 1903   6.251   5.173   9.247 -0.0690  1.2051 -1.1788
   26CHL1  H21B 1904   6.132   5.042   9.221 -1.0323 -0.4320 -2.0624
   26CHL1  H21C 1905   6.189   5.131   9.085  2.1667  0.5363 -0.1596
   26CHL1   C22 1906   6.286   4.876   9.066 -0.3561 -0.7953  0.3601
   26CHL1  H22A 1907   6.351   4.787   9.080 -2.0750 -1.9820  1.0635
   26CHL1  H22B 1908   6.180   4.850   9.085 -0.6720 -1.3363 -1.8724
   26CHL1   C23 1909   6.296   4.929   8.922 -0.0430 -0.1903  1.8321
   26CHL1  H23A 1910   6.235   5.022   8.912 -0.8340 -0.8674 -0.2031
   26CHL1  H23B 1911   6.401   4.960   8.898  1.3125 -3.2656  3.2551
   26CHL1   C24 1912   6.249   4.822   8.831  0.2134  0.6470  0.1691
   26CHL1  H24A 1913   6.313   4.731   8.842 -1.3687 -0.4434  0.8406
   26CHL1  H24B 1914   6.143   4.797   8.857 -0.5538 -0.2493 -3.2356
   26CHL1   C25 1915   6.227   4.845   8.680  0.1972  0.6022  0.2533
   26CHL1   H25 1916   6.160   4.763   8.649  1.7279 -0.8357  0.5649
   26CHL1   C26 1917   6.161   4.981   8.642 -0.2472  0.3349 -0.2153
   26CHL1  H26A 1918   6.158   4.980   8.531  0.5272 -0.7295 -0.2467
   26CHL1  H26B 1919   6.058   4.989   8.684 -0.1179  1.0344 -0.0380
   26CHL1  H26C 1920   6.220   5.070   8.670  0.3241  0.1003 -0.6510
   26CHL1   C27 1921   6.367   4.837   8.603  0.0689  0.5865  0.4225
   26CHL1  H27A 1922   6.343   4.803   8.500  1.1995  0.1072  0.3073
   26CHL1  H27B 1923   6.424   4.932   8.597 -2.2739  2.0576 -0.1459
   26CHL1  H27C 1924   6.431   4.755   8.642  0.6057 -0.4313 -2.3688
   27CHL1    C3 1925   4.484   2.500  10.463  0.8571 -0.3022  0.0106
   27CHL1    H3 1926   4.574   2.566  10.461  0.4386  0.2551 -0.8090
   27CHL1    O3 1927   4.428   2.501  10.596 -0.6965 -0.2234  0.1643
   27CHL1   H3' 1928   4.379   2.419  10.588 -0.4376 -0.4146  0.4718
   27CHL1    C4 1929   4.392   2.553  10.344  0.5181 -0.4785 -0.6378
   27CHL1   H4A 1930   4.286   2.526  10.363  0.7717 -0.1405  1.5285
   27CHL1   H4B 1931   4.396   2.662  10.365  1.9764 -0.6244 -0.0407
   27CHL1    C5 1932   4.440   2.527  10.205 -0.7321  0.2667 -0.8776
   27CHL1    C6 1933   4.452   2.630  10.122  0.1631 -0.7555  0.0331
   27CHL1    H6 1934   4.436   2.734  10.153  0.5989 -0.8145  0.4805
   27CHL1    C7 1935   4.508   2.618   9.987 -0.3520 -0.4847  0.2073
   27CHL1   H7A 1936   4.444   2.661   9.906 -0.6229  0.8736  1.1164
   27CHL1   H7B 1937   4.610   2.663   9.987  0.6487 -2.6106  1.0156
   27CHL1    C8 1938   4.507   2.464   9.939  0.2289 -0.3259 -0.8446
   27CHL1    H8 1939   4.402   2.437   9.915  0.0379 -0.2187 -0.1602
   27CHL1   C14 1940   4.581   2.451   9.804 -0.3083 -0.0161  1.0186
   27CHL1   H14 1941   4.688   2.475   9.821 -0.6324  1.2571  1.4214
   27CHL1   C15 1942   4.539   2.550   9.685 -0.3327  0.3509  0.4153
   27CHL1  H15A 1943   4.429   2.538   9.676 -0.4647  0.6742  1.4180
   27CHL1  H15B 1944   4.576   2.652   9.712 -0.9419  0.1134  2.3217
   27CHL1   C16 1945   4.601   2.481   9.568 -0.1005  0.3432  0.0974
   27CHL1  H16A 1946   4.531   2.478   9.482  0.9156 -0.8783 -0.7327
   27CHL1  H16B 1947   4.689   2.537   9.531 -0.6626  0.8886 -0.4571
   27CHL1   C17 1948   4.657   2.342   9.618  0.1557 -0.6551  0.0739
   27CHL1   H17 1949   4.764   2.351   9.646 -0.5210  0.4865  2.6940
   27CHL1   C13 1950   4.580   2.312   9.744  0.4113  0.6104 -0.0398
   27CHL1   C18 1951   4.432   2.262   9.723  0.1029 -0.1905 -0.1304
   27CHL1  H18A 1952   4.375   2.252   9.819  1.1900  1.5244  0.7520
   27CHL1  H18B 1953   4.384   2.323   9.644  1.1342  0.9699  0.1029
   27CHL1  H18C 1954   4.437   2.161   9.679 -1.5527  0.0695 -1.0126
   27CHL1   C12 1955   4.650   2.220   9.848  0.4772  0.4133 -0.2046
   27CHL1  H12A 1956   4.667   2.116   9.811 -0.5281  0.6874 -1.5392
   27CHL1  H12B 1957   4.744   2.272   9.877  0.0148  0.9238  0.4087
   27CHL1   C11 1958   4.579   2.219   9.988  1.1442  0.4165  0.4523
   27CHL1  H11A 1959   4.473   2.188   9.972  1.2453  1.1896 -2.3255
   27CHL1  H11B 1960   4.630   2.153  10.061 -0.8128 -0.4399  1.0990
   27CHL1    C9 1961   4.565   2.368  10.044  0.6068  0.4460 -0.1868
   27CHL1    H9 1962   4.671   2.400  10.054  0.5304  0.7416 -0.2922
   27CHL1   C10 1963   4.482   2.383  10.172  0.5533  0.7306  0.4235
   27CHL1   C19 1964   4.367   2.287  10.178  0.4538 -0.9418  0.1199
   27CHL1  H19A 1965   4.289   2.306  10.255 -0.6564 -0.4931 -1.0771
   27CHL1  H19B 1966   4.312   2.275  10.082 -0.0867 -1.4421  0.4855
   27CHL1  H19C 1967   4.411   2.187  10.197  1.5735 -0.3546  0.6895
   27CHL1    C1 1968   4.580   2.342  10.288  0.3066 -0.0123  0.1799
   27CHL1   H1A 1969   4.602   2.233  10.291 -0.6972 -0.2054  1.3062
   27CHL1   H1B 1970   4.675   2.400  10.283 -0.8108  1.8079 -1.0974
   27CHL1    C2 1971   4.528   2.355  10.433 -0.2085 -0.6379 -0.3096
   27CHL1   H2A 1972   4.601   2.327  10.513 -1.6845 -0.1925  1.2619
   27CHL1   H2B 1973   4.449   2.280  10.452  1.2580 -1.9542  0.9129
   27CHL1   C20 1974   4.649   2.240   9.495 -0.3483  0.4789 -0.8683
   27CHL1   H20 1975   4.544   2.239   9.459 -0.0150  0.1100 -1.8828
   27CHL1   C21 1976   4.695   2.092   9.533  0.4992 -0.2235  0.2004
   27CHL1  H21A 1977   4.671   2.027   9.446 -1.9742 -0.2149  0.7913
   27CHL1  H21B 1978   4.640   2.050   9.621 -2.2053  2.3057 -0.1194
   27CHL1  H21C 1979   4.802   2.091   9.563  0.3977 -1.9391  0.6593
   27CHL1   C22 1980   4.746   2.282   9.374 -0.1186 -0.8840  0.2507
   27CHL1  H22A 1981   4.690   2.373   9.341 -0.1068 -0.8475  0.3299
   27CHL1  H22B 1982   4.852   2.298   9.404 -0.3974 -0.4610  1.0630
   27CHL1   C23 1983   4.750   2.192   9.245 -0.4016 -0.1255  0.2296
   27CHL1  H23A 1984   4.797   2.098   9.281  0.6135  0.6510  0.9790
   27CHL1  H23B 1985   4.643   2.167   9.231  0.0322 -1.0892 -1.5966
   27CHL1   C24 1986   4.813   2.254   9.120 -0.3917 -0.0380 -0.7373
   27CHL1  H24A 1987   4.761   2.347   9.089  1.5772  1.1108 -0.6823
   27CHL1  H24B 1988   4.913   2.294   9.145 -0.9640  2.5759 -2.2597
   27CHL1   C25 1989   4.818   2.155   9.001 -0.0708  0.1332 -0.2808
   27CHL1   H25 1990   4.863   2.063   9.042 -0.6120  1.1836  2.9585
   27CHL1   C26 1991   4.675   2.126   8.944 -0.1804  1.0109  1.0759
   27CHL1  H26A 1992   4.675   2.038   8.876  1.0764 -0.8369  3.3230
   27CHL1  H26B 1993   4.614   2.093   9.031 -1.0565 -3.4430 -0.9223
   27CHL1  H26C 1994   4.635   2.218   8.896 -1.9660  0.2087  0.9199
   27CHL1   C27 1995   4.914   2.204   8.890 -0.5836  0.0873  0.1629
   27CHL1  H27A 1996   4.912   2.133   8.804  1.0435  0.6039 -0.3247
   27CHL1  H27B 1997   4.887   2.304   8.848 -2.2858 -0.9399 -1.3467
   27CHL1  H27C 1998   5.020   2.201   8.923 -0.5705  0.1099  0.1235
   28CHL1    C3 1999   3.924   2.061  10.235  0.5951  0.4674  0.0551
   28CHL1    H3 2000   3.900   2.168  10.215 -1.4302 -0.1609 -1.1579
   28CHL1    O3 2001   3.898   2.033  10.373 -0.4042  0.4436 -0.0379
   28CHL1   H3' 2002   3.874   1.940  10.371  0.9458 -0.0102  1.8555
   28CHL1    C4 2003   3.820   1.986  10.158  0.8140 -0.0419 -0.1555
   28CHL1   H4A 2004   3.824   1.878  10.186  0.5469 -0.4585 -1.6540
   28CHL1   H4B 2005   3.713   2.009  10.176  0.3544 -1.7613 -0.4652
   28CHL1    C5 2006   3.853   1.987  10.005 -0.5288  0.3675 -0.0281
   28CHL1    C6 2007   3.771   2.037   9.910 -0.7193  0.1057  0.4570
   28CHL1    H6 2008   3.675   2.085   9.932  0.1389  1.3702  1.6278
   28CHL1    C7 2009   3.804   2.046   9.766  0.1379 -0.0085  0.5956
   28CHL1   H7A 2010   3.707   2.026   9.715 -0.4612  1.4646  1.1002
   28CHL1   H7B 2011   3.824   2.148   9.728  0.8025 -0.2971  0.1473
   28CHL1    C8 2012   3.910   1.951   9.723 -0.0454  0.3923 -0.8931
   28CHL1    H8 2013   3.869   1.848   9.731 -1.4943  1.0643  1.1520
   28CHL1   C14 2014   3.953   1.981   9.585  0.3025 -0.0882  0.7734
   28CHL1   H14 2015   3.994   2.083   9.597  1.5599 -0.3638 -0.7631
   28CHL1   C15 2016   3.839   1.994   9.481 -0.3749  0.1150  0.5944
   28CHL1  H15A 2017   3.770   1.909   9.496  0.3567 -1.1551 -2.3476
   28CHL1  H15B 2018   3.776   2.086   9.489  1.1994  1.1427  1.7926
   28CHL1   C16 2019   3.910   1.987   9.346 -0.5570  0.1054  0.1311
   28CHL1  H16A 2020   3.868   1.898   9.295 -1.3238  0.0410  0.8386
   28CHL1  H16B 2021   3.886   2.073   9.280 -0.5951  0.2686  0.3559
   28CHL1   C17 2022   4.066   1.962   9.380 -0.1173  0.3617  0.1516
   28CHL1   H17 2023   4.109   2.064   9.388 -0.6890  0.5783  0.5356
   28CHL1   C13 2024   4.067   1.903   9.523  0.2142 -0.8492 -0.3402
   28CHL1   C18 2025   4.027   1.752   9.500  0.1271  0.2875  0.1224
   28CHL1  H18A 2026   3.945   1.735   9.428 -2.0863 -1.5399  2.8373
   28CHL1  H18B 2027   4.109   1.689   9.459  0.3837  0.8907 -0.3044
   28CHL1  H18C 2028   3.992   1.708   9.596  0.2226  1.2765  0.6173
   28CHL1   C12 2029   4.187   1.913   9.624 -0.1069  0.0614  0.1326
   28CHL1  H12A 2030   4.271   1.848   9.592 -1.0429 -1.2390  0.2161
   28CHL1  H12B 2031   4.239   2.011   9.623  3.0846 -1.3921  2.9392
   28CHL1   C11 2032   4.147   1.886   9.769 -0.1586  0.3897  0.5325
   28CHL1  H11A 2033   4.121   1.780   9.754  1.4444  0.0722 -0.1953
   28CHL1  H11B 2034   4.231   1.913   9.837 -1.6772  1.0854  2.2383
   28CHL1    C9 2035   4.026   1.971   9.821 -0.4348  0.2067  0.1069
   28CHL1    H9 2036   4.058   2.077   9.811 -0.7563  0.1721 -1.4226
   28CHL1   C10 2037   3.998   1.949   9.973 -0.5339 -0.3789  0.7110
   28CHL1   C19 2038   4.016   1.792   9.993  0.7336  0.2263 -0.1424
   28CHL1  H19A 2039   3.970   1.756  10.088  1.2707  0.3696  0.1766
   28CHL1  H19B 2040   3.962   1.741   9.910 -1.0403 -0.7063  1.4933
   28CHL1  H19C 2041   4.120   1.755   9.998  0.4945 -0.3601  0.9965
   28CHL1    C1 2042   4.091   2.025  10.066 -0.3412  0.6925  0.7495
   28CHL1   H1A 2043   4.192   1.982  10.057 -0.5677  0.2586  0.2206
   28CHL1   H1B 2044   4.097   2.133  10.041 -0.6784  0.8852  1.4768
   28CHL1    C2 2045   4.063   2.018  10.213 -0.2375  1.0056  0.4648
   28CHL1   H2A 2046   4.141   2.076  10.266  0.7638  0.7807 -0.7128
   28CHL1   H2B 2047   4.058   1.912  10.246 -0.0805  1.1304  0.8810
   28CHL1   C20 2048   4.146   1.893   9.262  0.0729 -1.2709  0.2858
   28CHL1   H20 2049   4.133   1.785   9.288  3.1307 -1.4536  1.5092
   28CHL1   C21 2050   4.293   1.936   9.282  0.3119 -0.2730  0.1232
   28CHL1  H21A 2051   4.346   1.885   9.199 -0.9451 -0.1604 -0.7861
   28CHL1  H21B 2052   4.342   1.907   9.377  0.9701  1.9172  0.5113
   28CHL1  H21C 2053   4.309   2.045   9.270 -3.0520  0.1821 -1.5888
   28CHL1   C22 2054   4.097   1.934   9.128 -0.2848 -0.3699  0.6506
   28CHL1  H22A 2055   3.992   1.903   9.106 -0.4508 -1.2743  2.5362
   28CHL1  H22B 2056   4.124   2.037   9.097 -1.5832 -0.3912 -0.6688
   28CHL1   C23 2057   4.172   1.852   9.012  0.1961  0.3528  0.0037
   28CHL1  H23A 2058   4.278   1.885   9.002  0.8763 -1.2256  1.3554
   28CHL1  H23B 2059   4.189   1.750   9.054  3.0042  1.0723  0.8598
   28CHL1   C24 2060   4.102   1.866   8.880 -0.1672 -0.0411  0.2323
   28CHL1  H24A 2061   3.992   1.852   8.878  0.1606 -3.4934  0.6377
   28CHL1  H24B 2062   4.111   1.967   8.833 -2.5243  0.2892  0.3764
   28CHL1   C25 2063   4.163   1.776   8.761  0.0299  0.0161 -0.0472
   28CHL1   H25 2064   4.095   1.787   8.674 -1.1367 -1.1579  0.6749
   28CHL1   C26 2065   4.314   1.794   8.734  0.4529  0.1134 -1.1434
   28CHL1  H26A 2066   4.336   1.897   8.701 -2.8639  0.8060 -1.5902
   28CHL1  H26B 2067   4.369   1.775   8.828 -0.7149  2.1948  0.0335
   28CHL1  H26C 2068   4.341   1.722   8.653  3.0038 -1.2026  0.7521
   28CHL1   C27 2069   4.151   1.628   8.803  0.2238  0.0769 -0.9501
   28CHL1  H27A 2070   4.057   1.615   8.861  2.1703 -3.3405  1.8562
   28CHL1  H27B 2071   4.155   1.556   8.718 -0.9648  0.9853 -1.8203
   28CHL1  H27C 2072   4.230   1.605   8.877 -1.2454  0.2653  0.7656
   29CHL1    C3 2073   6.096   6.045   6.420  0.0215  0.1337 -0.8635
   29CHL1    H3 2074   6.011   6.103   6.462 -1.4160 -2.5011  0.0698
   29CHL1    O3 2075   6.078   6.005   6.290 -0.3831  0.3022  0.7631
   29CHL1   H3' 2076   5.994   5.960   6.278  0.7284 -1.6500 -0.1623
   29CHL1    C4 2077   6.224   6.129   6.432  0.2259  0.2939  0.3749
   29CHL1   H4A 2078   6.308   6.073   6.384  0.5507  0.4213  0.7883
   29CHL1   H4B 2079   6.205   6.229   6.388 -0.1727  0.5771  1.1795
   29CHL1    C5 2080   6.269   6.159   6.578  0.2062 -0.1544  0.1041
   29CHL1    C6 2081   6.285   6.286   6.627  0.2457 -0.2228  0.1632
   29CHL1    H6 2082   6.282   6.366   6.552  0.6628  0.2883  0.6832
   29CHL1    C7 2083   6.329   6.319   6.765 -0.1838  0.1615 -0.2577
   29CHL1   H7A 2084   6.412   6.392   6.756 -1.2383  2.1857  3.7058
   29CHL1   H7B 2085   6.245   6.372   6.817  0.2220  0.2985  0.2648
   29CHL1    C8 2086   6.372   6.199   6.856  0.1808  0.7014  0.2359
   29CHL1    H8 2087   6.480   6.185   6.833 -0.4378 -0.5962 -2.1406
   29CHL1   C14 2088   6.364   6.228   7.007 -0.3461 -0.5100  0.7368
   29CHL1   H14 2089   6.256   6.238   7.034 -0.6920  0.9529 -0.9747
   29CHL1   C15 2090   6.435   6.358   7.056  0.1948 -0.1868 -0.0642
   29CHL1  H15A 2091   6.540   6.374   7.024  0.8110  0.1962  1.9822
   29CHL1  H15B 2092   6.378   6.451   7.033 -2.8128 -1.6037  1.1561
   29CHL1   C16 2093   6.449   6.337   7.204  1.0241  0.2980  1.1363
   29CHL1  H16A 2094   6.540   6.378   7.252  2.8772 -1.5812 -0.5342
   29CHL1  H16B 2095   6.359   6.394   7.236  0.9971  2.1114 -1.8063
   29CHL1   C17 2096   6.416   6.187   7.231  0.3132  0.6698 -0.2693
   29CHL1   H17 2097   6.307   6.191   7.253  0.0946 -1.4051 -0.7553
   29CHL1   C13 2098   6.424   6.117   7.092 -0.0941  0.2179  0.0432
   29CHL1   C18 2099   6.568   6.081   7.063  0.2454  0.2393  1.0695
   29CHL1  H18A 2100   6.643   6.160   7.080  3.3720 -1.5075 -2.9573
   29CHL1  H18B 2101   6.603   5.995   7.124  1.6483  0.2811  0.3581
   29CHL1  H18C 2102   6.580   6.046   6.958  0.7501 -0.2273  1.2783
   29CHL1   C12 2103   6.322   5.991   7.083 -0.3853  0.7603  0.4657
   29CHL1  H12A 2104   6.338   5.895   7.136 -1.2092 -0.2562 -1.0674
   29CHL1  H12B 2105   6.222   6.031   7.111 -0.0547  3.7602 -2.0213
   29CHL1   C11 2106   6.304   5.952   6.933 -1.1932 -1.0375 -0.4387
   29CHL1  H11A 2107   6.385   5.883   6.903 -0.9650 -0.3194 -1.5423
   29CHL1  H11B 2108   6.209   5.894   6.927 -1.8329 -0.0642 -0.0207
   29CHL1    C9 2109   6.285   6.074   6.827  0.0772  0.4152 -0.2699
   29CHL1    H9 2110   6.188   6.118   6.860  0.2316 -0.4994  1.4932
   29CHL1   C10 2111   6.276   6.041   6.680  0.2103 -0.4422  0.3665
   29CHL1   C19 2112   6.407   5.974   6.642 -0.0882  0.5550 -0.8762
   29CHL1  H19A 2113   6.488   6.032   6.691  0.7325 -0.8711 -0.4764
   29CHL1  H19B 2114   6.427   5.873   6.685 -0.6721  0.7651 -0.0903
   29CHL1  H19C 2115   6.424   5.975   6.532  0.7993  1.9249 -0.7511
   29CHL1    C1 2116   6.153   5.949   6.647 -0.0294  0.3044  0.4612
   29CHL1   H1A 2117   6.160   5.859   6.711  0.3311  1.9462  2.8980
   29CHL1   H1B 2118   6.073   6.005   6.700  0.2650 -1.1672  2.5910
   29CHL1    C2 2119   6.106   5.918   6.507  0.2759 -0.0908  0.3892
   29CHL1   H2A 2120   6.012   5.861   6.519  1.7203 -2.4719  0.9742
   29CHL1   H2B 2121   6.182   5.849   6.466  2.3040  2.1986  0.0389
   29CHL1   C20 2122   6.490   6.123   7.349 -0.4430 -0.1149  0.1332
   29CHL1   H20 2123   6.597   6.141   7.329 -0.3114 -1.0396 -0.0253
   29CHL1   C21 2124   6.462   5.974   7.362  0.0897 -0.4312  0.4788
   29CHL1  H21A 2125   6.501   5.931   7.268 -0.8552  2.9582 -1.6629
   29CHL1  H21B 2126   6.354   5.949   7.366  0.1955 -1.1916 -1.0207
   29CHL1  H21C 2127   6.514   5.924   7.447  1.0487 -0.4023 -0.0814
   29CHL1   C22 2128   6.444   6.206   7.477  0.5240 -0.7423 -0.1191
   29CHL1  H22A 2129   6.497   6.304   7.470  0.3988 -0.5356  1.4815
   29CHL1  H22B 2130   6.336   6.232   7.479  0.0402 -2.5448 -0.7476
   29CHL1   C23 2131   6.481   6.138   7.616  0.1795 -0.0306  0.4938
   29CHL1  H23A 2132   6.558   6.058   7.603 -2.4767 -2.2788 -3.6436
   29CHL1  H23B 2133   6.509   6.224   7.681 -0.2227 -0.7906  1.6911
   29CHL1   C24 2134   6.356   6.070   7.673 -0.5280  0.3197  0.0622
   29CHL1  H24A 2135   6.282   6.150   7.692 -0.9973 -0.2434  0.6428
   29CHL1  H24B 2136   6.322   5.992   7.602 -0.7938  0.9322 -0.4889
   29CHL1   C25 2137   6.374   5.997   7.809  0.5668  0.4893 -0.6364
   29CHL1   H25 2138   6.398   6.072   7.887  1.2986 -1.6687  1.3336
   29CHL1   C26 2139   6.232   5.934   7.844 -0.3537 -0.1647 -1.2302
   29CHL1  H26A 2140   6.202   5.868   7.760  1.0481  0.6725 -2.4464
   29CHL1  H26B 2141   6.240   5.873   7.936  0.2786  0.4806 -0.8417
   29CHL1  H26C 2142   6.157   6.015   7.857 -0.0748 -0.1108  0.2353
   29CHL1   C27 2143   6.488   5.892   7.804 -0.2691 -0.2692  0.1256
   29CHL1  H27A 2144   6.455   5.820   7.881  1.6324  1.1653  2.4199
   29CHL1  H27B 2145   6.495   5.850   7.701  0.5812  1.3156 -0.5118
   29CHL1  H27C 2146   6.592   5.927   7.821  0.2740 -0.6231 -2.0790
   30CHL1    C3 2147   6.666   3.135   7.240 -0.8614  0.1994 -0.2102
   30CHL1    H3 2148   6.729   3.045   7.259 -0.4374  0.5182 -0.1103
   30CHL1    O3 2149   6.671   3.159   7.104  0.9158  0.5166 -0.6517
   30CHL1   H3' 2150   6.637   3.074   7.074  0.4985  0.6188 -0.4855
   30CHL1    C4 2151   6.525   3.116   7.285 -0.0071  0.4532  0.1241
   30CHL1   H4A 2152   6.469   3.211   7.271 -1.2970 -0.5383 -1.8726
   30CHL1   H4B 2153   6.474   3.039   7.223  0.9172 -0.2577  0.2300
   30CHL1    C5 2154   6.531   3.075   7.432 -0.3561 -0.0007  0.9033
   30CHL1    C6 2155   6.474   2.965   7.473  0.7154  0.4011  0.1219
   30CHL1    H6 2156   6.434   2.900   7.394  1.5536  0.1454 -0.1003
   30CHL1    C7 2157   6.471   2.925   7.619 -0.3285  0.5654  0.6374
   30CHL1   H7A 2158   6.382   2.862   7.641  1.5673 -2.3167  0.5551
   30CHL1   H7B 2159   6.545   2.846   7.642 -0.1010  0.3713 -0.6840
   30CHL1    C8 2160   6.488   3.045   7.720  0.2766  0.5272 -0.0753
   30CHL1    H8 2161   6.397   3.108   7.714 -0.1540  0.1536  2.0175
   30CHL1   C14 2162   6.507   3.005   7.865  0.0410 -0.3593  0.4961
   30CHL1   H14 2163   6.598   2.942   7.855  0.3872 -0.3665  2.9879
   30CHL1   C15 2164   6.393   2.919   7.927 -0.1493 -0.1837  0.1505
   30CHL1  H15A 2165   6.299   2.961   7.885  0.2830  0.8711  0.2025
   30CHL1  H15B 2166   6.408   2.817   7.886 -1.2022 -0.1813 -0.2599
   30CHL1   C16 2167   6.404   2.937   8.080  0.0142  0.5112 -0.1412
   30CHL1  H16A 2168   6.309   2.978   8.119  0.0002  0.2825  0.0665
   30CHL1  H16B 2169   6.425   2.851   8.148 -0.8857  1.1595  0.9839
   30CHL1   C17 2170   6.521   3.045   8.109 -0.0625  0.3023  0.9839
   30CHL1   H17 2171   6.620   2.995   8.105 -0.8181 -1.1988 -2.5207
   30CHL1   C13 2172   6.519   3.119   7.969  0.4892 -0.8247 -0.3946
   30CHL1   C18 2173   6.395   3.217   7.971  0.1264 -0.0548  0.2056
   30CHL1  H18A 2174   6.380   3.255   7.867  2.0916 -1.1343 -0.5315
   30CHL1  H18B 2175   6.297   3.178   8.003  0.9694 -0.6227  2.2455
   30CHL1  H18C 2176   6.414   3.304   8.038  0.9679  0.1836 -0.3281
   30CHL1   C12 2177   6.647   3.194   7.930  0.1691  0.4167  0.1073
   30CHL1  H12A 2178   6.678   3.283   7.987  1.5643  0.5174 -0.7587
   30CHL1  H12B 2179   6.725   3.116   7.943 -0.6967 -0.5211 -0.1581
   30CHL1   C11 2180   6.635   3.240   7.779  0.0032  0.3329  1.2791
   30CHL1  H11A 2181   6.563   3.324   7.787  1.5229  1.7950  0.3368
   30CHL1  H11B 2182   6.731   3.285   7.745 -0.7398  1.7373  0.9632
   30CHL1    C9 2183   6.603   3.133   7.672  0.1722  0.2492  0.1217
   30CHL1    H9 2184   6.693   3.068   7.671  0.5697  0.7899  0.1108
   30CHL1   C10 2185   6.591   3.184   7.524  0.5053 -0.4051  0.0826
   30CHL1   C19 2186   6.490   3.299   7.533  0.3612  0.0064 -0.2251
   30CHL1  H19A 2187   6.458   3.329   7.431  0.4007 -0.2244 -0.3053
   30CHL1  H19B 2188   6.400   3.279   7.595 -0.7140  2.5196 -0.8627
   30CHL1  H19C 2189   6.527   3.394   7.577  0.4114 -0.2857  0.3757
   30CHL1    C1 2190   6.737   3.217   7.476 -0.5036  0.3018  0.0928
   30CHL1   H1A 2191   6.777   3.303   7.535  0.9354 -1.2787  1.5284
   30CHL1   H1B 2192   6.798   3.127   7.498 -1.6499 -0.1413  1.6139
   30CHL1    C2 2193   6.737   3.251   7.324  0.1772 -0.4096  0.0638
   30CHL1   H2A 2194   6.841   3.269   7.291  1.2861  0.0290  3.3674
   30CHL1   H2B 2195   6.684   3.347   7.308 -1.1799 -1.3379 -1.1737
   30CHL1   C20 2196   6.503   3.122   8.237  0.5360  0.0244 -0.0578
   30CHL1   H20 2197   6.410   3.181   8.227  0.0851 -0.7855 -0.7980
   30CHL1   C21 2198   6.618   3.214   8.249  0.6728 -0.8802  0.5685
   30CHL1  H21A 2199   6.613   3.303   8.183 -0.6636 -0.2527  1.4620
   30CHL1  H21B 2200   6.711   3.160   8.223 -0.3889 -1.7077 -1.8288
   30CHL1  H21C 2201   6.606   3.266   8.346  0.0881  3.2279 -1.4780
   30CHL1   C22 2202   6.492   3.029   8.363  0.6463  0.0275 -0.6137
   30CHL1  H22A 2203   6.415   2.952   8.344 -0.9946  1.0951  1.2234
   30CHL1  H22B 2204   6.591   2.980   8.380  0.5975 -0.9392 -2.8891
   30CHL1   C23 2205   6.447   3.093   8.499 -0.8464  0.1753  0.0738
   30CHL1  H23A 2206   6.519   3.172   8.527 -3.1310  2.8998 -1.2324
   30CHL1  H23B 2207   6.346   3.138   8.505 -1.5142 -1.2386 -0.0581
   30CHL1   C24 2208   6.417   2.985   8.601 -0.7607 -0.3886  0.5043
   30CHL1  H24A 2209   6.352   2.915   8.545 -0.0707 -0.7847  0.1762
   30CHL1  H24B 2210   6.505   2.923   8.631 -0.6780 -0.1147  0.8268
   30CHL1   C25 2211   6.349   3.040   8.728 -0.6711 -0.0364 -0.2806
   30CHL1   H25 2212   6.252   3.081   8.691 -1.2767  0.2672  1.5467
   30CHL1   C26 2213   6.315   2.923   8.818  0.0496  0.1748 -0.8078
   30CHL1  H26A 2214   6.261   2.847   8.758 -1.0180  2.7593 -3.4153
   30CHL1  H26B 2215   6.409   2.892   8.867  0.5917  1.8094 -0.7308
   30CHL1  H26C 2216   6.254   2.958   8.904 -0.3897 -0.4954 -0.8458
   30CHL1   C27 2217   6.415   3.152   8.809 -0.8580 -0.4041  0.6260
   30CHL1  H27A 2218   6.487   3.112   8.883  2.0940  0.5171 -1.5699
   30CHL1  H27B 2219   6.463   3.220   8.736 -0.4494 -1.4080 -0.0449
   30CHL1  H27C 2220   6.338   3.214   8.862 -0.8884 -0.5743  0.7826
   31CHL1    C3 2221   4.587   6.027   6.730 -0.2361  0.4029  0.3757
   31CHL1    H3 2222   4.577   6.133   6.763  0.7023 -0.2075  2.8042
   31CHL1    O3 2223   4.550   6.005   6.597  0.3677 -0.4221 -0.1124
   31CHL1   H3' 2224   4.604   6.069   6.551  1.2756 -0.3629  0.9990
   31CHL1    C4 2225   4.738   5.990   6.748 -0.0109  0.3322 -0.1147
   31CHL1   H4A 2226   4.752   5.882   6.729  0.9212  0.3873  0.1952
   31CHL1   H4B 2227   4.798   6.045   6.672 -0.5485  0.0039 -0.7849
   31CHL1    C5 2228   4.769   6.036   6.889 -0.0746 -0.0657  0.4629
   31CHL1    C6 2229   4.859   6.128   6.909 -0.8709 -0.1916  0.1973
   31CHL1    H6 2230   4.902   6.178   6.821 -2.1985 -0.3705 -0.5780
   31CHL1    C7 2231   4.896   6.185   7.043 -0.3665 -0.3797 -0.0206
   31CHL1   H7A 2232   5.007   6.197   7.042 -0.2467 -0.8946  2.4276
   31CHL1   H7B 2233   4.839   6.280   7.055  0.2855  0.0506 -0.2603
   31CHL1    C8 2234   4.869   6.079   7.155 -0.2575  0.4743 -0.5992
   31CHL1    H8 2235   4.944   5.997   7.155 -1.1445 -0.3736 -1.6026
   31CHL1   C14 2236   4.872   6.148   7.294  1.2278  0.0212  0.3712
   31CHL1   H14 2237   4.784   6.215   7.292  1.2659  0.2211 -4.0245
   31CHL1   C15 2238   4.996   6.237   7.319  0.3200 -0.0913 -0.3879
   31CHL1  H15A 2239   5.095   6.204   7.281 -0.2723 -1.7651 -0.5259
   31CHL1  H15B 2240   4.973   6.339   7.279 -0.6346 -0.9212 -2.0654
   31CHL1   C16 2241   5.003   6.242   7.470  0.0754 -0.0284 -0.1005
   31CHL1  H16A 2242   5.101   6.201   7.502 -0.1917 -0.8244 -0.2937
   31CHL1  H16B 2243   5.000   6.348   7.503 -0.8361  0.0049 -0.2837
   31CHL1   C17 2244   4.886   6.158   7.534  0.7379  0.1518  0.7924
   31CHL1   H17 2245   4.796   6.221   7.551  2.0966  1.5457  3.6111
   31CHL1   C13 2246   4.854   6.054   7.414  0.0983 -0.7919  0.1431
   31CHL1   C18 2247   4.964   5.948   7.413 -0.2567 -0.2584 -0.4264
   31CHL1  H18A 2248   5.063   5.988   7.443 -0.3094 -0.4129 -0.0404
   31CHL1  H18B 2249   4.935   5.876   7.492 -1.4933  0.9846  0.2954
   31CHL1  H18C 2250   4.976   5.892   7.318  3.1331 -3.1591  1.4439
   31CHL1   C12 2251   4.724   5.985   7.397  0.0134 -0.0878 -0.0996
   31CHL1  H12A 2252   4.715   5.898   7.466 -0.0116  0.1852  0.2450
   31CHL1  H12B 2253   4.643   6.056   7.424 -1.2753 -1.3788 -0.4321
   31CHL1   C11 2254   4.701   5.923   7.258 -0.0851 -0.4771  0.7062
   31CHL1  H11A 2255   4.769   5.835   7.261  1.9020  0.9661  0.5667
   31CHL1  H11B 2256   4.596   5.889   7.251 -0.6038  1.3256 -1.9757
   31CHL1    C9 2257   4.730   6.014   7.139 -0.4175 -0.2809  0.0919
   31CHL1    H9 2258   4.663   6.102   7.152  0.4073  0.4927 -0.7892
   31CHL1   C10 2259   4.705   5.954   6.999 -0.5044 -0.8657  0.2376
   31CHL1   C19 2260   4.773   5.810   7.005 -0.2169  0.4610 -0.5085
   31CHL1  H19A 2261   4.871   5.814   7.057 -1.9680  0.6633  3.1116
   31CHL1  H19B 2262   4.722   5.730   7.063 -1.1380  2.5205  1.6837
   31CHL1  H19C 2263   4.785   5.764   6.904 -2.0318 -2.8271  0.6230
   31CHL1    C1 2264   4.552   5.951   6.976  0.4010 -0.3253  0.7725
   31CHL1   H1A 2265   4.520   5.859   7.030 -0.3987 -0.0823  0.7150
   31CHL1   H1B 2266   4.505   6.033   7.035  0.0629  0.4659 -0.5703
   31CHL1    C2 2267   4.509   5.937   6.833  0.1515  0.1733 -0.1234
   31CHL1   H2A 2268   4.399   5.936   6.817  0.2104 -1.1731 -0.6410
   31CHL1   H2B 2269   4.529   5.832   6.802 -0.4940  0.5705 -2.0231
   31CHL1   C20 2270   4.923   6.095   7.674  0.0747 -0.6861 -0.1928
   31CHL1   H20 2271   5.007   6.022   7.663  0.4430 -0.4308  0.8137
   31CHL1   C21 2272   4.800   6.035   7.735 -0.1145  1.4946  0.2916
   31CHL1  H21A 2273   4.832   6.004   7.838  2.1598 -1.4582 -1.1418
   31CHL1  H21B 2274   4.782   5.930   7.702  2.4580  1.0204  0.1433
   31CHL1  H21C 2275   4.711   6.100   7.728  0.0814  1.6203 -1.3892
   31CHL1   C22 2276   4.974   6.204   7.770 -0.0156 -0.7171  0.1385
   31CHL1  H22A 2277   4.997   6.155   7.867 -0.0069 -0.7209  0.1346
   31CHL1  H22B 2278   5.068   6.255   7.740  0.2296 -1.5605 -0.5483
   31CHL1   C23 2279   4.871   6.325   7.811  0.2352  0.2101  0.0934
   31CHL1  H23A 2280   4.823   6.374   7.724 -1.7163 -1.8700 -0.1025
   31CHL1  H23B 2281   4.787   6.295   7.878 -1.1160  1.1284 -1.1413
   31CHL1   C24 2282   4.942   6.439   7.880 -0.1569 -0.4042 -0.1943
   31CHL1  H24A 2283   5.010   6.393   7.955  2.2782 -1.1167 -2.6539
   31CHL1  H24B 2284   5.019   6.490   7.818 -0.3990  1.0160  0.6292
   31CHL1   C25 2285   4.869   6.558   7.945  0.2035 -0.2614  0.2838
   31CHL1   H25 2286   4.790   6.526   8.017  0.4786  2.1042  1.7192
   31CHL1   C26 2287   4.972   6.657   8.009  0.4911  0.6849  0.2181
   31CHL1  H26A 2288   4.905   6.740   8.039 -2.2114 -1.0794 -0.6269
   31CHL1  H26B 2289   5.016   6.598   8.092  3.2833 -0.2428 -1.7465
   31CHL1  H26C 2290   5.035   6.707   7.932 -0.0106  0.3748 -0.4005
   31CHL1   C27 2291   4.811   6.637   7.829  0.4410  0.1517  0.3079
   31CHL1  H27A 2292   4.734   6.565   7.794  1.9130 -2.6219  2.4117
   31CHL1  H27B 2293   4.880   6.670   7.749  0.1843  0.1417  0.0795
   31CHL1  H27C 2294   4.755   6.726   7.864  1.2314  1.6848 -2.0454
   32CHL1    C3 2295   6.736   4.996   6.957 -0.3380 -0.0819  0.0655
   32CHL1    H3 2296   6.843   5.000   6.987 -0.9549  0.2453  2.4385
   32CHL1    O3 2297   6.716   5.058   6.828 -0.2452  0.5373 -0.3583
   32CHL1   H3' 2298   6.624   5.085   6.827 -0.4502 -0.1150  0.2499
   32CHL1    C4 2299   6.674   4.853   6.972  0.4614  0.7725 -0.2351
   32CHL1   H4A 2300   6.567   4.849   6.941  1.1551  0.9433 -2.8687
   32CHL1   H4B 2301   6.732   4.785   6.906 -0.4094 -0.8730  0.6333
   32CHL1    C5 2302   6.697   4.798   7.112  0.1958 -0.1147  0.2564
   32CHL1    C6 2303   6.760   4.687   7.146 -0.3171  0.6705 -0.9940
   32CHL1    H6 2304   6.806   4.619   7.073  0.4243  2.2459 -2.0502
   32CHL1    C7 2305   6.771   4.618   7.278 -0.7567 -0.4797 -0.0284
   32CHL1   H7A 2306   6.743   4.511   7.264 -0.5408 -0.5826  0.3193
   32CHL1   H7B 2307   6.872   4.637   7.320 -0.6068  2.2210 -1.3929
   32CHL1    C8 2308   6.678   4.683   7.375  0.0934 -0.2772 -0.0614
   32CHL1    H8 2309   6.579   4.643   7.343 -0.8347  0.6905  1.4706
   32CHL1   C14 2310   6.719   4.639   7.516  0.3153 -0.4979 -0.4559
   32CHL1   H14 2311   6.819   4.686   7.527 -0.9681  1.8513  3.4486
   32CHL1   C15 2312   6.735   4.485   7.557  0.6786 -0.2640 -0.4640
   32CHL1  H15A 2313   6.655   4.426   7.509  0.9420 -2.1418  1.2786
   32CHL1  H15B 2314   6.839   4.472   7.521  2.3355  2.3402  2.8312
   32CHL1   C16 2315   6.730   4.486   7.708  0.2740 -0.4201  0.4824
   32CHL1  H16A 2316   6.646   4.417   7.730  0.8816 -1.8450 -1.3678
   32CHL1  H16B 2317   6.822   4.461   7.765  0.5784  3.0556  1.7579
   32CHL1   C17 2318   6.694   4.633   7.756  0.7359  0.3931 -0.0569
   32CHL1   H17 2319   6.790   4.690   7.764  0.0181  1.4787  1.2611
   32CHL1   C13 2320   6.628   4.699   7.630 -0.3873  0.5416  0.2890
   32CHL1   C18 2321   6.484   4.656   7.604  0.2524  0.3108  0.0520
   32CHL1  H18A 2322   6.453   4.701   7.507  0.5697  2.5890  0.9387
   32CHL1  H18B 2323   6.485   4.545   7.605  0.6817  0.3070 -0.3537
   32CHL1  H18C 2324   6.420   4.692   7.687  0.5463  0.7703  0.0838
   32CHL1   C12 2325   6.663   4.852   7.618 -0.1742  0.7205 -1.4318
   32CHL1  H12A 2326   6.598   4.892   7.700  1.2703 -0.4725  0.3870
   32CHL1  H12B 2327   6.771   4.867   7.641 -0.0243 -0.8287 -1.0280
   32CHL1   C11 2328   6.610   4.903   7.488 -0.1891 -0.7333 -0.4267
   32CHL1  H11A 2329   6.499   4.899   7.483 -0.3684  2.4032 -1.1974
   32CHL1  H11B 2330   6.640   5.009   7.472  0.0771 -1.1196 -2.9627
   32CHL1    C9 2331   6.684   4.835   7.369  0.3064  0.1813  0.0226
   32CHL1    H9 2332   6.793   4.852   7.380  0.7137 -2.1367  0.0538
   32CHL1   C10 2333   6.639   4.888   7.225  0.0215 -0.1919 -0.0577
   32CHL1   C19 2334   6.484   4.876   7.227 -0.3029  0.1262  0.3940
   32CHL1  H19A 2335   6.446   4.888   7.123  1.0777  3.0834  0.1176
   32CHL1  H19B 2336   6.446   4.775   7.253  1.2974 -0.7066 -0.3443
   32CHL1  H19C 2337   6.435   4.940   7.303  0.1122 -0.7742  1.4332
   32CHL1    C1 2338   6.680   5.038   7.203 -0.6416  0.9664  0.0296
   32CHL1   H1A 2339   6.624   5.114   7.261  0.6585  0.3430  2.2349
   32CHL1   H1B 2340   6.787   5.045   7.233 -0.6213 -0.6658  0.4093
   32CHL1    C2 2341   6.663   5.087   7.058  0.1741 -0.2662 -0.0925
   32CHL1   H2A 2342   6.704   5.190   7.049  1.4988 -0.8753 -1.4560
   32CHL1   H2B 2343   6.556   5.097   7.032  0.8946  1.0019 -2.9072
   32CHL1   C20 2344   6.610   4.652   7.883 -0.0073  0.7333 -0.5377
   32CHL1   H20 2345   6.561   4.752   7.887 -3.3955 -0.8053  2.4449
   32CHL1   C21 2346   6.713   4.667   7.999  0.1915  0.1245  0.0592
   32CHL1  H21A 2347   6.774   4.755   7.968 -2.0155  1.5194 -0.5288
   32CHL1  H21B 2348   6.773   4.575   8.016 -1.9808 -0.8830  3.1223
   32CHL1  H21C 2349   6.669   4.686   8.099  3.4057  2.4173  1.1997
   32CHL1   C22 2350   6.501   4.545   7.916  0.2552  0.5659  0.5651
   32CHL1  H22A 2351   6.428   4.535   7.832 -0.2413  1.4634  0.8806
   32CHL1  H22B 2352   6.540   4.442   7.928 -0.3082 -0.0000 -1.7691
   32CHL1   C23 2353   6.412   4.595   8.040  0.3327  0.6969 -0.2605
   32CHL1  H23A 2354   6.475   4.617   8.129  1.7882  0.5735 -1.2243
   32CHL1  H23B 2355   6.355   4.685   8.009  0.8486  0.8991 -0.6270
   32CHL1   C24 2356   6.304   4.497   8.082 -0.1476 -0.0988  0.4187
   32CHL1  H24A 2357   6.248   4.478   7.988 -1.5784  1.9244  0.8009
   32CHL1  H24B 2358   6.351   4.403   8.117 -0.1154 -0.2773 -0.1021
   32CHL1   C25 2359   6.219   4.548   8.196 -0.2900  0.2059 -0.3073
   32CHL1   H25 2360   6.178   4.640   8.149 -1.5151  0.6093  1.4674
   32CHL1   C26 2361   6.100   4.453   8.221  0.4872 -0.1035  1.0301
   32CHL1  H26A 2362   6.129   4.351   8.256 -3.7657 -1.1168  2.1757
   32CHL1  H26B 2363   6.020   4.492   8.288  0.1645 -0.8928  1.1186
   32CHL1  H26C 2364   6.049   4.439   8.124  1.6579  0.1868  0.3551
   32CHL1   C27 2365   6.292   4.591   8.323 -0.2760  0.3045 -0.2258
   32CHL1  H27A 2366   6.232   4.629   8.408  0.5434  0.8323  0.1323
   32CHL1  H27B 2367   6.337   4.504   8.375 -0.3980  1.2806  1.6061
   32CHL1  H27C 2368   6.378   4.660   8.309 -0.0653  0.7570  2.5974
   33CHL1    C3 2369   0.489   4.448   6.766 -0.2075 -0.1858 -0.0990
   33CHL1    H3 2370   0.594   4.413   6.771  0.1238  0.8694  0.8592
   33CHL1    O3 2371   0.457   4.494   6.634  0.4665  0.6574 -0.4146
   33CHL1   H3' 2372   0.361   4.493   6.639  0.5014  0.4279  0.4611
   33CHL1    C4 2373   0.402   4.324   6.812 -0.3163  0.3054  0.5165
   33CHL1   H4A 2374   0.297   4.355   6.794 -0.6922 -1.7372 -1.2618
   33CHL1   H4B 2375   0.434   4.244   6.742 -0.1269  0.0880  0.8487
   33CHL1    C5 2376   0.425   4.290   6.959  0.2772 -0.1143 -0.5240
   33CHL1    C6 2377   0.473   4.171   6.984 -0.6619  0.4771 -0.4895
   33CHL1    H6 2378   0.473   4.093   6.907 -0.7365  0.4064 -0.4188
   33CHL1    C7 2379   0.498   4.113   7.122  0.0554  0.3560 -0.0779
   33CHL1   H7A 2380   0.459   4.011   7.142  3.2037 -1.1978 -1.2887
   33CHL1   H7B 2381   0.605   4.092   7.140 -0.3129 -0.0011  1.9383
   33CHL1    C8 2382   0.436   4.208   7.237 -0.0320 -0.3165  0.0445
   33CHL1    H8 2383   0.326   4.192   7.235  0.0838 -1.1607 -0.0890
   33CHL1   C14 2384   0.493   4.169   7.375  0.0120  0.1061 -0.5689
   33CHL1   H14 2385   0.602   4.190   7.373  0.1339 -0.3476  0.5745
   33CHL1   C15 2386   0.480   4.024   7.427 -0.1190 -0.9449 -0.5223
   33CHL1  H15A 2387   0.386   3.984   7.384 -0.4697  0.8419 -1.5398
   33CHL1  H15B 2388   0.565   3.961   7.393  0.5361 -0.8246  0.8502
   33CHL1   C16 2389   0.479   4.037   7.578  0.4402  0.5599 -0.7292
   33CHL1  H16A 2390   0.389   3.999   7.631  1.0090  3.2627  2.5247
   33CHL1  H16B 2391   0.562   3.978   7.622 -1.6307 -1.5877  0.5207
   33CHL1   C17 2392   0.494   4.194   7.611  0.0419  0.7414  0.1937
   33CHL1   H17 2393   0.603   4.217   7.609  0.3624 -0.5652  1.0034
   33CHL1   C13 2394   0.430   4.259   7.487 -0.5272 -0.1287 -0.3700
   33CHL1   C18 2395   0.278   4.236   7.506  0.0516 -0.2520  0.1821
   33CHL1  H18A 2396   0.244   4.290   7.597 -0.0014 -0.7232  0.4452
   33CHL1  H18B 2397   0.228   4.285   7.420 -1.0293 -2.1013 -0.2906
   33CHL1  H18C 2398   0.256   4.127   7.509  0.7620 -0.4547 -1.0502
   33CHL1   C12 2399   0.464   4.406   7.464  0.7193  0.4218 -0.3384
   33CHL1  H12A 2400   0.426   4.470   7.545 -0.6602 -0.3482 -0.3448
   33CHL1  H12B 2401   0.574   4.415   7.471  0.6859  0.1178  0.6577
   33CHL1   C11 2402   0.416   4.451   7.325 -0.2286  0.1098 -0.0516
   33CHL1  H11A 2403   0.305   4.455   7.318 -0.0745  1.7098 -3.0260
   33CHL1  H11B 2404   0.454   4.555   7.314 -0.6753  0.5338  2.0133
   33CHL1    C9 2405   0.456   4.355   7.209 -0.2393 -0.1596 -0.1449
   33CHL1    H9 2406   0.566   4.364   7.195 -0.2464 -1.7056 -1.4163
   33CHL1   C10 2407   0.406   4.398   7.066  0.6056 -0.3558  0.7906
   33CHL1   C19 2408   0.248   4.420   7.080  0.0305 -0.2736  0.2645
   33CHL1  H19A 2409   0.195   4.429   6.982  1.3665  2.3557 -0.3055
   33CHL1  H19B 2410   0.201   4.344   7.145 -2.9903  2.4218  1.5229
   33CHL1  H19C 2411   0.223   4.525   7.109 -1.6225 -0.0199 -1.7744
   33CHL1    C1 2412   0.478   4.522   7.021  1.0060  0.5791  0.3399
   33CHL1   H1A 2413   0.438   4.597   7.092  1.1786 -0.6942  1.8507
   33CHL1   H1B 2414   0.584   4.517   7.053  1.4039  0.9340 -0.8688
   33CHL1    C2 2415   0.466   4.555   6.875 -0.3525  0.4147 -0.6712
   33CHL1   H2A 2416   0.548   4.630   6.864  0.7322 -0.8330 -1.3372
   33CHL1   H2B 2417   0.367   4.604   6.864  0.0445  1.3904 -0.1107
   33CHL1   C20 2418   0.435   4.226   7.750 -0.1063  0.1923  0.0377
   33CHL1   H20 2419   0.330   4.190   7.763  0.4710 -1.0341  1.6008
   33CHL1   C21 2420   0.446   4.379   7.781 -0.0041  0.4403  0.0429
   33CHL1  H21A 2421   0.439   4.393   7.891 -3.6156  0.2967 -0.0446
   33CHL1  H21B 2422   0.354   4.428   7.743  0.9299  1.4133 -1.0337
   33CHL1  H21C 2423   0.533   4.422   7.727  0.2059 -2.0134 -1.7583
   33CHL1   C22 2424   0.516   4.161   7.863  0.3072  0.8749 -0.2259
   33CHL1  H22A 2425   0.546   4.059   7.831  0.8169  0.3110  1.9379
   33CHL1  H22B 2426   0.610   4.220   7.867 -0.2664  2.0601 -2.4263
   33CHL1   C23 2427   0.446   4.147   8.002 -0.5090  0.9638 -0.1381
   33CHL1  H23A 2428   0.458   4.240   8.062 -1.4227 -0.1006  1.7983
   33CHL1  H23B 2429   0.339   4.117   7.998  0.0684 -1.1660 -0.7510
   33CHL1   C24 2430   0.518   4.047   8.099 -0.4617 -0.6357  0.9818
   33CHL1  H24A 2431   0.522   3.944   8.059  1.2844 -0.0811 -0.3921
   33CHL1  H24B 2432   0.621   4.084   8.113  0.8727 -4.0163  1.0980
   33CHL1   C25 2433   0.455   4.032   8.240  0.1961 -0.4521  0.0282
   33CHL1   H25 2434   0.451   4.137   8.274  2.3953 -0.6014  0.9482
   33CHL1   C26 2435   0.314   3.954   8.242 -0.2194  0.2177  0.3396
   33CHL1  H26A 2436   0.244   3.990   8.163 -0.7853  1.7369  1.4676
   33CHL1  H26B 2437   0.335   3.846   8.227  0.4983  0.4178 -0.0911
   33CHL1  H26C 2438   0.276   3.993   8.340  1.9186  1.2324  0.8171
   33CHL1   C27 2439   0.551   3.965   8.337 -0.7195  0.2097 -0.3954
   33CHL1  H27A 2440   0.564   3.859   8.304 -3.4976  0.6003 -3.1846
   33CHL1  H27B 2441   0.652   4.007   8.355 -1.2517  0.0851  3.8210
   33CHL1  H27C 2442   0.505   3.957   8.438 -0.1567  1.0935 -0.0671
   34CHL1    C3 2443   1.726   2.296   7.141  0.2895  0.6762 -0.2139
   34CHL1    H3 2444   1.724   2.190   7.174 -3.1478  0.3290 -1.1739
   34CHL1    O3 2445   1.725   2.300   6.995 -0.0451  0.3852 -0.3676
   34CHL1   H3' 2446   1.707   2.392   6.978 -0.1724  0.8923  2.0540
   34CHL1    C4 2447   1.599   2.370   7.193 -0.6699 -0.5151 -0.3448
   34CHL1   H4A 2448   1.605   2.470   7.145 -0.1586 -0.5512 -0.3711
   34CHL1   H4B 2449   1.515   2.315   7.145 -0.8827 -0.2708 -0.2511
   34CHL1    C5 2450   1.594   2.386   7.344 -0.5206  0.3009 -0.6985
   34CHL1    C6 2451   1.486   2.343   7.409  0.1926  0.5961  0.2765
   34CHL1    H6 2452   1.401   2.320   7.343  1.2794  1.6406 -1.5663
   34CHL1    C7 2453   1.472   2.354   7.561  0.6918  0.1274 -0.4925
   34CHL1   H7A 2454   1.371   2.380   7.599  0.3143 -0.2514 -1.1969
   34CHL1   H7B 2455   1.479   2.253   7.606 -1.4924 -0.9716 -2.4062
   34CHL1    C8 2456   1.586   2.444   7.626  0.5484  0.3241 -0.1577
   34CHL1    H8 2457   1.553   2.548   7.602  0.7251  0.3941 -0.0942
   34CHL1   C14 2458   1.588   2.424   7.779 -0.0546 -0.0254  0.2143
   34CHL1   H14 2459   1.615   2.316   7.782  0.0239  0.0155  0.9835
   34CHL1   C15 2460   1.456   2.442   7.858  0.9512  0.2696  0.1427
   34CHL1  H15A 2461   1.408   2.541   7.849  1.0793  0.4441  1.2784
   34CHL1  H15B 2462   1.386   2.359   7.834 -2.1039  2.0997  2.1992
   34CHL1   C16 2463   1.500   2.450   8.003 -0.3688  0.4742  0.1774
   34CHL1  H16A 2464   1.473   2.541   8.061  1.0742 -0.3412  2.2293
   34CHL1  H16B 2465   1.470   2.362   8.063  1.7240  0.9240  2.0094
   34CHL1   C17 2466   1.658   2.451   8.005 -0.5999  0.4681  0.5815
   34CHL1   H17 2467   1.692   2.346   8.009  0.1868  0.6956 -0.0320
   34CHL1   C13 2468   1.697   2.498   7.859  0.4380 -0.5488 -0.0221
   34CHL1   C18 2469   1.679   2.655   7.847 -0.1671 -0.4082 -0.1343
   34CHL1  H18A 2470   1.771   2.712   7.872 -0.5565  1.2055 -2.1590
   34CHL1  H18B 2471   1.651   2.684   7.743  3.0772  0.3813 -0.8935
   34CHL1  H18C 2472   1.602   2.696   7.915  0.8679  1.8094 -0.2228
   34CHL1   C12 2473   1.833   2.456   7.796 -0.0127 -0.3020 -0.4672
   34CHL1  H12A 2474   1.911   2.511   7.854 -2.2733  1.0563  1.4390
   34CHL1  H12B 2475   1.851   2.349   7.820 -0.0180 -0.0894  0.5346
   34CHL1   C11 2476   1.842   2.482   7.650  0.1487  0.9913  0.3922
   34CHL1  H11A 2477   1.843   2.590   7.627  1.7370  0.3020 -3.6300
   34CHL1  H11B 2478   1.928   2.431   7.601 -1.3701 -0.8389 -0.5250
   34CHL1    C9 2479   1.721   2.412   7.573  0.3832 -0.2836 -0.0162
   34CHL1    H9 2480   1.740   2.302   7.573 -1.5021 -0.6439  1.3070
   34CHL1   C10 2481   1.715   2.443   7.418 -0.2854  0.0741 -0.2871
   34CHL1   C19 2482   1.712   2.595   7.376  0.4933  0.7109 -0.0630
   34CHL1  H19A 2483   1.625   2.647   7.420  1.0844  1.0419  0.7430
   34CHL1  H19B 2484   1.802   2.648   7.415  0.2859  0.1705  1.1995
   34CHL1  H19C 2485   1.705   2.601   7.265 -0.6063 -1.6978 -0.1908
   34CHL1    C1 2486   1.837   2.369   7.353 -0.2536 -0.3206 -0.1136
   34CHL1   H1A 2487   1.926   2.425   7.390 -0.1312 -0.6477  0.0876
   34CHL1   H1B 2488   1.843   2.268   7.398  0.1454  0.0261  0.6429
   34CHL1    C2 2489   1.848   2.362   7.197  0.4461  0.1620  0.2556
   34CHL1   H2A 2490   1.945   2.313   7.171 -0.0488 -0.2398 -0.9231
   34CHL1   H2B 2491   1.859   2.468   7.166  2.7057  0.4162  1.7273
   34CHL1   C20 2492   1.712   2.524   8.128  0.1093 -1.0009  0.5190
   34CHL1   H20 2493   1.667   2.625   8.120 -0.8877 -1.4169  0.7313
   34CHL1   C21 2494   1.865   2.542   8.115  0.5914 -0.4912 -0.3730
   34CHL1  H21A 2495   1.903   2.599   8.203  1.4270 -0.4442 -0.7513
   34CHL1  H21B 2496   1.892   2.603   8.026 -0.7145  1.2813  0.3793
   34CHL1  H21C 2497   1.913   2.442   8.120  0.5718 -0.4633  0.4156
   34CHL1   C22 2498   1.682   2.475   8.268  0.2449  0.6027 -0.8360
   34CHL1  H22A 2499   1.577   2.439   8.268  1.0949 -2.1604  0.4626
   34CHL1  H22B 2500   1.742   2.383   8.286 -0.8666 -0.0955 -0.5868
   34CHL1   C23 2501   1.703   2.579   8.379 -0.3025  0.1603 -0.0697
   34CHL1  H23A 2502   1.812   2.600   8.387  0.1569 -0.5104 -3.2694
   34CHL1  H23B 2503   1.667   2.681   8.355  0.2798  0.7036  1.2029
   34CHL1   C24 2504   1.630   2.529   8.506 -0.1034  0.2080  0.7359
   34CHL1  H24A 2505   1.521   2.546   8.507 -0.5853 -2.4526  0.3516
   34CHL1  H24B 2506   1.655   2.421   8.502  2.2633  0.7018 -3.1347
   34CHL1   C25 2507   1.681   2.604   8.627 -1.1396 -0.7561 -0.1602
   34CHL1   H25 2508   1.792   2.596   8.630 -1.0849 -0.5858 -1.2239
   34CHL1   C26 2509   1.633   2.750   8.632  0.3370 -0.1648  0.2179
   34CHL1  H26A 2510   1.652   2.792   8.531  1.8530  0.1421  0.6042
   34CHL1  H26B 2511   1.522   2.751   8.639  0.2563 -1.1056 -0.7461
   34CHL1  H26C 2512   1.687   2.808   8.710  3.4691 -2.3321 -0.1605
   34CHL1   C27 2513   1.641   2.527   8.753 -0.3918 -0.7780  0.6529
   34CHL1  H27A 2514   1.530   2.520   8.758 -0.4299 -1.8528 -0.9109
   34CHL1  H27B 2515   1.682   2.424   8.751  0.9864 -0.2529 -1.0711
   34CHL1  H27C 2516   1.688   2.587   8.833  2.9893 -0.4181 -1.3980
   35CHL1    C3 2517   3.750   3.724   7.453 -0.3765  0.4280 -0.3021
   35CHL1    H3 2518   3.755   3.830   7.486  1.6949 -0.0815  1.1875
   35CHL1    O3 2519   3.757   3.707   7.319  0.7495 -0.1946  0.5930
   35CHL1   H3' 2520   3.850   3.697   7.297  1.0404  0.5259  1.4172
   35CHL1    C4 2521   3.870   3.642   7.507  0.1349  0.9298 -0.4395
   35CHL1   H4A 2522   3.869   3.537   7.469 -0.7995  0.3025  1.2043
   35CHL1   H4B 2523   3.961   3.679   7.455  0.1034 -0.9663 -1.9360
   35CHL1    C5 2524   3.874   3.640   7.656  0.4232  0.5914  0.8354
   35CHL1    C6 2525   3.979   3.689   7.722  0.6895 -0.0137  0.0120
   35CHL1    H6 2526   4.065   3.721   7.660  0.6527  1.2244  0.5570
   35CHL1    C7 2527   3.998   3.686   7.867  0.9636  0.1871 -0.2321
   35CHL1   H7A 2528   4.096   3.636   7.887  1.0196  0.0405 -0.8540
   35CHL1   H7B 2529   3.993   3.790   7.906 -1.9644  0.0586 -0.1153
   35CHL1    C8 2530   3.891   3.598   7.939 -0.0686 -0.4963 -0.2308
   35CHL1    H8 2531   3.921   3.491   7.934  0.4996 -0.3249 -0.5085
   35CHL1   C14 2532   3.884   3.640   8.086 -0.6394  0.2808 -0.4847
   35CHL1   H14 2533   3.879   3.751   8.083 -0.2714  0.3054 -0.3392
   35CHL1   C15 2534   4.021   3.615   8.173 -0.0237 -0.1959  0.2863
   35CHL1  H15A 2535   4.046   3.511   8.143  0.0908 -0.0681 -0.0674
   35CHL1  H15B 2536   4.098   3.689   8.142 -1.1954  0.7280 -0.5722
   35CHL1   C16 2537   3.970   3.630   8.316  0.0067  0.9517 -0.3402
   35CHL1  H16A 2538   4.017   3.549   8.376  1.4963  0.8827 -1.5356
   35CHL1  H16B 2539   3.999   3.727   8.362  0.8642  1.6775 -2.2557
   35CHL1   C17 2540   3.819   3.632   8.309 -0.0401  1.1519  0.2467
   35CHL1   H17 2541   3.797   3.741   8.304  2.2044  1.6635  0.5205
   35CHL1   C13 2542   3.778   3.579   8.167 -0.6196  0.0437 -0.7911
   35CHL1   C18 2543   3.790   3.428   8.165  0.2912  1.4075 -0.3480
   35CHL1  H18A 2544   3.704   3.391   8.224 -0.3028 -1.1303 -2.6223
   35CHL1  H18B 2545   3.795   3.384   8.063  0.8845 -2.0162  1.0238
   35CHL1  H18C 2546   3.879   3.392   8.221  0.2830  2.0925  0.1190
   35CHL1   C12 2547   3.645   3.616   8.112 -0.1196 -0.6815 -0.2471
   35CHL1  H12A 2548   3.562   3.580   8.176 -2.0449 -0.6184 -2.5640
   35CHL1  H12B 2549   3.641   3.727   8.124 -2.0502 -0.8984  1.8770
   35CHL1   C11 2550   3.635   3.577   7.964 -0.4488 -0.0119  0.3607
   35CHL1  H11A 2551   3.632   3.467   7.955  3.1597 -0.2164 -0.0588
   35CHL1  H11B 2552   3.541   3.626   7.930  0.1679  1.5509  0.7882
   35CHL1    C9 2553   3.751   3.628   7.874 -0.0248  0.4325 -0.1338
   35CHL1    H9 2554   3.746   3.739   7.865  2.3542  0.6044 -0.2041
   35CHL1   C10 2555   3.749   3.588   7.722  0.1258 -0.3787 -0.6812
   35CHL1   C19 2556   3.744   3.438   7.704  0.7432  0.5567  0.0590
   35CHL1  H19A 2557   3.835   3.398   7.752 -0.2676 -0.8826  0.8357
   35CHL1  H19B 2558   3.667   3.389   7.768  3.1515 -0.5955  2.2422
   35CHL1  H19C 2559   3.726   3.398   7.602 -0.0789 -0.9260  0.7533
   35CHL1    C1 2560   3.615   3.643   7.664 -0.5514 -0.0339 -0.1900
   35CHL1   H1A 2561   3.532   3.576   7.695  0.1614 -1.2165 -0.7745
   35CHL1   H1B 2562   3.599   3.747   7.700  1.1432  0.3445 -0.4242
   35CHL1    C2 2563   3.626   3.662   7.511  0.6686  0.5502  0.9121
   35CHL1   H2A 2564   3.532   3.712   7.479 -0.6319 -1.8208  0.8140
   35CHL1   H2B 2565   3.622   3.557   7.476  4.2148 -0.4458  3.0134
   35CHL1   C20 2566   3.735   3.582   8.427  0.6064  0.4701  0.5310
   35CHL1   H20 2567   3.642   3.535   8.390  1.2930 -0.7189  0.2499
   35CHL1   C21 2568   3.701   3.703   8.522  0.9299  0.3703  0.4924
   35CHL1  H21A 2569   3.634   3.660   8.600  1.4443  0.0709  0.7743
   35CHL1  H21B 2570   3.635   3.774   8.468  1.5728  0.4026 -0.2714
   35CHL1  H21C 2571   3.777   3.778   8.554  0.7358  1.3324 -1.1805
   35CHL1   C22 2572   3.800   3.466   8.505 -0.1677 -0.6034 -0.7088
   35CHL1  H22A 2573   3.837   3.383   8.442  1.2558 -1.3747  1.0563
   35CHL1  H22B 2574   3.887   3.500   8.565  0.5465 -1.7857 -1.0458
   35CHL1   C23 2575   3.709   3.394   8.597  0.2480  1.2465 -0.6169
   35CHL1  H23A 2576   3.683   3.459   8.683 -0.2954  1.2702 -0.7908
   35CHL1  H23B 2577   3.610   3.378   8.548 -0.7695  2.9103  0.7835
   35CHL1   C24 2578   3.762   3.252   8.635  0.2801  0.0222 -0.7228
   35CHL1  H24A 2579   3.706   3.221   8.726 -1.2332 -0.0450 -1.6396
   35CHL1  H24B 2580   3.742   3.180   8.552  0.9059  1.0138 -1.7763
   35CHL1   C25 2581   3.909   3.242   8.663  0.4666 -0.0246 -0.1694
   35CHL1   H25 2582   3.967   3.277   8.575 -1.4832  1.1615 -1.0567
   35CHL1   C26 2583   3.952   3.318   8.790  0.1513  0.6231  0.3278
   35CHL1  H26A 2584   4.057   3.318   8.824 -0.3385 -1.7734  2.0964
   35CHL1  H26B 2585   3.918   3.424   8.784  2.6210  1.4025 -3.5930
   35CHL1  H26C 2586   3.895   3.266   8.870 -0.2625 -1.6510 -1.3422
   35CHL1   C27 2587   3.944   3.093   8.692 -0.5327  0.5905 -0.0360
   35CHL1  H27A 2588   3.935   3.021   8.608  0.6161 -1.6643  1.6631
   35CHL1  H27B 2589   3.881   3.049   8.772  2.4099 -1.7880  1.1687
   35CHL1  H27C 2590   4.049   3.079   8.725 -0.5684  0.0322 -0.1507
   36CHL1    C3 2591   4.180   2.813   7.115 -1.0585 -0.1874  0.1810
   36CHL1    H3 2592   4.113   2.895   7.150  0.6883  0.0908  3.1786
   36CHL1    O3 2593   4.189   2.806   6.973  0.5020  0.0249 -0.2139
   36CHL1   H3' 2594   4.228   2.720   6.955  1.1478  0.7763 -2.8228
   36CHL1    C4 2595   4.323   2.844   7.172  0.2144 -0.0881 -0.0383
   36CHL1   H4A 2596   4.395   2.772   7.127  1.6555  1.0428  0.3866
   36CHL1   H4B 2597   4.351   2.943   7.131  0.8258  0.5395  1.8000
   36CHL1    C5 2598   4.329   2.837   7.329 -0.7332  0.5315  0.2083
   36CHL1    C6 2599   4.367   2.940   7.402 -0.9629 -0.3289 -1.2036
   36CHL1    H6 2600   4.397   3.030   7.346  0.8822  0.6771  1.2648
   36CHL1    C7 2601   4.389   2.931   7.545  0.4778 -0.3514 -0.8592
   36CHL1   H7A 2602   4.483   2.970   7.590 -0.7967 -0.2968  1.9215
   36CHL1   H7B 2603   4.302   2.979   7.595 -0.1270 -1.9352 -0.3494
   36CHL1    C8 2604   4.380   2.787   7.607 -0.2098  0.1429  0.0383
   36CHL1    H8 2605   4.478   2.740   7.583  2.0307  3.6816  1.5209
   36CHL1   C14 2606   4.361   2.788   7.760 -0.1688 -0.1849  0.0637
   36CHL1   H14 2607   4.270   2.849   7.783  1.2972  1.3945  2.0361
   36CHL1   C15 2608   4.466   2.860   7.849  0.5569 -0.2017 -0.6001
   36CHL1  H15A 2609   4.565   2.825   7.813  0.6999 -0.3934 -0.0244
   36CHL1  H15B 2610   4.465   2.970   7.836  0.4064 -0.2085 -0.6511
   36CHL1   C16 2611   4.448   2.798   7.990 -0.0320 -0.2924  0.1871
   36CHL1  H16A 2612   4.542   2.744   8.013  1.2163  1.6818  0.0307
   36CHL1  H16B 2613   4.424   2.861   8.078 -0.1144  0.6199 -0.4683
   36CHL1   C17 2614   4.336   2.685   7.977 -0.3593 -0.7174 -0.2326
   36CHL1   H17 2615   4.239   2.733   8.002  0.7778  2.0857 -0.8461
   36CHL1   C13 2616   4.332   2.653   7.827 -0.1098 -0.2593 -0.5241
   36CHL1   C18 2617   4.458   2.565   7.808  0.3110  0.0999 -0.1980
   36CHL1  H18A 2618   4.474   2.549   7.699  1.3279  0.1389 -0.0619
   36CHL1  H18B 2619   4.548   2.610   7.854 -0.0810 -0.4596  1.1888
   36CHL1  H18C 2620   4.447   2.463   7.850  1.6130 -1.1993 -2.7716
   36CHL1   C12 2621   4.208   2.597   7.767 -0.2314 -0.3277  0.3623
   36CHL1  H12A 2622   4.187   2.495   7.805  1.3753 -1.0873 -0.6941
   36CHL1  H12B 2623   4.125   2.670   7.776  0.7694  0.6530  2.1324
   36CHL1   C11 2624   4.226   2.573   7.609 -0.0321 -0.0622  0.3672
   36CHL1  H11A 2625   4.297   2.491   7.589 -2.0244 -1.6951 -0.2975
   36CHL1  H11B 2626   4.125   2.542   7.574  0.2520 -0.0838 -0.4664
   36CHL1    C9 2627   4.270   2.713   7.545  0.7313  0.1878 -0.4735
   36CHL1    H9 2628   4.182   2.779   7.559  0.2992 -0.4244 -0.2445
   36CHL1   C10 2629   4.280   2.703   7.387  0.2097 -0.6874 -0.6462
   36CHL1   C19 2630   4.380   2.595   7.346  0.2118  0.3669  0.5093
   36CHL1  H19A 2631   4.360   2.498   7.397  0.9055  0.0793  0.2413
   36CHL1  H19B 2632   4.389   2.580   7.236  1.3442  1.0370  0.4962
   36CHL1  H19C 2633   4.482   2.606   7.388 -0.2366 -0.0186  1.7307
   36CHL1    C1 2634   4.139   2.671   7.331  0.1695 -0.1309  0.6436
   36CHL1   H1A 2635   4.110   2.568   7.359  0.1909 -0.6898 -1.2665
   36CHL1   H1B 2636   4.057   2.733   7.374 -1.6293 -0.4842 -2.0424
   36CHL1    C2 2637   4.138   2.675   7.178  0.4346 -0.2687 -0.0131
   36CHL1   H2A 2638   4.035   2.644   7.149  0.6533 -1.5865  0.5952
   36CHL1   H2B 2639   4.204   2.592   7.145  1.2092 -0.6048  2.2437
   36CHL1   C20 2640   4.353   2.577   8.089 -0.5548 -0.8994  0.1143
   36CHL1   H20 2641   4.453   2.532   8.072 -0.5938 -0.9761  0.0859
   36CHL1   C21 2642   4.246   2.468   8.081  0.4144  0.0112  0.6818
   36CHL1  H21A 2643   4.279   2.396   8.004  0.8491 -1.3888  2.1247
   36CHL1  H21B 2644   4.145   2.510   8.060  0.8412  0.2520 -1.0161
   36CHL1  H21C 2645   4.240   2.412   8.177 -1.9362  0.0721  0.6363
   36CHL1   C22 2646   4.348   2.636   8.232  0.2913 -0.4528 -0.0503
   36CHL1  H22A 2647   4.349   2.559   8.312 -0.9274  0.2235  0.6577
   36CHL1  H22B 2648   4.442   2.692   8.249  0.5333 -0.0087 -2.4980
   36CHL1   C23 2649   4.235   2.734   8.269  0.0784 -0.5519 -0.2577
   36CHL1  H23A 2650   4.250   2.827   8.209 -0.5650 -0.1551  0.1804
   36CHL1  H23B 2651   4.141   2.682   8.242 -0.4992  0.9854 -1.3497
   36CHL1   C24 2652   4.235   2.787   8.420 -0.2210 -0.6700 -0.3732
   36CHL1  H24A 2653   4.337   2.823   8.446 -0.1304 -1.0656 -0.1807
   36CHL1  H24B 2654   4.164   2.873   8.424 -0.9784 -1.2971  3.1941
   36CHL1   C25 2655   4.184   2.686   8.534  0.9554  1.0277  0.1542
   36CHL1   H25 2656   4.227   2.586   8.511 -1.5394  0.3297 -1.8655
   36CHL1   C26 2657   4.225   2.731   8.678 -0.3772 -0.2561  0.3095
   36CHL1  H26A 2658   4.334   2.737   8.697 -0.4290  2.4996  0.1455
   36CHL1  H26B 2659   4.175   2.830   8.684 -1.1007 -0.4360 -1.8299
   36CHL1  H26C 2660   4.169   2.677   8.758 -0.1065  2.2386  2.2993
   36CHL1   C27 2661   4.027   2.670   8.518 -0.6905 -0.6938 -0.2321
   36CHL1  H27A 2662   4.003   2.635   8.415 -1.3118  0.1282 -0.3770
   36CHL1  H27B 2663   3.988   2.601   8.596  2.4024 -2.0518  0.2826
   36CHL1  H27C 2664   3.973   2.766   8.508  1.0883  0.1804 -2.0472
   37CHL1    C3 2665   1.259   5.135   7.062 -0.2694  0.2949  0.1828
   37CHL1    H3 2666   1.166   5.192   7.082 -2.2838 -3.1017  1.4552
   37CHL1    O3 2667   1.277   5.133   6.922 -0.2552 -0.3434 -0.3422
   37CHL1   H3' 2668   1.368   5.104   6.920 -0.2637 -0.5330  1.0352
   37CHL1    C4 2669   1.379   5.204   7.129  0.0832 -0.2269 -1.2981
   37CHL1   H4A 2670   1.470   5.145   7.105 -0.9277 -1.4909 -2.0995
   37CHL1   H4B 2671   1.398   5.309   7.097 -2.2419  1.0727  1.1549
   37CHL1    C5 2672   1.350   5.200   7.286 -0.1861  0.4504  0.4188
   37CHL1    C6 2673   1.339   5.309   7.368 -0.2815  0.6582 -0.4061
   37CHL1    H6 2674   1.360   5.407   7.323  1.8269 -0.1481 -1.2814
   37CHL1    C7 2675   1.316   5.308   7.519  0.4161  0.4898  0.6538
   37CHL1   H7A 2676   1.383   5.385   7.563 -1.3819  1.7063  1.3904
   37CHL1   H7B 2677   1.215   5.338   7.556 -1.0692 -2.5023 -0.5972
   37CHL1    C8 2678   1.335   5.164   7.576 -0.2010 -0.1127 -0.7151
   37CHL1    H8 2679   1.443   5.141   7.589 -0.6070 -1.4701  0.5197
   37CHL1   C14 2680   1.281   5.157   7.717  0.0846 -0.1356 -0.5300
   37CHL1   H14 2681   1.174   5.182   7.700 -0.1220 -0.4478  0.2919
   37CHL1   C15 2682   1.339   5.248   7.822 -0.7542  0.1662  0.2822
   37CHL1  H15A 2683   1.450   5.251   7.820 -0.7399 -0.5650 -0.1002
   37CHL1  H15B 2684   1.304   5.351   7.798  0.9731  0.9551  0.9426
   37CHL1   C16 2685   1.297   5.195   7.955 -0.1668 -0.3526 -0.4042
   37CHL1  H16A 2686   1.393   5.163   8.001 -1.4828 -3.5833  0.4121
   37CHL1  H16B 2687   1.235   5.262   8.019  0.0851  0.8506 -1.3877
   37CHL1   C17 2688   1.216   5.069   7.919 -0.3822 -0.0802 -0.5713
   37CHL1   H17 2689   1.111   5.096   7.895 -0.5639 -1.3661 -1.3253
   37CHL1   C13 2690   1.279   5.023   7.789  0.2573  0.0633  0.4378
   37CHL1   C18 2691   1.417   4.960   7.808  0.6332  0.2229  0.7515
   37CHL1  H18A 2692   1.416   4.851   7.832  0.2226  0.0685  0.0790
   37CHL1  H18B 2693   1.479   4.978   7.717  1.3233 -0.5019  1.0670
   37CHL1  H18C 2694   1.467   5.013   7.891  1.5326 -1.4953  1.3469
   37CHL1   C12 2695   1.202   4.930   7.706  0.3296  0.4746  0.6429
   37CHL1  H12A 2696   1.199   4.831   7.755  1.7482 -0.1281 -0.4259
   37CHL1  H12B 2697   1.096   4.962   7.707  0.0770 -0.3378  1.3865
   37CHL1   C11 2698   1.244   4.926   7.558  0.6941  0.1159  0.2868
   37CHL1  H11A 2699   1.341   4.872   7.562 -0.1083 -1.5563 -1.5238
   37CHL1  H11B 2700   1.171   4.862   7.505  3.4959 -1.2935 -2.1481
   37CHL1    C9 2701   1.263   5.068   7.490  0.2082  0.5042 -0.1250
   37CHL1    H9 2702   1.158   5.103   7.480  0.0063 -0.0486 -0.0055
   37CHL1   C10 2703   1.317   5.063   7.337  0.6264 -0.5668 -0.1064
   37CHL1   C19 2704   1.440   4.973   7.335  0.1865  0.5135 -0.3811
   37CHL1  H19A 2705   1.502   4.957   7.244 -0.5777  1.2280 -1.0435
   37CHL1  H19B 2706   1.510   5.007   7.414 -0.6108 -1.7246  1.3955
   37CHL1  H19C 2707   1.416   4.869   7.365 -0.4009  0.7753  0.0639
   37CHL1    C1 2708   1.207   4.999   7.249 -0.3900  0.2083  0.3294
   37CHL1   H1A 2709   1.180   4.898   7.285  3.4638 -1.6128 -1.3111
   37CHL1   H1B 2710   1.121   5.070   7.244  0.9788  1.8735 -0.4759
   37CHL1    C2 2711   1.232   4.992   7.102  0.1582 -0.1231  0.2491
   37CHL1   H2A 2712   1.140   4.954   7.054 -1.0730  2.2807  0.6097
   37CHL1   H2B 2713   1.319   4.924   7.085  0.9849  0.7556  0.8732
   37CHL1   C20 2714   1.220   4.968   8.040 -0.3288 -0.1170  0.6491
   37CHL1   H20 2715   1.316   4.913   8.043 -0.2913 -0.0822  0.1409
   37CHL1   C21 2716   1.108   4.864   8.023 -0.1875  0.8428  0.0138
   37CHL1  H21A 2717   1.148   4.778   7.965  2.6005  1.3212  1.0697
   37CHL1  H21B 2718   1.023   4.906   7.966 -1.5359  0.7624  1.8930
   37CHL1  H21C 2719   1.081   4.821   8.121 -0.3398  0.1009 -0.3484
   37CHL1   C22 2720   1.191   5.047   8.176 -0.0623 -0.2292  0.0078
   37CHL1  H22A 2721   1.263   5.126   8.205 -0.1595  0.5124 -1.6567
   37CHL1  H22B 2722   1.092   5.093   8.157  1.1299  2.3603 -0.3366
   37CHL1   C23 2723   1.196   4.958   8.306  0.2034 -0.4221 -0.8228
   37CHL1  H23A 2724   1.147   5.012   8.389  0.8979  1.6140 -1.6865
   37CHL1  H23B 2725   1.142   4.862   8.291  1.3053 -1.3502  0.8314
   37CHL1   C24 2726   1.339   4.942   8.365 -1.0693  0.6044 -0.7715
   37CHL1  H24A 2727   1.399   4.873   8.301  0.1969 -1.2083  2.1072
   37CHL1  H24B 2728   1.381   5.043   8.382  0.3243 -0.2715  1.6759
   37CHL1   C25 2729   1.333   4.873   8.503 -0.0015  0.0107  0.0604
   37CHL1   H25 2730   1.251   4.914   8.566 -0.5931 -1.3146  0.1775
   37CHL1   C26 2731   1.302   4.722   8.497  0.7179  0.2678 -0.3886
   37CHL1  H26A 2732   1.400   4.671   8.485  0.3093 -0.8419  0.8035
   37CHL1  H26B 2733   1.259   4.685   8.593 -0.6637 -0.2662 -1.1796
   37CHL1  H26C 2734   1.236   4.698   8.411 -1.0713  2.9861  0.0853
   37CHL1   C27 2735   1.467   4.896   8.588 -0.0244  0.1346  0.7027
   37CHL1  H27A 2736   1.452   4.857   8.691 -3.6300 -0.6086  0.0538
   37CHL1  H27B 2737   1.550   4.843   8.537  0.8157  1.2061  0.9196
   37CHL1  H27C 2738   1.494   5.003   8.596  1.6833 -0.2006 -0.1897
   38CHL1    C3 2739   4.070   6.015   6.476  0.3234  0.0335  0.8911
   38CHL1    H3 2740   4.089   5.916   6.522 -1.7906 -0.1084  1.5901
   38CHL1    O3 2741   4.062   6.003   6.338 -0.5115  0.4536  0.0013
   38CHL1   H3' 2742   4.133   6.061   6.309  1.8960 -1.2619  2.0818
   38CHL1    C4 2743   3.939   6.078   6.529  0.1828 -0.7370  0.5468
   38CHL1   H4A 2744   3.922   6.182   6.492 -0.2007 -1.1048 -0.3322
   38CHL1   H4B 2745   3.846   6.021   6.506 -1.5811  2.0504  0.2876
   38CHL1    C5 2746   3.949   6.097   6.680  0.6288 -0.0793  0.0875
   38CHL1    C6 2747   3.851   6.051   6.760 -0.1686  0.3269 -0.5491
   38CHL1    H6 2748   3.756   6.003   6.729 -0.6755 -0.8642  2.5561
   38CHL1    C7 2749   3.853   6.067   6.910 -0.0036 -0.1414  0.8246
   38CHL1   H7A 2750   3.765   6.126   6.944  1.4917  2.0368  1.1448
   38CHL1   H7B 2751   3.853   5.976   6.973 -0.9328  0.7794  2.2181
   38CHL1    C8 2752   3.970   6.163   6.969 -0.0839  0.2527 -0.0926
   38CHL1    H8 2753   3.944   6.269   6.951  1.8417  0.4029 -2.6386
   38CHL1   C14 2754   3.990   6.122   7.111 -0.1962 -0.1065  0.0353
   38CHL1   H14 2755   4.010   6.012   7.108  0.4757  0.0156 -1.7494
   38CHL1   C15 2756   3.865   6.141   7.207 -0.3555 -0.6940  0.0717
   38CHL1  H15A 2757   3.824   6.240   7.180  1.2848 -0.1558 -0.6027
   38CHL1  H15B 2758   3.787   6.064   7.189 -1.5255  0.8006 -1.5150
   38CHL1   C16 2759   3.927   6.126   7.344  0.3065  0.0256 -0.0147
   38CHL1  H16A 2760   3.906   6.204   7.420 -1.0517  0.5873 -0.9343
   38CHL1  H16B 2761   3.894   6.026   7.382 -0.1679 -1.0929 -3.1097
   38CHL1   C17 2762   4.082   6.115   7.324  0.8915  0.7066 -0.7834
   38CHL1   H17 2763   4.119   6.011   7.314 -2.0272 -0.6229  0.9722
   38CHL1   C13 2764   4.109   6.178   7.186  0.5340 -0.6158  0.2975
   38CHL1   C18 2765   4.091   6.334   7.204  0.2802  0.1628  1.2063
   38CHL1  H18A 2766   4.005   6.348   7.273 -0.1032  0.1244  0.7422
   38CHL1  H18B 2767   4.185   6.375   7.246  0.0222  0.2805  1.6769
   38CHL1  H18C 2768   4.054   6.372   7.106 -0.0905 -0.5657  1.0549
   38CHL1   C12 2769   4.236   6.160   7.101 -0.5036 -0.0305  0.2605
   38CHL1  H12A 2770   4.327   6.208   7.144 -0.9700  2.1561 -1.0302
   38CHL1  H12B 2771   4.244   6.049   7.102 -0.7275 -0.0460  0.2471
   38CHL1   C11 2772   4.215   6.208   6.949 -0.3342  0.4236 -0.9990
   38CHL1  H11A 2773   4.224   6.319   6.943 -0.1578  0.4488 -0.3529
   38CHL1  H11B 2774   4.310   6.174   6.902 -0.6846 -2.3530  0.1438
   38CHL1    C9 2775   4.095   6.135   6.882 -0.0243 -0.2623  0.4871
   38CHL1    H9 2776   4.120   6.027   6.884  1.1014 -0.0381 -0.2947
   38CHL1   C10 2777   4.075   6.161   6.736  0.8331 -0.2585 -0.1697
   38CHL1   C19 2778   4.063   6.312   6.717  0.2442  0.4976 -0.5149
   38CHL1  H19A 2779   4.143   6.369   6.767  0.7460 -1.1832  0.6938
   38CHL1  H19B 2780   4.073   6.342   6.611 -1.3848  0.9641 -0.5716
   38CHL1  H19C 2781   3.967   6.364   6.738  0.3918  0.2751  0.7897
   38CHL1    C1 2782   4.201   6.103   6.654  0.0451  0.1602 -0.5404
   38CHL1   H1A 2783   4.292   6.160   6.684 -0.0869  0.2821 -0.3714
   38CHL1   H1B 2784   4.214   5.997   6.686 -1.2961  0.3517  0.7500
   38CHL1    C2 2785   4.184   6.109   6.505 -0.0277  1.5416  0.1981
   38CHL1   H2A 2786   4.276   6.059   6.468  0.8098  3.1274  0.0432
   38CHL1   H2B 2787   4.178   6.203   6.446  0.2977  0.2442 -1.9890
   38CHL1   C20 2788   4.164   6.167   7.444 -0.0149  0.0808  0.7321
   38CHL1   H20 2789   4.152   6.277   7.449  0.6853  0.2954 -1.5698
   38CHL1   C21 2790   4.320   6.151   7.430 -0.1985  0.0324 -0.4572
   38CHL1  H21A 2791   4.352   6.046   7.414 -2.3454 -0.8126  0.4398
   38CHL1  H21B 2792   4.375   6.184   7.521  0.6213 -0.0395 -0.9198
   38CHL1  H21C 2793   4.357   6.214   7.346  0.1960  0.2366 -0.1381
   38CHL1   C22 2794   4.119   6.109   7.576  0.9259 -0.5902 -0.4760
   38CHL1  H22A 2795   4.012   6.092   7.598  0.7108  2.2068  1.0715
   38CHL1  H22B 2796   4.170   6.013   7.597 -2.6786 -2.4243  0.7152
   38CHL1   C23 2797   4.152   6.208   7.695  0.8250 -0.2549  0.0822
   38CHL1  H23A 2798   4.261   6.208   7.717  0.6013 -0.7461  1.3250
   38CHL1  H23B 2799   4.116   6.309   7.668 -0.8620  0.0150  2.8689
   38CHL1   C24 2800   4.071   6.169   7.824 -0.1593  0.2725  0.3214
   38CHL1  H24A 2801   3.964   6.180   7.798  0.1409  1.8769 -0.3981
   38CHL1  H24B 2802   4.085   6.063   7.853 -2.2697  0.0558  0.7338
   38CHL1   C25 2803   4.108   6.260   7.939 -0.0039 -0.4264 -0.3871
   38CHL1   H25 2804   4.093   6.365   7.906  0.3406 -0.0270  0.6890
   38CHL1   C26 2805   4.014   6.247   8.062 -0.2266  0.1069 -0.8887
   38CHL1  H26A 2806   4.017   6.145   8.106 -0.7958 -0.3056 -1.7940
   38CHL1  H26B 2807   4.057   6.314   8.140  0.5609 -0.8579 -0.4703
   38CHL1  H26C 2808   3.911   6.277   8.036 -1.2537 -2.1340  0.3023
   38CHL1   C27 2809   4.255   6.249   7.984 -0.4159  0.4293  0.6230
   38CHL1  H27A 2810   4.282   6.147   8.018  3.3326  1.1073  0.1596
   38CHL1  H27B 2811   4.328   6.266   7.902 -2.4566  1.4918 -1.0631
   38CHL1  H27C 2812   4.284   6.318   8.066  3.9408 -2.2537  1.6814
   39CHL1    C3 2813   4.114   5.669   6.744 -0.4588  0.2045 -0.1242
   39CHL1    H3 2814   4.197   5.741   6.733 -1.2752  1.3883  1.1991
   39CHL1    O3 2815   4.044   5.646   6.625 -0.1339 -0.1522 -0.2155
   39CHL1   H3' 2816   3.960   5.690   6.633 -1.0038 -1.6150 -0.8823
   39CHL1    C4 2817   4.168   5.533   6.793 -0.9579 -0.5666 -1.2980
   39CHL1   H4A 2818   4.091   5.453   6.796 -1.4412 -0.1472 -2.1651
   39CHL1   H4B 2819   4.245   5.505   6.718  1.6935  2.5605 -0.0067
   39CHL1    C5 2820   4.234   5.546   6.931 -0.9833 -0.6504  0.7734
   39CHL1    C6 2821   4.360   5.502   6.955  0.1779  0.8753  0.5413
   39CHL1    H6 2822   4.422   5.453   6.879  1.1910  2.3850  0.3591
   39CHL1    C7 2823   4.431   5.511   7.090  0.1358  0.4986  0.7032
   39CHL1   H7A 2824   4.484   5.416   7.111 -0.7863  0.1142  1.3728
   39CHL1   H7B 2825   4.503   5.594   7.080 -1.5211  1.8884 -0.2849
   39CHL1    C8 2826   4.342   5.536   7.212  0.0490  0.1859  0.3300
   39CHL1    H8 2827   4.295   5.437   7.235  0.5707 -0.3716 -0.9210
   39CHL1   C14 2828   4.423   5.586   7.326  0.0096  0.1963 -0.4574
   39CHL1   H14 2829   4.457   5.690   7.303 -3.4073  1.8935  1.3454
   39CHL1   C15 2830   4.556   5.523   7.362  0.0169 -0.2255 -0.7994
   39CHL1  H15A 2831   4.536   5.415   7.345 -1.8292  0.1488 -1.2832
   39CHL1  H15B 2832   4.642   5.551   7.298 -0.1295 -0.0197 -0.9062
   39CHL1   C16 2833   4.574   5.560   7.511 -0.1629  0.4327 -0.1231
   39CHL1  H16A 2834   4.579   5.465   7.568 -0.3186  0.3833 -0.1904
   39CHL1  H16B 2835   4.671   5.614   7.523 -0.8169  1.4305  0.8981
   39CHL1   C17 2836   4.459   5.658   7.551 -0.2282  0.3930 -0.2342
   39CHL1   H17 2837   4.491   5.759   7.517 -1.3270  0.5209 -0.9242
   39CHL1   C13 2838   4.345   5.618   7.451 -0.1674  0.2834 -0.4903
   39CHL1   C18 2839   4.279   5.487   7.498 -0.1500 -0.1381 -0.3826
   39CHL1  H18A 2840   4.344   5.397   7.506 -2.3495 -1.9677 -1.6231
   39CHL1  H18B 2841   4.217   5.510   7.588  0.7579  1.3461 -0.1141
   39CHL1  H18C 2842   4.213   5.439   7.422  0.3104 -0.8376 -0.3512
   39CHL1   C12 2843   4.242   5.726   7.413 -0.0776 -0.3421 -0.2772
   39CHL1  H12A 2844   4.171   5.767   7.488  0.4934  4.3664 -1.9272
   39CHL1  H12B 2845   4.284   5.824   7.380  0.1684  0.1040  1.2581
   39CHL1   C11 2846   4.148   5.681   7.296 -0.6047  0.4105 -0.0477
   39CHL1  H11A 2847   4.081   5.601   7.335  1.0625  0.0290  2.2745
   39CHL1  H11B 2848   4.088   5.772   7.274 -0.8724  0.5021  1.0123
   39CHL1    C9 2849   4.233   5.643   7.174 -0.0338 -0.0387 -0.5715
   39CHL1    H9 2850   4.293   5.734   7.157 -1.6788  1.0735 -0.6587
   39CHL1   C10 2851   4.158   5.617   7.042  0.0476 -0.2164  0.2192
   39CHL1   C19 2852   4.042   5.531   7.079 -0.3997  0.3611 -0.6836
   39CHL1  H19A 2853   3.965   5.586   7.136 -0.3150  1.2305 -1.3851
   39CHL1  H19B 2854   3.993   5.486   6.990 -1.2357 -3.0399  1.3369
   39CHL1  H19C 2855   4.083   5.449   7.141 -2.6852 -1.2894 -1.2313
   39CHL1    C1 2856   4.102   5.746   6.983  0.6565 -0.7939  0.1146
   39CHL1   H1A 2857   4.031   5.794   7.053  2.6461 -1.1073  2.4670
   39CHL1   H1B 2858   4.188   5.816   6.968  0.4185 -0.4266  0.4368
   39CHL1    C2 2859   4.029   5.731   6.842  0.7406 -0.8888  0.3454
   39CHL1   H2A 2860   3.987   5.830   6.814 -3.2918 -1.7935  2.4495
   39CHL1   H2B 2861   3.941   5.663   6.856  1.1822 -1.3050  1.1445
   39CHL1   C20 2862   4.437   5.659   7.702  1.0146  1.0852  0.5870
   39CHL1   H20 2863   4.393   5.561   7.732 -0.0077  1.1011 -0.8068
   39CHL1   C21 2864   4.334   5.767   7.740 -0.4940 -0.2693  0.1176
   39CHL1  H21A 2865   4.377   5.868   7.719  0.7297 -0.6089  0.9101
   39CHL1  H21B 2866   4.294   5.762   7.844 -0.3707 -0.2714  0.1653
   39CHL1  H21C 2867   4.249   5.758   7.669 -0.3946  0.3202 -0.0875
   39CHL1   C22 2868   4.572   5.676   7.777 -0.1114  0.6634  0.5831
   39CHL1  H22A 2869   4.654   5.610   7.741  1.3925  3.6215 -1.8652
   39CHL1  H22B 2870   4.619   5.765   7.731  1.4309  1.0245  2.7078
   39CHL1   C23 2871   4.551   5.686   7.932  0.1537  0.4036 -0.3185
   39CHL1  H23A 2872   4.526   5.793   7.947  0.4825  0.4607 -0.1830
   39CHL1  H23B 2873   4.459   5.631   7.961  0.3134  0.8866  1.1972
   39CHL1   C24 2874   4.675   5.633   8.011 -0.1443 -0.3558  0.1222
   39CHL1  H24A 2875   4.686   5.529   7.976  2.4464 -0.7421  1.8067
   39CHL1  H24B 2876   4.762   5.688   7.970 -1.0515  1.0411  0.0022
   39CHL1   C25 2877   4.661   5.640   8.160 -0.5968  0.6497  0.4516
   39CHL1   H25 2878   4.764   5.645   8.200 -0.4208 -1.7596  0.4369
   39CHL1   C26 2879   4.595   5.765   8.213 -0.0343 -0.2985 -0.4472
   39CHL1  H26A 2880   4.632   5.856   8.162 -0.2958 -0.2742 -0.5918
   39CHL1  H26B 2881   4.484   5.759   8.210 -0.4464  4.1280  0.0133
   39CHL1  H26C 2882   4.613   5.774   8.322  0.4390  0.9131 -0.6181
   39CHL1   C27 2883   4.602   5.514   8.212 -0.3156 -0.1430  0.0416
   39CHL1  H27A 2884   4.597   5.535   8.321  0.9873  1.6838 -0.2190
   39CHL1  H27B 2885   4.499   5.504   8.171 -1.0784 -0.1095  1.8284
   39CHL1  H27C 2886   4.662   5.424   8.187 -0.6154 -1.0279  2.2069
   40CHL1    C3 2887   0.840   4.138   6.850  0.6740  0.4553 -0.0663
   40CHL1    H3 2888   0.731   4.152   6.870  0.0601 -1.5019 -1.6443
   40CHL1    O3 2889   0.852   4.148   6.709 -0.5660 -0.1882 -0.3248
   40CHL1   H3' 2890   0.801   4.073   6.678  0.5145 -0.3922 -1.6752
   40CHL1    C4 2891   0.904   4.259   6.925  0.1472  0.2029 -0.0983
   40CHL1   H4A 2892   1.007   4.268   6.884  0.9205  0.6714  1.8020
   40CHL1   H4B 2893   0.842   4.347   6.899  1.2345  0.8486 -0.5827
   40CHL1    C5 2894   0.912   4.244   7.082  0.1031 -0.2033  0.0439
   40CHL1    C6 2895   0.876   4.344   7.164 -0.3728 -0.7800 -0.8265
   40CHL1    H6 2896   0.844   4.441   7.122  0.5023  0.3828  1.0829
   40CHL1    C7 2897   0.892   4.341   7.311  0.5070  0.4666  0.4289
   40CHL1   H7A 2898   0.945   4.425   7.361 -2.0875  0.8315  2.7806
   40CHL1   H7B 2899   0.795   4.339   7.364  0.1540  0.5495 -0.2023
   40CHL1    C8 2900   0.973   4.214   7.361  0.6145  0.2985 -0.5840
   40CHL1    H8 2901   1.078   4.240   7.334  0.1984  0.1042 -2.4629
   40CHL1   C14 2902   0.928   4.184   7.505 -0.0811  0.4726  0.1229
   40CHL1   H14 2903   0.819   4.161   7.495  0.5891 -2.8628 -0.5113
   40CHL1   C15 2904   0.939   4.298   7.613  0.2279  0.5229 -0.4996
   40CHL1  H15A 2905   1.038   4.347   7.622  1.0195 -1.1080  0.1245
   40CHL1  H15B 2906   0.867   4.381   7.596 -0.7393 -0.5372 -1.8466
   40CHL1   C16 2907   0.923   4.219   7.746  0.2346  0.9638 -0.5719
   40CHL1  H16A 2908   0.995   4.248   7.826  1.8068 -0.1586 -1.5449
   40CHL1  H16B 2909   0.821   4.249   7.780 -0.6066 -1.9189 -0.3269
   40CHL1   C17 2910   0.932   4.068   7.709  0.5560  0.5636  0.3512
   40CHL1   H17 2911   0.827   4.035   7.693  1.4617 -2.5525 -0.0145
   40CHL1   C13 2912   0.987   4.054   7.569 -1.0967  0.5132 -0.6225
   40CHL1   C18 2913   1.145   4.058   7.576  0.3828  0.5185  0.3737
   40CHL1  H18A 2914   1.185   3.955   7.583  0.0488  0.3044 -0.8119
   40CHL1  H18B 2915   1.185   4.102   7.482  1.1270  0.9896  0.8965
   40CHL1  H18C 2916   1.179   4.119   7.663  0.7640  0.7049  0.0988
   40CHL1   C12 2917   0.941   3.931   7.491  0.4244 -0.0023  0.4280
   40CHL1  H12A 2918   0.988   3.836   7.525  0.6942  0.3125  0.9457
   40CHL1  H12B 2919   0.833   3.919   7.511  0.2661 -0.3351 -0.5634
   40CHL1   C11 2920   0.962   3.952   7.341  0.4453  0.0115  0.4459
   40CHL1  H11A 2921   1.070   3.927   7.327  0.0653 -1.2807 -0.3888
   40CHL1  H11B 2922   0.904   3.871   7.292  1.8807 -0.5409 -0.4217
   40CHL1    C9 2923   0.929   4.092   7.279 -0.4389 -0.3971 -0.4869
   40CHL1    H9 2924   0.818   4.100   7.279 -0.3193  2.7797 -1.2677
   40CHL1   C10 2925   0.962   4.105   7.125  0.0831 -0.1737 -0.4381
   40CHL1   C19 2926   1.110   4.077   7.121  0.6959 -0.1596  0.4654
   40CHL1  H19A 2927   1.146   3.989   7.178  0.4827  0.0239  0.8876
   40CHL1  H19B 2928   1.141   4.053   7.017 -1.7915 -2.6050  0.1853
   40CHL1  H19C 2929   1.169   4.165   7.157 -2.9270  1.7978  2.1084
   40CHL1    C1 2930   0.893   3.992   7.047  0.3579  0.2899  0.6878
   40CHL1   H1A 2931   0.944   3.897   7.074  0.2487  0.6191  2.1204
   40CHL1   H1B 2932   0.790   3.985   7.089  1.6225 -1.9077  3.8505
   40CHL1    C2 2933   0.899   4.007   6.896 -0.6729  0.2577  0.0281
   40CHL1   H2A 2934   0.837   3.925   6.853 -0.1376 -1.2519  2.0227
   40CHL1   H2B 2935   1.003   3.997   6.858 -0.7983 -2.2919  0.2294
   40CHL1   C20 2936   0.985   3.986   7.824  0.2500  0.5228  0.0256
   40CHL1   H20 2937   1.089   4.018   7.842 -0.2689  2.0303  0.4553
   40CHL1   C21 2938   0.992   3.842   7.785  0.2721  0.0882  0.5768
   40CHL1  H21A 2939   0.892   3.815   7.744 -0.2022  0.8519  1.2148
   40CHL1  H21B 2940   1.009   3.782   7.877  0.5087  1.9876  1.8166
   40CHL1  H21C 2941   1.077   3.826   7.715  0.8412  0.6732  1.1193
   40CHL1   C22 2942   0.895   4.000   7.947 -0.3307  0.3571 -0.3750
   40CHL1  H22A 2943   0.845   4.099   7.944 -1.6109 -0.2913 -1.2157
   40CHL1  H22B 2944   0.810   3.929   7.944  0.1607 -0.2097 -1.1657
   40CHL1   C23 2945   0.963   3.980   8.083 -0.4597  0.1961  0.1443
   40CHL1  H23A 2946   0.890   3.993   8.167 -0.6133  2.0236 -0.2329
   40CHL1  H23B 2947   0.991   3.872   8.081  1.4848  0.6564  0.7582
   40CHL1   C24 2948   1.093   4.053   8.114 -0.5592 -0.2894 -0.2074
   40CHL1  H24A 2949   1.172   4.046   8.036  2.2406  0.2043  2.4184
   40CHL1  H24B 2950   1.062   4.158   8.094  0.3768  0.0840  0.2193
   40CHL1   C25 2951   1.141   4.030   8.257  0.4400  0.7300  0.3536
   40CHL1   H25 2952   1.051   4.038   8.322  1.3902  1.0550  1.6669
   40CHL1   C26 2953   1.194   3.884   8.265  0.2660 -0.2667  0.5000
   40CHL1  H26A 2954   1.241   3.872   8.365  2.2558 -0.1678 -0.3614
   40CHL1  H26B 2955   1.114   3.808   8.258  0.9816 -1.0303  0.4726
   40CHL1  H26C 2956   1.264   3.863   8.180  0.2161 -2.8578  1.0209
   40CHL1   C27 2957   1.235   4.142   8.309 -0.5038 -0.1623  0.3631
   40CHL1  H27A 2958   1.179   4.235   8.332  1.1154  0.8813  0.2889
   40CHL1  H27B 2959   1.289   4.107   8.399  0.7819  1.8232  0.4374
   40CHL1  H27C 2960   1.313   4.165   8.233  0.1207  0.6119  1.2109
   41CHL1    C3 2961   1.284   3.590   6.974 -0.4338  0.9897  0.2388
   41CHL1    H3 2962   1.393   3.571   6.965 -1.1589 -2.9640 -2.7541
   41CHL1    O3 2963   1.232   3.589   6.844 -0.0786 -0.6091  0.7448
   41CHL1   H3' 2964   1.224   3.683   6.829  0.2633 -0.4493  1.5074
   41CHL1    C4 2965   1.217   3.462   7.039  1.1924 -0.1136  0.6786
   41CHL1   H4A 2966   1.107   3.472   7.035  0.9427 -2.5508 -0.1270
   41CHL1   H4B 2967   1.231   3.372   6.975 -0.3570  0.7485 -0.9537
   41CHL1    C5 2968   1.246   3.440   7.177  0.3560 -0.7621  0.8345
   41CHL1    C6 2969   1.303   3.327   7.222 -0.1939 -0.1296 -0.5794
   41CHL1    H6 2970   1.310   3.248   7.146 -2.4967  0.0144 -1.0161
   41CHL1    C7 2971   1.328   3.301   7.370  0.6885 -0.4068  0.0591
   41CHL1   H7A 2972   1.294   3.199   7.396  0.5806 -0.9927 -2.1579
   41CHL1   H7B 2973   1.437   3.308   7.390  0.3204  1.8228  1.5984
   41CHL1    C8 2974   1.260   3.402   7.464 -0.1064  0.0736  0.0393
   41CHL1    H8 2975   1.153   3.374   7.473 -0.2143 -0.9222 -3.0616
   41CHL1   C14 2976   1.321   3.399   7.602 -0.0628 -0.6937 -0.1618
   41CHL1   H14 2977   1.430   3.419   7.587 -0.3254  0.8489 -0.2055
   41CHL1   C15 2978   1.315   3.262   7.679  0.0747 -0.1948 -0.0165
   41CHL1  H15A 2979   1.208   3.236   7.671 -0.2165  0.8805  0.3305
   41CHL1  H15B 2980   1.371   3.177   7.633 -0.6862 -1.6833  1.7030
   41CHL1   C16 2981   1.363   3.296   7.820 -0.2458  0.0284 -0.3227
   41CHL1  H16A 2982   1.311   3.234   7.895  0.6252  0.1448  0.3878
   41CHL1  H16B 2983   1.472   3.282   7.837 -0.4606 -0.0809  1.0693
   41CHL1   C17 2984   1.342   3.456   7.830 -0.3229 -0.3533  0.1883
   41CHL1   H17 2985   1.440   3.508   7.818 -1.1333  1.0251 -0.7141
   41CHL1   C13 2986   1.264   3.500   7.703  0.4385 -0.4507 -0.0219
   41CHL1   C18 2987   1.107   3.484   7.718 -0.4608 -0.4707  0.4146
   41CHL1  H18A 2988   1.072   3.386   7.758 -1.1839 -0.5211 -0.3150
   41CHL1  H18B 2989   1.075   3.569   7.781  0.6909 -0.1213  0.5466
   41CHL1  H18C 2990   1.065   3.504   7.617 -0.4099 -1.2461  0.2314
   41CHL1   C12 2991   1.300   3.635   7.650 -0.7461 -0.2098 -0.2114
   41CHL1  H12A 2992   1.254   3.723   7.701 -1.4704 -0.5579 -0.2569
   41CHL1  H12B 2993   1.411   3.633   7.646 -0.6866 -3.6126  0.4055
   41CHL1   C11 2994   1.244   3.655   7.509 -0.5201 -0.1028 -0.3640
   41CHL1  H11A 2995   1.136   3.679   7.516 -0.1688  1.4282  0.1136
   41CHL1  H11B 2996   1.280   3.753   7.472 -1.1639 -0.2333 -1.3851
   41CHL1    C9 2997   1.277   3.546   7.402  1.0477 -0.1074 -0.2861
   41CHL1    H9 2998   1.382   3.561   7.371 -0.0024  1.0471 -3.6829
   41CHL1   C10 2999   1.214   3.568   7.262 -0.7087 -0.8094 -0.0112
   41CHL1   C19 3000   1.064   3.573   7.289 -0.0889 -0.1624 -0.2847
   41CHL1  H19A 3001   1.034   3.668   7.339 -1.8783 -0.6514 -0.3366
   41CHL1  H19B 3002   1.025   3.568   7.185  0.4067 -2.0094 -0.4173
   41CHL1  H19C 3003   1.028   3.479   7.336  0.0806  0.5914  1.4253
   41CHL1    C1 3004   1.270   3.700   7.200 -0.1570 -0.3131  0.5057
   41CHL1   H1A 3005   1.236   3.792   7.252 -1.8318 -1.1076  0.8744
   41CHL1   H1B 3006   1.381   3.695   7.202 -0.1329 -0.8628 -0.9125
   41CHL1    C2 3007   1.245   3.714   7.053  0.4538 -0.0718  0.7238
   41CHL1   H2A 3008   1.297   3.797   7.001 -1.4587  0.6962 -0.0612
   41CHL1   H2B 3009   1.137   3.739   7.038  0.6794  0.2231 -0.5262
   41CHL1   C20 3010   1.283   3.487   7.976  0.3207 -0.6430  0.6696
   41CHL1   H20 3011   1.187   3.433   7.986  0.1199 -0.3591  0.2777
   41CHL1   C21 3012   1.272   3.642   7.989  0.1930 -0.1650 -0.9314
   41CHL1  H21A 3013   1.223   3.650   8.088  1.3445 -2.0386 -0.1395
   41CHL1  H21B 3014   1.207   3.681   7.909 -0.6860 -1.6410 -0.9813
   41CHL1  H21C 3015   1.374   3.685   7.983  0.7547 -1.2276  0.2859
   41CHL1   C22 3016   1.371   3.430   8.086  0.6360 -0.0054  0.0987
   41CHL1  H22A 3017   1.405   3.326   8.066 -0.1639  0.2948 -3.7230
   41CHL1  H22B 3018   1.465   3.489   8.093  2.4830 -2.6793 -0.7109
   41CHL1   C23 3019   1.292   3.437   8.221 -0.4070  0.2363 -0.3902
   41CHL1  H23A 3020   1.273   3.543   8.250  0.4308  0.1825  0.3878
   41CHL1  H23B 3021   1.196   3.385   8.200  0.1356  0.2658 -3.3041
   41CHL1   C24 3022   1.366   3.382   8.342  0.1622  0.3582  0.6455
   41CHL1  H24A 3023   1.387   3.274   8.332  0.4798  0.4026  0.8083
   41CHL1  H24B 3024   1.466   3.428   8.360  1.2347 -0.9802 -1.5753
   41CHL1   C25 3025   1.302   3.387   8.481  0.5408  0.3983 -0.3060
   41CHL1   H25 3026   1.356   3.316   8.549 -2.2921 -2.3604 -0.7019
   41CHL1   C26 3027   1.297   3.526   8.543 -0.7467 -0.5881  0.5023
   41CHL1  H26A 3028   1.260   3.598   8.468  3.3143  0.5818 -0.6410
   41CHL1  H26B 3029   1.228   3.529   8.630 -0.9407  2.4169  0.3224
   41CHL1  H26C 3030   1.402   3.547   8.574 -0.8222 -2.2420  2.0745
   41CHL1   C27 3031   1.154   3.339   8.492 -0.5872  0.1545  0.1267
   41CHL1  H27A 3032   1.080   3.418   8.465  0.1053  0.7988  0.0808
   41CHL1  H27B 3033   1.136   3.251   8.427 -3.3859  0.5517  0.2151
   41CHL1  H27C 3034   1.128   3.310   8.596 -0.5203 -0.3741 -0.0001
   42CHL1    C3 3035   2.101   0.840   6.996 -0.5762  0.0217 -0.1447
   42CHL1    H3 3036   2.185   0.883   7.056  2.8060 -4.1430 -1.3802
   42CHL1    O3 3037   2.176   0.822   6.881  0.2194 -0.4948 -0.0603
   42CHL1   H3' 3038   2.130   0.756   6.829  0.2777  0.8974 -1.9607
   42CHL1    C4 3039   2.067   0.702   7.070  0.5324  0.3315  0.3599
   42CHL1   H4A 3040   2.002   0.655   6.992  0.4197 -0.3189  0.8331
   42CHL1   H4B 3041   2.159   0.641   7.062  1.4107  1.8460 -5.0934
   42CHL1    C5 3042   1.989   0.720   7.192  0.1370  0.5560 -0.2158
   42CHL1    C6 3043   2.027   0.668   7.315  1.1142  0.5769  0.2506
   42CHL1    H6 3044   2.122   0.616   7.332  0.6617 -0.4770 -0.3121
   42CHL1    C7 3045   1.931   0.665   7.433 -0.0938  0.0678  0.1762
   42CHL1   H7A 3046   1.942   0.570   7.488  1.2370  1.9021  3.3606
   42CHL1   H7B 3047   1.968   0.749   7.496 -2.2848  0.5545  0.8882
   42CHL1    C8 3048   1.782   0.693   7.399 -0.4063  0.1392  0.8057
   42CHL1    H8 3049   1.742   0.600   7.354  2.7358 -1.1673  0.5251
   42CHL1   C14 3050   1.702   0.722   7.524  0.1038 -0.3846  0.1937
   42CHL1   H14 3051   1.752   0.809   7.572 -0.0906 -0.1325 -0.0616
   42CHL1   C15 3052   1.703   0.613   7.623 -0.1806  0.1566  0.5471
   42CHL1  H15A 3053   1.692   0.513   7.578  2.4426 -0.0544  0.2651
   42CHL1  H15B 3054   1.803   0.621   7.670  0.1541 -0.6110 -0.0156
   42CHL1   C16 3055   1.595   0.654   7.714  0.0122  0.0125  0.2113
   42CHL1  H16A 3056   1.540   0.564   7.751 -1.0363  1.7874  3.4365
   42CHL1  H16B 3057   1.634   0.696   7.810 -0.3098 -0.6716  0.6556
   42CHL1   C17 3058   1.504   0.766   7.644  0.0007 -0.4852 -0.7865
   42CHL1   H17 3059   1.538   0.862   7.687 -0.7153 -0.9604  0.9295
   42CHL1   C13 3060   1.557   0.767   7.496 -0.3197 -1.0030 -0.5421
   42CHL1   C18 3061   1.480   0.664   7.416 -0.2172 -0.6038 -0.3139
   42CHL1  H18A 3062   1.525   0.620   7.325 -1.8822 -0.4804 -1.2288
   42CHL1  H18B 3063   1.428   0.585   7.476  0.2500 -0.6259  0.0748
   42CHL1  H18C 3064   1.391   0.716   7.376 -0.8158 -0.0121  1.6776
   42CHL1   C12 3065   1.557   0.903   7.425 -0.5461 -0.2357  0.4171
   42CHL1  H12A 3066   1.455   0.944   7.404 -0.8028 -1.2385 -0.3740
   42CHL1  H12B 3067   1.614   0.983   7.476 -0.3594 -0.8296  1.1489
   42CHL1   C11 3068   1.630   0.878   7.287  0.0025  0.0347  0.1790
   42CHL1  H11A 3069   1.570   0.818   7.215  1.8062  0.0554 -1.4325
   42CHL1  H11B 3070   1.649   0.972   7.230 -0.2271  0.5025  0.8653
   42CHL1    C9 3071   1.772   0.810   7.296 -0.0057 -0.1564 -0.0640
   42CHL1    H9 3072   1.833   0.883   7.354  1.7811 -2.3189  0.9055
   42CHL1   C10 3073   1.852   0.789   7.160  0.1740 -0.3919  0.4468
   42CHL1   C19 3074   1.762   0.686   7.077  0.3407  0.4481  0.5421
   42CHL1  H19A 3075   1.735   0.598   7.139  0.4044  0.6815  0.9103
   42CHL1  H19B 3076   1.665   0.727   7.040  1.1827  1.5319 -0.5488
   42CHL1  H19C 3077   1.814   0.660   6.983 -0.3104 -1.9239  0.7651
   42CHL1    C1 3078   1.880   0.923   7.093  0.0436 -0.1767  0.4435
   42CHL1   H1A 3079   1.785   0.967   7.055  1.0140  0.7596 -0.9509
   42CHL1   H1B 3080   1.911   1.000   7.167  3.0356 -0.9858  0.1440
   42CHL1    C2 3081   1.978   0.922   6.971  0.4379  0.1868  0.2704
   42CHL1   H2A 3082   1.989   1.021   6.923  1.9519  0.3171  0.8413
   42CHL1   H2B 3083   1.920   0.869   6.893  0.5103  0.5719 -0.0481
   42CHL1   C20 3084   1.360   0.752   7.686 -0.6715 -0.5320 -0.4805
   42CHL1   H20 3085   1.320   0.661   7.637  1.2402 -1.5447 -0.2560
   42CHL1   C21 3086   1.283   0.865   7.620 -0.0165  0.3186  0.7991
   42CHL1  H21A 3087   1.311   0.873   7.513 -0.0599 -0.3282  0.7309
   42CHL1  H21B 3088   1.308   0.965   7.661 -1.0323 -0.0016  2.2810
   42CHL1  H21C 3089   1.175   0.854   7.640 -0.0626 -0.1400  0.3321
   42CHL1   C22 3090   1.348   0.747   7.842 -0.1300  0.1759  0.2583
   42CHL1  H22A 3091   1.371   0.647   7.882 -0.9372 -0.2726 -0.3713
   42CHL1  H22B 3092   1.424   0.820   7.877 -0.0863  1.1046 -1.5976
   42CHL1   C23 3093   1.213   0.797   7.904  0.3861  0.0689 -0.3056
   42CHL1  H23A 3094   1.235   0.803   8.013 -0.0073  0.1394 -0.2311
   42CHL1  H23B 3095   1.186   0.899   7.870  0.3549  0.3137  0.4462
   42CHL1   C24 3096   1.097   0.702   7.898  0.6482  0.7830 -0.4964
   42CHL1  H24A 3097   1.057   0.694   7.794  0.1899 -0.3917 -0.2448
   42CHL1  H24B 3098   1.138   0.602   7.920  0.4750  0.7242 -0.4381
   42CHL1   C25 3099   0.990   0.731   7.998 -0.5849 -0.9035 -0.0750
   42CHL1   H25 3100   0.960   0.836   7.978  1.1528 -0.2713  0.4147
   42CHL1   C26 3101   0.873   0.632   7.964  0.0749 -0.4899  0.3499
   42CHL1  H26A 3102   0.908   0.527   7.981 -0.5442 -0.4379  2.2557
   42CHL1  H26B 3103   0.781   0.641   8.026  1.2643  1.8480  1.9254
   42CHL1  H26C 3104   0.843   0.639   7.858  0.0479 -2.7062  0.1565
   42CHL1   C27 3105   1.036   0.727   8.147  0.2473 -0.3543  0.1438
   42CHL1  H27A 3106   1.060   0.622   8.174 -0.5012  0.1445  3.1266
   42CHL1  H27B 3107   0.943   0.751   8.204  0.5863 -2.8314  1.8890
   42CHL1  H27C 3108   1.121   0.798   8.162  1.1688 -1.1104 -1.3188
   43CHL1    C3 3109   1.615   5.724   7.082  0.4851  0.5477 -1.0884
   43CHL1    H3 3110   1.513   5.751   7.116  0.2925 -0.9642 -0.4002
   43CHL1    O3 3111   1.647   5.761   6.950  0.5291  0.7548 -0.5909
   43CHL1   H3' 3112   1.601   5.702   6.889  0.4027  0.0080  0.2032
   43CHL1    C4 3113   1.709   5.797   7.182  0.3138  0.3767 -0.0270
   43CHL1   H4A 3114   1.814   5.798   7.147  1.5852 -0.5184  3.3293
   43CHL1   H4B 3115   1.684   5.905   7.170 -2.8538 -0.4812 -2.4066
   43CHL1    C5 3116   1.695   5.756   7.327 -0.1676  0.1754 -0.0030
   43CHL1    C6 3117   1.683   5.840   7.430  0.5203  0.2010  0.5290
   43CHL1    H6 3118   1.687   5.949   7.420 -2.3416  0.2461 -1.2530
   43CHL1    C7 3119   1.673   5.790   7.572 -0.5494 -0.1790 -0.1181
   43CHL1   H7A 3120   1.727   5.864   7.635  0.0045 -1.6932  1.2441
   43CHL1   H7B 3121   1.566   5.789   7.602 -0.8739 -1.6392 -1.1873
   43CHL1    C8 3122   1.728   5.647   7.592 -0.4148 -0.1603 -0.2629
   43CHL1    H8 3123   1.838   5.643   7.581 -0.3250  0.8412  0.0842
   43CHL1   C14 3124   1.697   5.592   7.729  0.2755 -0.0703 -0.5489
   43CHL1   H14 3125   1.587   5.584   7.740  0.5370 -2.9025  0.8674
   43CHL1   C15 3126   1.732   5.675   7.857 -0.4193 -0.6605  1.4525
   43CHL1  H15A 3127   1.838   5.705   7.845  0.0845 -2.1635  1.8621
   43CHL1  H15B 3128   1.662   5.761   7.861 -0.9261 -1.0879  2.0989
   43CHL1   C16 3129   1.725   5.573   7.971  0.2802 -0.3392  0.2966
   43CHL1  H16A 3130   1.820   5.583   8.027 -0.7093  1.3080  1.7502
   43CHL1  H16B 3131   1.638   5.602   8.034  1.2208  1.8036  0.6626
   43CHL1   C17 3132   1.706   5.431   7.907 -0.3560  0.3427 -0.4009
   43CHL1   H17 3133   1.598   5.407   7.902 -0.1649 -0.8857  0.8374
   43CHL1   C13 3134   1.747   5.451   7.765 -0.5355  0.4330  0.5290
   43CHL1   C18 3135   1.900   5.435   7.743 -0.8444  0.0327 -0.2781
   43CHL1  H18A 3136   1.927   5.475   7.643 -1.2728  1.5735  0.2029
   43CHL1  H18B 3137   1.962   5.494   7.814 -1.3110 -0.2857  0.4066
   43CHL1  H18C 3138   1.937   5.330   7.747  1.7485  0.8667 -0.2153
   43CHL1   C12 3139   1.673   5.359   7.670  0.2317  0.4880  0.0343
   43CHL1  H12A 3140   1.722   5.260   7.683  2.3051  1.5479  0.7237
   43CHL1  H12B 3141   1.564   5.365   7.687 -0.4332 -3.8425 -1.4709
   43CHL1   C11 3142   1.692   5.410   7.526  0.0283  0.3633 -0.1187
   43CHL1  H11A 3143   1.798   5.392   7.497  0.1713 -0.1333  0.6703
   43CHL1  H11B 3144   1.641   5.343   7.454 -0.9171 -0.1234  0.9661
   43CHL1    C9 3145   1.662   5.558   7.492  0.1317 -0.9944 -0.1902
   43CHL1    H9 3146   1.552   5.571   7.506 -0.1366 -2.6443 -0.5476
   43CHL1   C10 3147   1.703   5.607   7.344  0.6975 -0.3704  0.2571
   43CHL1   C19 3148   1.849   5.570   7.307  0.1022 -0.6374  0.5926
   43CHL1  H19A 3149   1.847   5.459   7.295 -0.3011 -0.6761  0.9896
   43CHL1  H19B 3150   1.880   5.613   7.210 -1.7862 -0.0403  0.2294
   43CHL1  H19C 3151   1.930   5.586   7.382  0.1781 -2.5571  0.9803
   43CHL1    C1 3152   1.609   5.537   7.243 -0.0885  0.0788  0.2360
   43CHL1   H1A 3153   1.626   5.428   7.254  0.2393 -0.0196 -1.0548
   43CHL1   H1B 3154   1.504   5.566   7.267  0.6314  0.9458  2.6332
   43CHL1    C2 3155   1.614   5.572   7.097 -0.4443 -0.5542  0.1573
   43CHL1   H2A 3156   1.523   5.535   7.045 -2.4784  3.3952  0.5018
   43CHL1   H2B 3157   1.708   5.531   7.053 -1.0431 -0.0065 -1.6984
   43CHL1   C20 3158   1.769   5.323   7.989 -0.1693  0.0902 -1.0869
   43CHL1   H20 3159   1.880   5.331   7.982  0.0782 -2.3248 -0.9376
   43CHL1   C21 3160   1.738   5.182   7.942  0.3584 -0.0442 -0.3111
   43CHL1  H21A 3161   1.767   5.108   8.019 -0.4117 -1.4540 -1.3278
   43CHL1  H21B 3162   1.784   5.142   7.849  1.9824  0.8017  0.1029
   43CHL1  H21C 3163   1.627   5.180   7.938  0.3007  2.2278 -2.5187
   43CHL1   C22 3164   1.738   5.335   8.140  0.1817  0.8162 -0.0098
   43CHL1  H22A 3165   1.793   5.269   8.211 -2.3413  0.4918  1.7547
   43CHL1  H22B 3166   1.777   5.435   8.170  0.1521  0.6380  0.6405
   43CHL1   C23 3167   1.588   5.347   8.170  0.8197 -0.3198  0.3896
   43CHL1  H23A 3168   1.539   5.436   8.124  0.4906 -0.7646 -0.1237
   43CHL1  H23B 3169   1.530   5.258   8.139 -0.5328  0.7681 -0.3372
   43CHL1   C24 3170   1.559   5.363   8.320 -0.0195 -0.1859  0.0747
   43CHL1  H24A 3171   1.583   5.261   8.358 -1.5463 -1.1225 -1.3272
   43CHL1  H24B 3172   1.617   5.445   8.367 -1.7791  0.2449  1.6027
   43CHL1   C25 3173   1.407   5.386   8.346  0.2544 -0.7183  0.0057
   43CHL1   H25 3174   1.362   5.323   8.267  0.2652 -0.0449 -0.5493
   43CHL1   C26 3175   1.362   5.323   8.481 -0.8579 -1.1903  0.4148
   43CHL1  H26A 3176   1.402   5.220   8.493  1.9798 -0.2971 -0.4793
   43CHL1  H26B 3177   1.386   5.388   8.568 -3.0115  2.3081 -1.3645
   43CHL1  H26C 3178   1.251   5.316   8.480 -1.1415  1.9412 -0.5906
   43CHL1   C27 3179   1.375   5.533   8.323  0.2742 -0.4635 -0.1755
   43CHL1  H27A 3180   1.424   5.603   8.394  2.3596  1.1707 -2.9798
   43CHL1  H27B 3181   1.413   5.555   8.220 -1.3025  2.1740 -0.3026
   43CHL1  H27C 3182   1.265   5.546   8.322  0.3557  0.3094 -1.2635
   44CHL1    C3 3183   1.800   3.705   6.816  0.8461 -0.6110  0.3585
   44CHL1    H3 3184   1.865   3.619   6.845  0.8602  0.3054  3.4280
   44CHL1    O3 3185   1.771   3.705   6.672  0.5722 -0.9138  0.2606
   44CHL1   H3' 3186   1.840   3.764   6.639 -1.3267  0.4987 -1.4448
   44CHL1    C4 3187   1.662   3.672   6.883  0.8199 -0.9183  0.0677
   44CHL1   H4A 3188   1.589   3.753   6.861  0.7846 -1.5207 -2.4459
   44CHL1   H4B 3189   1.628   3.579   6.831  0.3991 -0.4916 -0.4386
   44CHL1    C5 3190   1.681   3.652   7.027  0.3032 -0.4246  0.1904
   44CHL1    C6 3191   1.638   3.541   7.085  0.9340  0.6352  0.1434
   44CHL1    H6 3192   1.574   3.473   7.028  1.1232  1.4227 -1.0424
   44CHL1    C7 3193   1.659   3.501   7.229  0.1783 -0.6493  0.5079
   44CHL1   H7A 3194   1.561   3.471   7.271  0.0193  0.1393  0.7090
   44CHL1   H7B 3195   1.732   3.417   7.235  0.8136 -0.0528  1.3581
   44CHL1    C8 3196   1.712   3.623   7.307 -0.4910 -0.6461 -0.3856
   44CHL1    H8 3197   1.622   3.686   7.324 -1.9569 -2.5641 -0.6463
   44CHL1   C14 3198   1.766   3.572   7.440  0.3322  0.9895  0.5805
   44CHL1   H14 3199   1.864   3.525   7.417  0.9037  2.7508 -0.7516
   44CHL1   C15 3200   1.697   3.456   7.522  0.4207  0.5751 -0.2781
   44CHL1  H15A 3201   1.593   3.492   7.540 -0.4915 -0.4929 -2.8718
   44CHL1  H15B 3202   1.690   3.352   7.483 -3.6930  0.7540 -0.4411
   44CHL1   C16 3203   1.754   3.469   7.662 -0.6730  0.5740 -0.6054
   44CHL1  H16A 3204   1.667   3.474   7.731 -0.5749 -1.7697 -0.2295
   44CHL1  H16B 3205   1.808   3.373   7.681  0.2044  0.9315 -1.2743
   44CHL1   C17 3206   1.853   3.591   7.662  0.5998 -0.4826  0.3807
   44CHL1   H17 3207   1.948   3.546   7.624  0.1634 -0.2222 -1.1069
   44CHL1   C13 3208   1.800   3.673   7.539  0.4443  0.4807  0.1318
   44CHL1   C18 3209   1.686   3.759   7.585 -0.8437  0.2035  0.1374
   44CHL1  H18A 3210   1.730   3.846   7.637 -1.4251  0.3526  0.3907
   44CHL1  H18B 3211   1.631   3.793   7.495  0.0315  1.8230  0.1856
   44CHL1  H18C 3212   1.611   3.713   7.654 -0.1302 -1.0852  0.0870
   44CHL1   C12 3213   1.909   3.766   7.472  0.1471  0.8958  1.5296
   44CHL1  H12A 3214   1.922   3.852   7.542 -0.6103  0.8658  1.7103
   44CHL1  H12B 3215   2.003   3.707   7.462 -0.5552  0.1443 -1.3440
   44CHL1   C11 3216   1.860   3.825   7.333 -0.0247  0.1439 -0.2160
   44CHL1  H11A 3217   1.767   3.886   7.345  0.1932  0.9488 -2.2189
   44CHL1  H11B 3218   1.933   3.893   7.284 -0.5279  1.1965  0.4508
   44CHL1    C9 3219   1.817   3.713   7.235  0.0236 -0.6646 -0.0433
   44CHL1    H9 3220   1.905   3.649   7.216 -0.4839 -1.5729  0.5583
   44CHL1   C10 3221   1.766   3.759   7.094  0.2843 -0.4469 -0.1735
   44CHL1   C19 3222   1.658   3.876   7.108  0.0575 -0.2399  0.0965
   44CHL1  H19A 3223   1.700   3.973   7.139 -4.0648  1.3434  1.5010
   44CHL1  H19B 3224   1.606   3.912   7.016 -0.4977  0.5467  0.7085
   44CHL1  H19C 3225   1.584   3.848   7.186 -0.3940 -0.6193 -0.4554
   44CHL1    C1 3226   1.884   3.818   7.013 -0.7862 -0.1854  0.4346
   44CHL1   H1A 3227   1.922   3.911   7.060  1.2281 -0.9286  0.3649
   44CHL1   H1B 3228   1.971   3.749   7.015 -1.8228 -1.5339  2.1251
   44CHL1    C2 3229   1.852   3.844   6.868 -0.0145  0.4594 -0.7929
   44CHL1   H2A 3230   1.947   3.869   6.815  1.0797  1.5891  1.5630
   44CHL1   H2B 3231   1.778   3.925   6.848  1.3819  1.3247 -2.8104
   44CHL1   C20 3232   1.875   3.652   7.795 -0.4809  0.5461 -0.8173
   44CHL1   H20 3233   1.778   3.683   7.840  0.4888  0.6957  1.2983
   44CHL1   C21 3234   1.970   3.773   7.787 -0.2711  0.4784  0.0197
   44CHL1  H21A 3235   2.049   3.764   7.710  0.7785  2.2546  0.8212
   44CHL1  H21B 3236   2.009   3.787   7.891  0.9430 -2.1967 -0.0043
   44CHL1  H21C 3237   1.907   3.862   7.766 -2.1189  0.1588  3.3881
   44CHL1   C22 3238   1.923   3.548   7.900 -0.0187  0.3327 -0.2949
   44CHL1  H22A 3239   1.882   3.448   7.875  0.5338 -0.3707  1.4971
   44CHL1  H22B 3240   2.034   3.547   7.906 -0.0068  2.4035  1.0207
   44CHL1   C23 3241   1.865   3.569   8.044  0.2490 -0.7536 -0.0890
   44CHL1  H23A 3242   1.893   3.675   8.060  0.8482 -1.0724  1.0689
   44CHL1  H23B 3243   1.755   3.559   8.035  0.1492  0.2076  0.0084
   44CHL1   C24 3244   1.909   3.462   8.142 -0.1956  0.1091  0.0104
   44CHL1  H24A 3245   1.845   3.373   8.126  0.2112 -0.3627  0.9340
   44CHL1  H24B 3246   2.018   3.442   8.129  0.3863  2.3090  1.0435
   44CHL1   C25 3247   1.891   3.496   8.293 -0.0330  1.0802 -0.1265
   44CHL1   H25 3248   1.937   3.596   8.305 -0.5440  1.0977  2.1409
   44CHL1   C26 3249   1.745   3.501   8.334 -0.3827  0.1557  0.2210
   44CHL1  H26A 3250   1.693   3.404   8.324  1.2509 -0.8498  1.0785
   44CHL1  H26B 3251   1.756   3.512   8.444  1.1671 -1.7679  0.3147
   44CHL1  H26C 3252   1.691   3.592   8.301  1.2245  1.9813  2.2660
   44CHL1   C27 3253   1.962   3.384   8.368  0.9827 -0.0162 -0.1367
   44CHL1  H27A 3254   2.066   3.372   8.331  0.6335  0.0461 -1.1541
   44CHL1  H27B 3255   1.973   3.413   8.475 -2.9687  2.1747 -0.1525
   44CHL1  H27C 3256   1.905   3.289   8.364 -0.8490  0.9942  0.7565
   45CHL1    C3 3257   4.056   1.776   6.885 -0.5162 -0.5271 -0.4663
   45CHL1    H3 3258   3.953   1.746   6.853 -1.0456  0.8761 -0.1149
   45CHL1    O3 3259   4.128   1.816   6.771 -0.3445 -0.2832 -0.2146
   45CHL1   H3' 3260   4.208   1.853   6.811  1.6603  0.0531 -4.0156
   45CHL1    C4 3261   4.042   1.892   6.982 -0.4558 -0.4220 -0.0431
   45CHL1   H4A 3262   4.136   1.950   6.993  0.1252 -0.8900 -2.0547
   45CHL1   H4B 3263   3.974   1.961   6.928  1.0287  0.9963 -0.1738
   45CHL1    C5 3264   3.994   1.867   7.122  0.0755  0.5477 -0.0415
   45CHL1    C6 3265   3.889   1.930   7.176  0.1467  0.0248  0.4691
   45CHL1    H6 3266   3.841   2.009   7.115 -1.7934 -0.7594  0.9163
   45CHL1    C7 3267   3.845   1.908   7.324  0.9821  0.3453 -0.2837
   45CHL1   H7A 3268   3.819   2.005   7.372 -1.7427 -0.1168 -0.7089
   45CHL1   H7B 3269   3.752   1.850   7.308  1.3050 -0.2974  0.1210
   45CHL1    C8 3270   3.946   1.822   7.406  0.4357  0.7514 -0.0164
   45CHL1    H8 3271   4.039   1.878   7.431  0.6046 -0.4463  2.2641
   45CHL1   C14 3272   3.889   1.779   7.538 -0.0416  0.4570 -0.1423
   45CHL1   H14 3273   3.802   1.722   7.501  0.5752 -0.8221  0.2932
   45CHL1   C15 3274   3.829   1.886   7.638 -0.0470  1.5040  0.6565
   45CHL1  H15A 3275   3.899   1.972   7.649  0.7827  0.8682  0.4398
   45CHL1  H15B 3276   3.728   1.909   7.597  0.4696  2.3977 -0.1576
   45CHL1   C16 3277   3.816   1.803   7.766 -0.0479 -0.1731 -0.5978
   45CHL1  H16A 3278   3.854   1.864   7.851 -1.6082 -0.8178  0.6178
   45CHL1  H16B 3279   3.711   1.778   7.795  0.6933 -2.0118  0.7766
   45CHL1   C17 3280   3.899   1.673   7.750  1.1187 -0.0227  0.9483
   45CHL1   H17 3281   3.810   1.607   7.738  0.2637  0.6619  3.0488
   45CHL1   C13 3282   3.978   1.683   7.616 -0.5453  0.1457 -0.4340
   45CHL1   C18 3283   4.111   1.741   7.667 -0.5080  0.7460 -0.0349
   45CHL1  H18A 3284   4.081   1.825   7.733 -2.5729 -0.0752  0.1379
   45CHL1  H18B 3285   4.176   1.660   7.708  1.5168  1.3422 -1.8613
   45CHL1  H18C 3286   4.165   1.795   7.586  1.2537 -1.5165 -0.4529
   45CHL1   C12 3287   4.011   1.556   7.535  0.0246 -0.0935 -0.0233
   45CHL1  H12A 3288   4.088   1.493   7.584  1.7002  2.2783  0.5216
   45CHL1  H12B 3289   3.916   1.503   7.510 -0.5319  0.5454  0.6991
   45CHL1   C11 3290   4.070   1.601   7.399 -0.6938  0.3786 -0.1056
   45CHL1  H11A 3291   4.170   1.638   7.431 -0.0463 -1.1985 -0.2176
   45CHL1  H11B 3292   4.088   1.504   7.347 -0.7264  0.0917  0.4135
   45CHL1    C9 3293   3.997   1.702   7.318 -0.7822  0.0701  0.1137
   45CHL1    H9 3294   3.909   1.644   7.282 -0.0941 -0.7118 -0.3578
   45CHL1   C10 3295   4.063   1.745   7.188  0.5495 -0.3987  0.3860
   45CHL1   C19 3296   4.207   1.795   7.217 -0.4950 -0.3591  0.4243
   45CHL1  H19A 3297   4.272   1.713   7.251  1.9588  1.4747  0.4049
   45CHL1  H19B 3298   4.267   1.837   7.134 -0.0550 -0.4043  0.7195
   45CHL1  H19C 3299   4.212   1.875   7.294 -2.0341 -0.7152  0.9447
   45CHL1    C1 3300   4.070   1.621   7.086  0.9221 -0.0747  0.1607
   45CHL1   H1A 3301   4.130   1.540   7.133  0.9859  0.0631  0.3162
   45CHL1   H1B 3302   3.966   1.582   7.081  0.5044  0.8789  0.9738
   45CHL1    C2 3303   4.131   1.649   6.949  0.0818 -0.3030  0.2971
   45CHL1   H2A 3304   4.125   1.560   6.883  2.5732 -0.8792  0.7461
   45CHL1   H2B 3305   4.238   1.676   6.960 -0.9437  3.8281  2.0065
   45CHL1   C20 3306   3.954   1.615   7.881  0.5388  0.3825  0.1925
   45CHL1   H20 3307   4.033   1.679   7.926  2.5938 -1.9538  0.1335
   45CHL1   C21 3308   4.008   1.475   7.862 -0.2137 -0.4432  0.0559
   45CHL1  H21A 3309   3.924   1.408   7.832 -1.8099  1.8490 -0.8482
   45CHL1  H21B 3310   4.054   1.440   7.956  1.4857  0.7910 -0.2703
   45CHL1  H21C 3311   4.093   1.479   7.789  1.1776  2.8201  1.6514
   45CHL1   C22 3312   3.842   1.622   7.992  0.8354 -0.0393 -0.4204
   45CHL1  H22A 3313   3.801   1.725   8.001 -1.4562 -0.8518 -0.9085
   45CHL1  H22B 3314   3.763   1.553   7.955  1.0210  0.0716 -1.0460
   45CHL1   C23 3315   3.905   1.589   8.133 -0.4100  0.0354  0.4218
   45CHL1  H23A 3316   3.922   1.480   8.147 -3.3006 -0.3960  1.0191
   45CHL1  H23B 3317   4.002   1.645   8.139 -0.2454 -0.0504 -1.0170
   45CHL1   C24 3318   3.822   1.614   8.255  0.0656 -1.0938 -0.1759
   45CHL1  H24A 3319   3.811   1.724   8.269  1.3046 -1.0559  0.6504
   45CHL1  H24B 3320   3.720   1.572   8.245  0.5461 -2.8290  1.5940
   45CHL1   C25 3321   3.873   1.545   8.382  0.2368 -0.6004  0.2001
   45CHL1   H25 3322   3.903   1.440   8.360  0.6686 -0.1466 -1.5586
   45CHL1   C26 3323   4.004   1.605   8.426 -0.0526 -0.1007 -0.2088
   45CHL1  H26A 3324   4.018   1.571   8.532  0.8848 -0.2352 -0.3636
   45CHL1  H26B 3325   4.090   1.562   8.370  1.6265  2.6724  0.0273
   45CHL1  H26C 3326   4.007   1.716   8.420 -3.2670  0.1493  0.9378
   45CHL1   C27 3327   3.768   1.534   8.489  0.2278 -0.1464 -0.3110
   45CHL1  H27A 3328   3.745   1.632   8.537  0.8961  1.3625 -2.9145
   45CHL1  H27B 3329   3.681   1.471   8.461  0.4121 -0.0733 -1.0706
   45CHL1  H27C 3330   3.812   1.476   8.573 -0.7111 -0.5332 -0.0710
   46CHL1    C3 3331   2.917   3.287   7.152 -0.2533  0.2236  0.6199
   46CHL1    H3 3332   2.880   3.379   7.200  1.2085  0.6964  0.9111
   46CHL1    O3 3333   2.967   3.319   7.019 -0.5590  0.0024  0.5227
   46CHL1   H3' 3334   3.028   3.248   6.994  1.0009  1.1226  0.9651
   46CHL1    C4 3335   3.040   3.225   7.227  0.1765 -0.4792 -0.2264
   46CHL1   H4A 3336   3.076   3.141   7.165  0.9645  0.2664 -0.8131
   46CHL1   H4B 3337   3.113   3.309   7.229 -0.8385  0.4401  0.1592
   46CHL1    C5 3338   3.000   3.190   7.373  0.2898 -0.5318  0.3164
   46CHL1    C6 3339   3.066   3.250   7.473  0.2262  0.6054 -0.0005
   46CHL1    H6 3340   3.137   3.331   7.451 -0.7174  0.9444 -1.9612
   46CHL1    C7 3341   3.041   3.215   7.616 -0.1558  0.1066 -0.3454
   46CHL1   H7A 3342   3.135   3.186   7.668 -1.2142 -0.1845  1.4977
   46CHL1   H7B 3343   3.007   3.306   7.671  1.9028 -0.0431  1.3305
   46CHL1    C8 3344   2.949   3.092   7.647  0.4101 -0.4844  0.6220
   46CHL1    H8 3345   3.000   2.998   7.618 -3.1183 -1.3284 -4.0788
   46CHL1   C14 3346   2.899   3.096   7.788  0.0615 -0.1565 -0.1676
   46CHL1   H14 3347   2.828   3.181   7.795  1.0037  0.5448  1.2527
   46CHL1   C15 3348   3.000   3.125   7.900  0.0102  0.3529  0.2199
   46CHL1  H15A 3349   3.093   3.065   7.892 -0.7876 -0.6444 -3.8927
   46CHL1  H15B 3350   3.035   3.227   7.926 -1.0166  0.6857  0.3212
   46CHL1   C16 3351   2.925   3.075   8.021  0.0904 -0.4244 -0.2029
   46CHL1  H16A 3352   2.989   3.007   8.081  0.9059  1.6487  1.4306
   46CHL1  H16B 3353   2.897   3.158   8.091 -0.1021 -1.9751  1.6613
   46CHL1   C17 3354   2.793   3.011   7.969 -0.5958 -0.1257 -0.3278
   46CHL1   H17 3355   2.715   3.090   7.972 -0.7815 -0.3289  0.6163
   46CHL1   C13 3356   2.817   2.977   7.820  0.1459 -0.0157  0.1835
   46CHL1   C18 3357   2.902   2.847   7.815  0.3676 -0.1331  0.8463
   46CHL1  H18A 3358   2.994   2.850   7.877  1.1894 -0.5035 -0.3187
   46CHL1  H18B 3359   2.853   2.751   7.844 -0.1597 -0.6814 -1.5945
   46CHL1  H18C 3360   2.932   2.820   7.711 -2.8963  2.2938 -0.8980
   46CHL1   C12 3361   2.693   2.978   7.727  0.3275 -0.1454 -0.0127
   46CHL1  H12A 3362   2.625   2.896   7.757 -2.0004  1.4769 -0.5935
   46CHL1  H12B 3363   2.645   3.075   7.751  1.0085  0.1636  0.1473
   46CHL1   C11 3364   2.741   2.964   7.582 -0.4404 -0.1560  0.2891
   46CHL1  H11A 3365   2.800   2.871   7.571  0.2140 -0.0107  2.1695
   46CHL1  H11B 3366   2.654   2.964   7.513 -0.2868 -0.1601  0.0951
   46CHL1    C9 3367   2.837   3.083   7.541 -0.4661 -0.1408 -0.2738
   46CHL1    H9 3368   2.784   3.179   7.556 -0.8960 -0.6027  1.4318
   46CHL1   C10 3369   2.887   3.083   7.393  1.0056 -0.2213 -0.4572
   46CHL1   C19 3370   2.942   2.938   7.356 -0.0048 -0.3105  0.5788
   46CHL1  H19A 3371   2.974   2.937   7.250 -0.9671  1.5772  0.2197
   46CHL1  H19B 3372   3.035   2.920   7.414  1.6536  1.9923 -1.1511
   46CHL1  H19C 3373   2.871   2.855   7.369 -0.9434  0.6026  1.5005
   46CHL1    C1 3374   2.771   3.112   7.294  0.8380 -0.2235 -0.0953
   46CHL1   H1A 3375   2.709   3.021   7.276  1.3449 -0.2132 -2.1138
   46CHL1   H1B 3376   2.705   3.187   7.343  0.1571 -1.7854  1.5204
   46CHL1    C2 3377   2.813   3.162   7.155  0.2418 -0.3747 -0.0678
   46CHL1   H2A 3378   2.732   3.199   7.089  0.0835  2.9058  1.7155
   46CHL1   H2B 3379   2.851   3.077   7.094 -0.0379  0.8111 -1.9790
   46CHL1   C20 3380   2.740   2.904   8.057  0.4933 -0.2951 -0.0772
   46CHL1   H20 3381   2.817   2.824   8.066  0.2831 -0.4356  0.4643
   46CHL1   C21 3382   2.610   2.839   8.011 -0.7078  0.0417 -0.4494
   46CHL1  H21A 3383   2.543   2.914   7.962 -2.3634  0.5823  2.4524
   46CHL1  H21B 3384   2.557   2.789   8.095 -0.6524 -0.1523 -0.5299
   46CHL1  H21C 3385   2.649   2.759   7.944  2.2805  0.7447  0.3147
   46CHL1   C22 3386   2.723   2.952   8.206 -1.2187  0.5004 -0.3537
   46CHL1  H22A 3387   2.816   3.002   8.243 -2.1758  1.9797  0.1631
   46CHL1  H22B 3388   2.644   3.029   8.195 -0.9695  0.6026 -1.4915
   46CHL1   C23 3389   2.679   2.853   8.314  0.4674 -0.2163 -0.1674
   46CHL1  H23A 3390   2.575   2.819   8.292  0.6493 -0.2763 -0.9668
   46CHL1  H23B 3391   2.745   2.764   8.311  1.0778  0.1913  0.8312
   46CHL1   C24 3392   2.701   2.907   8.458 -0.0304  0.4574 -0.2239
   46CHL1  H24A 3393   2.693   2.811   8.513 -1.1419 -0.8763 -2.5597
   46CHL1  H24B 3394   2.807   2.938   8.464 -0.4463  2.0584 -0.4674
   46CHL1   C25 3395   2.598   3.011   8.502  0.2079  0.8395  0.3776
   46CHL1   H25 3396   2.602   3.091   8.425  1.2499 -0.2034 -0.6867
   46CHL1   C26 3397   2.450   2.960   8.492  0.0925  0.5751 -0.4351
   46CHL1  H26A 3398   2.439   2.871   8.557 -0.5705  0.1669 -1.0988
   46CHL1  H26B 3399   2.382   3.047   8.508 -0.5783 -0.0553  0.2057
   46CHL1  H26C 3400   2.426   2.931   8.388 -1.0337 -2.0644  0.4912
   46CHL1   C27 3401   2.634   3.083   8.631 -0.3638  0.4968  0.0536
   46CHL1  H27A 3402   2.561   3.154   8.675 -1.8521 -2.0443  1.9563
   46CHL1  H27B 3403   2.677   3.014   8.707  1.3434  0.0326 -1.2657
   46CHL1  H27C 3404   2.720   3.150   8.610 -1.7628  2.4615  0.2986
   47CHL1    C3 3405   2.176   3.390   6.618  0.1358  0.1327 -0.0010
   47CHL1    H3 3406   2.286   3.405   6.621  0.2616 -0.8116  0.5829
   47CHL1    O3 3407   2.117   3.385   6.491  0.0096 -0.8821  0.0208
   47CHL1   H3' 3408   2.035   3.433   6.499 -0.0211 -1.0554  0.8288
   47CHL1    C4 3409   2.145   3.259   6.694 -0.5063  0.0754  0.2378
   47CHL1   H4A 3410   2.035   3.243   6.685 -0.5528 -0.9829  2.1032
   47CHL1   H4B 3411   2.193   3.178   6.634 -1.2583  1.3789 -2.2584
   47CHL1    C5 3412   2.181   3.260   6.838 -0.2730 -0.0932 -1.0727
   47CHL1    C6 3413   2.256   3.156   6.888 -0.0064 -0.1574  0.0551
   47CHL1    H6 3414   2.306   3.084   6.821 -0.0640 -1.7315  1.6314
   47CHL1    C7 3415   2.294   3.142   7.034 -0.3455 -0.3443  0.4609
   47CHL1   H7A 3416   2.281   3.040   7.076 -2.3293  0.6023  2.2969
   47CHL1   H7B 3417   2.400   3.173   7.051 -0.7806  0.1328  2.6065
   47CHL1    C8 3418   2.224   3.238   7.121  0.2348  0.0802  0.5454
   47CHL1    H8 3419   2.123   3.192   7.129  1.0628 -1.9315 -0.0763
   47CHL1   C14 3420   2.295   3.244   7.257  0.0371 -0.0645  0.2958
   47CHL1   H14 3421   2.394   3.294   7.247  0.5809 -0.6918  2.1390
   47CHL1   C15 3422   2.337   3.118   7.324  0.3712  0.9079  0.3230
   47CHL1  H15A 3423   2.257   3.041   7.325  2.3852 -1.2999  0.5846
   47CHL1  H15B 3424   2.426   3.073   7.275 -0.0027  0.0701  0.3912
   47CHL1   C16 3425   2.361   3.157   7.474 -0.8132  0.2038  0.1934
   47CHL1  H16A 3426   2.289   3.098   7.534  0.4824 -1.8285 -0.1524
   47CHL1  H16B 3427   2.468   3.155   7.506 -0.4748  0.9816 -0.8382
   47CHL1   C17 3428   2.311   3.309   7.486  0.3807  0.4482  0.0489
   47CHL1   H17 3429   2.398   3.375   7.470 -0.2022  1.2563  0.1696
   47CHL1   C13 3430   2.217   3.325   7.361  0.6664 -0.3160  0.1736
   47CHL1   C18 3431   2.077   3.267   7.402  0.1058 -0.8508  0.0899
   47CHL1  H18A 3432   2.085   3.165   7.445  1.0473 -1.1989 -0.8668
   47CHL1  H18B 3433   2.015   3.344   7.452 -1.3546 -1.6431 -0.4376
   47CHL1  H18C 3434   2.024   3.258   7.304 -0.7152 -0.5869  0.4992
   47CHL1   C12 3435   2.203   3.468   7.301  0.0882 -0.1185 -0.6246
   47CHL1  H12A 3436   2.147   3.530   7.374  0.0899 -3.1631  2.1592
   47CHL1  H12B 3437   2.306   3.510   7.292 -0.1936  0.6311 -0.4746
   47CHL1   C11 3438   2.125   3.467   7.165  0.4957 -0.3001 -0.3743
   47CHL1  H11A 3439   2.025   3.422   7.182 -0.6714  0.7259 -3.6502
   47CHL1  H11B 3440   2.118   3.567   7.117  1.2350 -0.6793 -1.3110
   47CHL1    C9 3441   2.203   3.379   7.062  0.0809  0.4957 -0.2966
   47CHL1    H9 3442   2.303   3.427   7.053  0.4383  0.4770  2.5843
   47CHL1   C10 3443   2.132   3.376   6.922 -1.7070 -0.3750 -0.6816
   47CHL1   C19 3444   1.973   3.372   6.943 -0.1463 -0.4632 -0.2445
   47CHL1  H19A 3445   1.948   3.281   7.001 -4.1842  1.2952  1.1190
   47CHL1  H19B 3446   1.930   3.458   6.999 -0.0887  0.5182 -1.6718
   47CHL1  H19C 3447   1.923   3.372   6.844 -0.6969  0.2624  0.0247
   47CHL1    C1 3448   2.164   3.508   6.849  0.1285  0.2169  0.1763
   47CHL1   H1A 3449   2.106   3.591   6.893  0.1820  0.1843  0.3083
   47CHL1   H1B 3450   2.273   3.530   6.849 -0.0598  1.2229 -0.7907
   47CHL1    C2 3451   2.118   3.504   6.702  0.6281  0.5030 -0.1487
   47CHL1   H2A 3452   2.136   3.604   6.658 -0.3740  2.0176  2.6212
   47CHL1   H2B 3453   2.007   3.503   6.708  0.5620  2.3782 -0.6893
   47CHL1   C20 3454   2.250   3.341   7.625 -0.5495  0.1109 -0.4874
   47CHL1   H20 3455   2.157   3.285   7.647 -0.7722  0.4125 -0.6617
   47CHL1   C21 3456   2.244   3.492   7.640 -0.3433 -0.1007 -0.6976
   47CHL1  H21A 3457   2.348   3.530   7.627 -0.0643 -0.6864 -0.2284
   47CHL1  H21B 3458   2.211   3.525   7.740  0.1365  0.7799 -0.8161
   47CHL1  H21C 3459   2.178   3.545   7.567 -1.6263 -1.3874 -0.5069
   47CHL1   C22 3460   2.339   3.295   7.739 -0.2602  0.2935  0.1813
   47CHL1  H22A 3461   2.383   3.196   7.717 -2.5140 -0.4584 -1.2764
   47CHL1  H22B 3462   2.432   3.356   7.747  1.2614 -1.9603  0.5900
   47CHL1   C23 3463   2.273   3.286   7.872 -0.2424 -0.2476  0.3014
   47CHL1  H23A 3464   2.237   3.389   7.896 -1.0572 -0.5716  0.5046
   47CHL1  H23B 3465   2.186   3.217   7.877 -1.0932  0.8430  1.2255
   47CHL1   C24 3466   2.369   3.255   7.991 -0.8665 -0.3534 -0.3380
   47CHL1  H24A 3467   2.425   3.162   7.972 -1.1435 -0.4619 -0.6384
   47CHL1  H24B 3468   2.448   3.333   7.980 -2.6116  1.5040 -0.4581
   47CHL1   C25 3469   2.320   3.273   8.134  0.2536 -0.3482 -0.3528
   47CHL1   H25 3470   2.221   3.223   8.127 -0.5650  1.4608 -3.7885
   47CHL1   C26 3471   2.407   3.213   8.245 -0.0274 -0.0952 -0.3847
   47CHL1  H26A 3472   2.353   3.207   8.341  0.1428  1.1074 -0.2040
   47CHL1  H26B 3473   2.429   3.107   8.221  2.2211 -0.2730  2.0422
   47CHL1  H26C 3474   2.504   3.267   8.252  1.2151 -2.0873 -1.2030
   47CHL1   C27 3475   2.297   3.426   8.164  0.1542  0.7766  0.1550
   47CHL1  H27A 3476   2.255   3.440   8.265 -1.8409 -1.2738 -0.3251
   47CHL1  H27B 3477   2.393   3.481   8.150  0.7472 -0.2812 -0.1195
   47CHL1  H27C 3478   2.226   3.464   8.087  1.9575  2.9586 -0.5576
   48CHL1    C3 3479   5.738   5.678   6.316 -0.0315  0.5941  0.9836
   48CHL1    H3 3480   5.799   5.757   6.365  0.4174 -0.1869  1.7224
   48CHL1    O3 3481   5.747   5.680   6.174  0.1104 -0.1437 -0.2306
   48CHL1   H3' 3482   5.725   5.598   6.130  1.2636 -0.3682 -0.4147
   48CHL1    C4 3483   5.800   5.547   6.363  0.1603  0.1610 -0.3069
   48CHL1   H4A 3484   5.754   5.463   6.307  0.0295  0.8557 -1.2653
   48CHL1   H4B 3485   5.906   5.554   6.330 -0.0863  0.5243 -1.0325
   48CHL1    C5 3486   5.779   5.526   6.513 -0.2364  0.6575  0.3085
   48CHL1    C6 3487   5.884   5.489   6.588  0.1524 -0.6209  0.2030
   48CHL1    H6 3488   5.985   5.481   6.546  0.0382  1.1814 -0.5204
   48CHL1    C7 3489   5.872   5.461   6.739 -0.0416  0.0468 -0.0710
   48CHL1   H7A 3490   5.942   5.383   6.775  0.9018  0.8431 -0.1246
   48CHL1   H7B 3491   5.906   5.550   6.797 -1.4812 -0.9643  2.4375
   48CHL1    C8 3492   5.727   5.430   6.789  0.0995  0.0793 -0.2222
   48CHL1    H8 3493   5.686   5.330   6.761  0.2909 -0.0941  0.1074
   48CHL1   C14 3494   5.723   5.444   6.934 -0.2629 -0.1541  0.1558
   48CHL1   H14 3495   5.735   5.553   6.951 -0.7993 -0.3376  1.9185
   48CHL1   C15 3496   5.831   5.368   7.014  0.1921 -0.2466  0.3331
   48CHL1  H15A 3497   5.826   5.264   6.976 -1.7503 -0.3351  0.7317
   48CHL1  H15B 3498   5.932   5.411   6.997  0.0691  0.0123  0.2697
   48CHL1   C16 3499   5.777   5.375   7.155  0.6413 -0.0495  0.5987
   48CHL1  H16A 3500   5.778   5.273   7.201 -0.9662 -0.0553  0.6583
   48CHL1  H16B 3501   5.838   5.445   7.216  0.4143 -0.5624  1.4387
   48CHL1   C17 3502   5.630   5.448   7.160  0.0059  0.4060 -0.0062
   48CHL1   H17 3503   5.644   5.557   7.180 -0.6048 -0.0543  3.6232
   48CHL1   C13 3504   5.585   5.430   7.013 -0.7684  0.9322 -0.5251
   48CHL1   C18 3505   5.537   5.286   6.993 -0.2933 -0.2934  0.0232
   48CHL1  H18A 3506   5.611   5.217   7.040 -1.3536 -1.0217  0.6600
   48CHL1  H18B 3507   5.436   5.266   7.033 -1.0741  2.4716 -0.3455
   48CHL1  H18C 3508   5.533   5.263   6.884  1.1780  3.9469 -1.1134
   48CHL1   C12 3509   5.496   5.536   6.946  0.3107  0.3260 -0.3272
   48CHL1  H12A 3510   5.389   5.525   6.977  0.2578  3.1181  0.8058
   48CHL1  H12B 3511   5.542   5.637   6.958  1.0057  0.1071 -1.1279
   48CHL1   C11 3512   5.494   5.516   6.791  0.2960 -0.0686 -1.2262
   48CHL1  H11A 3513   5.443   5.418   6.788  1.1613 -0.6302  0.5667
   48CHL1  H11B 3514   5.415   5.573   6.738  0.2972 -0.8479 -2.0755
   48CHL1    C9 3515   5.628   5.535   6.729 -0.2582 -0.9451 -0.8740
   48CHL1    H9 3516   5.663   5.636   6.757  1.0968 -1.3219 -1.1221
   48CHL1   C10 3517   5.633   5.543   6.575 -0.0072  0.6849  1.0069
   48CHL1   C19 3518   5.562   5.414   6.517 -0.2929  0.3472 -0.1479
   48CHL1  H19A 3519   5.453   5.413   6.539 -0.1706 -0.3648  0.4337
   48CHL1  H19B 3520   5.566   5.404   6.406 -0.4587  1.1632 -0.2369
   48CHL1  H19C 3521   5.597   5.321   6.567 -1.4850 -0.5779 -0.9497
   48CHL1    C1 3522   5.568   5.673   6.519 -0.4857  0.2633  0.6615
   48CHL1   H1A 3523   5.460   5.688   6.544 -0.6868 -0.1401  0.0516
   48CHL1   H1B 3524   5.626   5.754   6.568  0.8607  0.9174 -1.8782
   48CHL1    C2 3525   5.589   5.693   6.372  0.0322 -0.2214 -0.0136
   48CHL1   H2A 3526   5.550   5.791   6.335 -0.3648  0.4568  2.0465
   48CHL1   H2B 3527   5.526   5.620   6.317 -1.2629 -0.0417  1.1799
   48CHL1   C20 3528   5.542   5.394   7.273  0.5569  0.2028  0.6117
   48CHL1   H20 3529   5.532   5.283   7.269 -1.1722  0.3311  0.6722
   48CHL1   C21 3530   5.403   5.454   7.253 -1.2364  0.0181 -0.0836
   48CHL1  H21A 3531   5.412   5.565   7.258 -3.4652  0.2552 -0.4446
   48CHL1  H21B 3532   5.329   5.418   7.328 -1.2710 -1.2413 -0.6874
   48CHL1  H21C 3533   5.353   5.429   7.157 -2.2089  3.3290 -0.5685
   48CHL1   C22 3534   5.590   5.431   7.414  0.0957  0.1291 -0.3285
   48CHL1  H22A 3535   5.694   5.400   7.439 -0.3222 -1.6811 -0.6456
   48CHL1  H22B 3536   5.591   5.542   7.419 -1.5484  0.1572 -0.0097
   48CHL1   C23 3537   5.497   5.387   7.527  0.4616  0.4763  0.3497
   48CHL1  H23A 3538   5.402   5.445   7.526  0.3241  0.2961  1.5826
   48CHL1  H23B 3539   5.456   5.284   7.513 -0.0346  0.4816  1.5955
   48CHL1   C24 3540   5.555   5.401   7.666 -0.4065 -0.0775 -0.8471
   48CHL1  H24A 3541   5.631   5.323   7.684  0.5733  1.2183  0.9063
   48CHL1  H24B 3542   5.609   5.498   7.668  0.7282 -0.6790 -1.6386
   48CHL1   C25 3543   5.445   5.367   7.779  0.3051  0.6723 -0.0313
   48CHL1   H25 3544   5.367   5.445   7.765 -0.6905 -0.4465 -0.9117
   48CHL1   C26 3545   5.392   5.228   7.748  0.2767 -0.1985 -0.0348
   48CHL1  H26A 3546   5.329   5.191   7.831 -0.0820 -0.2201 -0.3116
   48CHL1  H26B 3547   5.318   5.231   7.665 -1.5783 -3.0244  1.3889
   48CHL1  H26C 3548   5.469   5.153   7.721 -1.3727 -1.9092 -0.1928
   48CHL1   C27 3549   5.503   5.371   7.919  0.3322  0.0359  0.4189
   48CHL1  H27A 3550   5.435   5.331   7.997  0.9033 -0.5228  0.6399
   48CHL1  H27B 3551   5.587   5.298   7.921  1.3682  1.1483 -0.7381
   48CHL1  H27C 3552   5.552   5.467   7.944  2.8041 -0.7666 -0.9825
   49CHL1    C3 3553   4.536   0.395   6.665  0.2793 -0.4471 -0.3527
   49CHL1    H3 3554   4.459   0.475   6.660  0.0607 -0.6742 -0.6370
   49CHL1    O3 3555   4.599   0.378   6.540  0.2406  0.1328  0.4905
   49CHL1   H3' 3556   4.663   0.310   6.563 -1.2347 -1.0917  1.1233
   49CHL1    C4 3557   4.645   0.436   6.765 -0.4541  0.6125 -0.8067
   49CHL1   H4A 3558   4.731   0.365   6.760 -1.5799 -1.0972  1.7981
   49CHL1   H4B 3559   4.693   0.532   6.735  1.7303  0.1601  0.9289
   49CHL1    C5 3560   4.599   0.440   6.910  0.4886 -0.0032 -0.7340
   49CHL1    C6 3561   4.628   0.544   6.988  1.1087 -0.6871 -0.6351
   49CHL1    H6 3562   4.688   0.632   6.961  1.0239  0.4632  2.5785
   49CHL1    C7 3563   4.603   0.543   7.139  0.3969 -0.1682 -0.2153
   49CHL1   H7A 3564   4.700   0.573   7.184 -0.1288 -0.0272  0.8596
   49CHL1   H7B 3565   4.526   0.623   7.147 -0.0645 -0.3113 -2.6460
   49CHL1    C8 3566   4.559   0.405   7.195  0.9428  0.4282  0.0882
   49CHL1    H8 3567   4.655   0.353   7.219  0.3605  0.2319  2.1383
   49CHL1   C14 3568   4.489   0.420   7.327 -0.7154  0.2510 -0.4545
   49CHL1   H14 3569   4.391   0.467   7.302  0.3889  2.9461 -0.0193
   49CHL1   C15 3570   4.551   0.525   7.422  0.2929  0.4618 -0.0054
   49CHL1  H15A 3571   4.653   0.490   7.450 -0.2554 -1.3112 -0.0635
   49CHL1  H15B 3572   4.543   0.632   7.393 -0.0511  0.9263  1.7065
   49CHL1   C16 3573   4.465   0.496   7.543  0.4336  0.3637  0.4600
   49CHL1  H16A 3574   4.533   0.501   7.630  0.2012  1.8017  0.5936
   49CHL1  H16B 3575   4.380   0.569   7.550  0.5082  0.7917 -2.2412
   49CHL1   C17 3576   4.389   0.357   7.525  1.0562 -0.1411  0.5974
   49CHL1   H17 3577   4.283   0.380   7.497  0.9838 -0.1391  0.8709
   49CHL1   C13 3578   4.450   0.289   7.402  0.0382 -0.5648  0.1189
   49CHL1   C18 3579   4.573   0.202   7.437  0.3153 -0.2578  0.4942
   49CHL1  H18A 3580   4.550   0.138   7.525  2.0315 -2.3793 -0.4982
   49CHL1  H18B 3581   4.613   0.143   7.352  1.2569 -0.4294  1.0350
   49CHL1  H18C 3582   4.654   0.271   7.470 -0.6446 -0.5086  3.7828
   49CHL1   C12 3583   4.350   0.224   7.313  0.3859  0.2258 -0.4348
   49CHL1  H12A 3584   4.307   0.131   7.354 -1.4051  0.9655 -0.5402
   49CHL1  H12B 3585   4.263   0.290   7.292  0.0314  0.7050  2.1234
   49CHL1   C11 3586   4.414   0.198   7.170  0.3584 -0.8827 -0.1762
   49CHL1  H11A 3587   4.492   0.122   7.187  0.7406 -0.3344  0.5833
   49CHL1  H11B 3588   4.332   0.158   7.106 -0.2715 -1.4422  0.9517
   49CHL1    C9 3589   4.474   0.332   7.098  0.1860  0.1827 -0.4971
   49CHL1    H9 3590   4.391   0.403   7.080  2.9667  4.1008  0.8724
   49CHL1   C10 3591   4.540   0.308   6.964  0.6322  0.9497  0.0931
   49CHL1   C19 3592   4.661   0.213   6.984  0.5473 -0.4051 -0.1532
   49CHL1  H19A 3593   4.705   0.190   6.884  0.1030 -0.5170 -0.3233
   49CHL1  H19B 3594   4.735   0.263   7.051 -1.3609  0.2607  1.5613
   49CHL1  H19C 3595   4.640   0.112   7.025  1.4531 -0.6683 -0.3046
   49CHL1    C1 3596   4.434   0.255   6.853  0.8204  0.3377  0.2321
   49CHL1   H1A 3597   4.395   0.156   6.886 -1.2913  1.5698  1.6394
   49CHL1   H1B 3598   4.346   0.321   6.866  0.0721 -1.0001  2.6110
   49CHL1    C2 3599   4.486   0.258   6.710  0.1668 -1.1258  0.0074
   49CHL1   H2A 3600   4.392   0.242   6.653 -0.0171 -1.4891  0.4007
   49CHL1   H2B 3601   4.548   0.168   6.687  1.0977 -0.5334  0.1372
   49CHL1   C20 3602   4.359   0.292   7.661 -0.4348 -0.1523 -0.0856
   49CHL1   H20 3603   4.454   0.250   7.700  0.5811  0.9295 -1.3111
   49CHL1   C21 3604   4.257   0.176   7.639 -0.1824  0.3323  0.7169
   49CHL1  H21A 3605   4.232   0.133   7.738 -0.1476  2.2263  1.6047
   49CHL1  H21B 3606   4.302   0.098   7.574 -0.3306 -1.3634  2.5423
   49CHL1  H21C 3607   4.164   0.209   7.588  1.7164  1.2049 -2.5441
   49CHL1   C22 3608   4.307   0.396   7.755  0.2528  0.4587 -0.0305
   49CHL1  H22A 3609   4.374   0.484   7.762 -1.7572  1.9448  2.1529
   49CHL1  H22B 3610   4.210   0.434   7.716  0.0362  0.0282  0.0796
   49CHL1   C23 3611   4.277   0.348   7.898 -0.1633  0.5749  0.3866
   49CHL1  H23A 3612   4.200   0.268   7.888  1.6963 -1.4496  1.4217
   49CHL1  H23B 3613   4.375   0.312   7.935  1.0701  2.9665 -0.3204
   49CHL1   C24 3614   4.228   0.473   7.987  0.4639  0.6158  0.2016
   49CHL1  H24A 3615   4.304   0.551   7.962  0.2651  1.0241  0.8419
   49CHL1  H24B 3616   4.133   0.504   7.938 -0.0071  0.1332  0.8047
   49CHL1   C25 3617   4.209   0.474   8.137 -0.0652 -0.2911 -0.7070
   49CHL1   H25 3618   4.115   0.416   8.152 -0.0503  0.1703  1.4255
   49CHL1   C26 3619   4.326   0.394   8.201 -0.6968 -0.0173  0.2075
   49CHL1  H26A 3620   4.307   0.285   8.189  1.6079 -0.5820  1.2751
   49CHL1  H26B 3621   4.423   0.420   8.153  0.4128 -1.6276  1.4663
   49CHL1  H26C 3622   4.327   0.425   8.307 -0.5436  0.5760  0.0369
   49CHL1   C27 3623   4.178   0.613   8.195 -0.0897  0.1305  0.7767
   49CHL1  H27A 3624   4.144   0.600   8.300  1.7117 -0.0598  1.3612
   49CHL1  H27B 3625   4.261   0.687   8.191 -1.3553  1.6188  1.2365
   49CHL1  H27C 3626   4.087   0.644   8.140 -1.8412 -1.4753  2.6210
   50CHL1    C3 3627   5.520   1.187   6.907  0.3859  0.1827  0.5947
   50CHL1    H3 3628   5.416   1.153   6.926 -0.4391  0.4987 -2.7100
   50CHL1    O3 3629   5.547   1.181   6.765 -0.5942  0.3523  0.1750
   50CHL1   H3' 3630   5.639   1.208   6.763 -1.1377  2.3938  0.3748
   50CHL1    C4 3631   5.527   1.334   6.960  0.6917 -0.2393  1.2429
   50CHL1   H4A 3632   5.630   1.371   6.944  1.0769  0.1934  4.1504
   50CHL1   H4B 3633   5.466   1.403   6.898  0.8408 -0.1851  1.1580
   50CHL1    C5 3634   5.499   1.334   7.106 -0.2182  0.6471  0.7901
   50CHL1    C6 3635   5.390   1.396   7.154  0.2674 -0.1606  1.0662
   50CHL1    H6 3636   5.327   1.454   7.085  1.3000  1.0828  1.1185
   50CHL1    C7 3637   5.353   1.407   7.298  0.1063 -0.1595  0.6089
   50CHL1   H7A 3638   5.329   1.513   7.322  1.1084  0.5696 -1.3074
   50CHL1   H7B 3639   5.266   1.340   7.312 -0.1993  0.2022  0.4743
   50CHL1    C8 3640   5.466   1.361   7.388  0.0217 -0.7763  0.3724
   50CHL1    H8 3641   5.544   1.440   7.403 -2.2464  1.4257  1.2396
   50CHL1   C14 3642   5.397   1.331   7.526 -0.1642 -0.1732  0.2194
   50CHL1   H14 3643   5.311   1.264   7.504 -0.7315  0.9724 -1.2333
   50CHL1   C15 3644   5.317   1.445   7.592  0.0311 -0.5274  0.0817
   50CHL1  H15A 3645   5.377   1.539   7.592  2.6547 -2.0561  2.0097
   50CHL1  H15B 3646   5.220   1.441   7.539  0.1463 -2.4901 -0.0422
   50CHL1   C16 3647   5.309   1.398   7.740 -0.0086  0.1322 -0.1141
   50CHL1  H16A 3648   5.362   1.466   7.810 -1.1334  0.4856  0.4246
   50CHL1  H16B 3649   5.207   1.398   7.785  1.0034  0.2874  2.3224
   50CHL1   C17 3650   5.382   1.261   7.749  0.5575  0.3967  0.0050
   50CHL1   H17 3651   5.323   1.176   7.710  1.4699 -0.3948  0.3000
   50CHL1   C13 3652   5.487   1.273   7.634  0.1268  0.0084 -0.2885
   50CHL1   C18 3653   5.600   1.366   7.678 -0.2120  0.1894  0.0715
   50CHL1  H18A 3654   5.678   1.397   7.605  0.0236 -0.3775  0.0719
   50CHL1  H18B 3655   5.564   1.463   7.719  2.3596  1.1901  0.1153
   50CHL1  H18C 3656   5.649   1.310   7.760  0.1782  1.1951  0.5339
   50CHL1   C12 3657   5.549   1.144   7.580  0.2339  0.9916  0.3126
   50CHL1  H12A 3658   5.630   1.112   7.649  1.0474  2.3192  0.0127
   50CHL1  H12B 3659   5.485   1.053   7.581  3.2209 -1.2992  0.7589
   50CHL1   C11 3660   5.621   1.164   7.441 -0.5730  0.3572  0.4921
   50CHL1  H11A 3661   5.706   1.232   7.459 -0.8861  1.0811 -0.6476
   50CHL1  H11B 3662   5.656   1.064   7.409 -0.4578  0.3981  0.4914
   50CHL1    C9 3663   5.529   1.234   7.334 -0.0444  0.2036  0.7849
   50CHL1    H9 3664   5.447   1.160   7.323 -0.7492  1.2221 -1.2998
   50CHL1   C10 3665   5.588   1.244   7.190 -0.6443  0.1754  0.2379
   50CHL1   C19 3666   5.731   1.312   7.193 -1.6543  0.0895  0.4660
   50CHL1  H19A 3667   5.743   1.419   7.221 -0.7901 -0.3547  1.9399
   50CHL1  H19B 3668   5.793   1.250   7.262 -1.8795 -1.7761 -0.9476
   50CHL1  H19C 3669   5.791   1.310   7.099  0.9017  0.5798  1.9872
   50CHL1    C1 3670   5.589   1.102   7.132 -0.3212  0.2354  0.2792
   50CHL1   H1A 3671   5.661   1.037   7.186  0.3604 -0.5147 -1.4421
   50CHL1   H1B 3672   5.493   1.046   7.140 -0.4229 -0.2697 -2.9212
   50CHL1    C2 3673   5.618   1.095   6.985 -0.4996  0.1518  0.3989
   50CHL1   H2A 3674   5.622   0.994   6.940  0.7654  1.1822 -1.9579
   50CHL1   H2B 3675   5.712   1.151   6.965 -1.0055  1.5092  1.6086
   50CHL1   C20 3676   5.433   1.225   7.891 -0.2888 -0.5121  0.4172
   50CHL1   H20 3677   5.494   1.309   7.929 -2.3184  1.2064  0.1073
   50CHL1   C21 3678   5.514   1.095   7.888  1.0653  0.2088  0.7806
   50CHL1  H21A 3679   5.613   1.111   7.840  1.2061  0.4518  1.1478
   50CHL1  H21B 3680   5.465   1.015   7.829  2.2079 -0.2818  0.4645
   50CHL1  H21C 3681   5.522   1.057   7.992 -0.6783 -2.7827 -0.0377
   50CHL1   C22 3682   5.326   1.217   7.992 -0.3714  0.0069 -1.0381
   50CHL1  H22A 3683   5.266   1.309   7.995  1.1590  1.0185  0.1416
   50CHL1  H22B 3684   5.256   1.131   7.992 -0.9030  0.4341 -0.4053
   50CHL1   C23 3685   5.376   1.235   8.135 -0.8075 -0.0672 -0.3910
   50CHL1  H23A 3686   5.449   1.156   8.165  0.7689  0.7457 -1.9424
   50CHL1  H23B 3687   5.431   1.331   8.148  0.5267 -0.7770 -0.5379
   50CHL1   C24 3688   5.263   1.238   8.240 -0.4550  0.2782 -0.2878
   50CHL1  H24A 3689   5.225   1.342   8.242  2.0762  1.2789  0.3593
   50CHL1  H24B 3690   5.195   1.154   8.213 -0.7952 -0.0438  1.4158
   50CHL1   C25 3691   5.317   1.199   8.382  0.0798 -0.1119 -0.2975
   50CHL1   H25 3692   5.415   1.250   8.395  0.1550  0.1142 -1.5544
   50CHL1   C26 3693   5.225   1.248   8.497  0.0060 -0.4408 -0.9840
   50CHL1  H26A 3694   5.185   1.351   8.489 -0.2106 -0.3287  0.9431
   50CHL1  H26B 3695   5.140   1.178   8.512  1.6505 -2.4808 -0.6092
   50CHL1  H26C 3696   5.283   1.232   8.591 -0.8917  0.1445 -0.3113
   50CHL1   C27 3697   5.317   1.046   8.394  0.6335  0.8749 -0.1668
   50CHL1  H27A 3698   5.218   0.997   8.383  1.3888 -0.3666 -1.8855
   50CHL1  H27B 3699   5.377   0.996   8.315  1.2299 -2.0054  1.9378
   50CHL1  H27C 3700   5.353   1.004   8.491 -3.8586 -3.9101 -0.1191
   51CHL1    C3 3701   5.608   0.515   6.911 -0.7189 -1.0011  0.0010
   51CHL1    H3 3702   5.524   0.587   6.924  0.8344  0.5192  2.5200
   51CHL1    O3 3703   5.650   0.500   6.776  0.0532  0.2101  0.3170
   51CHL1   H3' 3704   5.739   0.466   6.783 -0.7012 -1.7009  1.4932
   51CHL1    C4 3705   5.730   0.557   6.995 -0.2697  0.2595  0.8035
   51CHL1   H4A 3706   5.810   0.484   6.970  0.5947  1.5959 -0.4557
   51CHL1   H4B 3707   5.768   0.653   6.957  0.3059 -0.2653  0.0408
   51CHL1    C5 3708   5.694   0.565   7.144  0.5626 -0.0844 -0.4573
   51CHL1    C6 3709   5.718   0.674   7.222  0.6453 -0.1694  0.2249
   51CHL1    H6 3710   5.757   0.766   7.175 -0.8532 -0.2757 -1.3322
   51CHL1    C7 3711   5.671   0.686   7.360  0.2841  0.0311 -0.0461
   51CHL1   H7A 3712   5.748   0.736   7.423  0.6225  0.0509 -0.4705
   51CHL1   H7B 3713   5.580   0.749   7.367  0.4259  0.1138  1.5621
   51CHL1    C8 3714   5.633   0.547   7.426  0.0132  0.0941  0.5137
   51CHL1    H8 3715   5.725   0.491   7.454 -1.1369 -1.1768  1.8946
   51CHL1   C14 3716   5.539   0.579   7.545 -1.1681 -0.2397 -0.4867
   51CHL1   H14 3717   5.448   0.623   7.498 -2.1683 -2.1495 -0.4418
   51CHL1   C15 3718   5.587   0.681   7.647 -0.2755 -0.4803 -0.7384
   51CHL1  H15A 3719   5.695   0.657   7.658  0.2431  1.4535 -1.1677
   51CHL1  H15B 3720   5.577   0.790   7.628  0.6949  0.1734  2.0229
   51CHL1   C16 3721   5.519   0.650   7.781  1.1309 -0.1765 -0.2068
   51CHL1  H16A 3722   5.583   0.642   7.872  3.4030  1.1899 -1.5926
   51CHL1  H16B 3723   5.444   0.728   7.806  0.4113 -0.2666 -1.9619
   51CHL1   C17 3724   5.436   0.517   7.762  0.1283  0.1853  0.2749
   51CHL1   H17 3725   5.332   0.547   7.737 -0.4703 -0.8622  1.4258
   51CHL1   C13 3726   5.503   0.457   7.633 -0.4851 -0.7746 -0.3033
   51CHL1   C18 3727   5.628   0.374   7.693  0.3087 -0.1682 -0.5933
   51CHL1  H18A 3728   5.705   0.354   7.615  1.2608  0.6583  0.0989
   51CHL1  H18B 3729   5.669   0.434   7.777 -1.7237  0.2117  0.1682
   51CHL1  H18C 3730   5.605   0.276   7.741 -0.5409  0.5059  0.4056
   51CHL1   C12 3731   5.424   0.365   7.539  0.3298  0.1623  0.2925
   51CHL1  H12A 3732   5.398   0.270   7.591  1.7905 -1.1031 -1.1461
   51CHL1  H12B 3733   5.336   0.420   7.499  1.0556  0.8329 -0.4157
   51CHL1   C11 3734   5.507   0.325   7.412 -0.2796  0.7108  0.1565
   51CHL1  H11A 3735   5.595   0.266   7.443 -1.5257 -0.8486  0.8504
   51CHL1  H11B 3736   5.447   0.259   7.346  1.0436 -0.1999 -0.1686
   51CHL1    C9 3737   5.555   0.452   7.328 -0.7988  0.9581  0.4245
   51CHL1    H9 3738   5.465   0.511   7.301 -0.9721  0.2120 -0.7053
   51CHL1   C10 3739   5.630   0.430   7.191  0.2710 -0.1899 -0.2506
   51CHL1   C19 3740   5.738   0.321   7.197  0.0851  0.6248  0.0880
   51CHL1  H19A 3741   5.818   0.359   7.264 -2.2007  0.7704  2.9435
   51CHL1  H19B 3742   5.694   0.233   7.248 -0.2849 -0.6461 -2.2756
   51CHL1  H19C 3743   5.779   0.292   7.098  1.0992 -1.3927  1.0523
   51CHL1    C1 3744   5.518   0.381   7.099  0.0504 -0.3060 -0.6436
   51CHL1   H1A 3745   5.494   0.275   7.124 -1.2817 -0.0261 -0.7130
   51CHL1   H1B 3746   5.433   0.451   7.100 -1.3820 -1.9726 -0.0988
   51CHL1    C2 3747   5.556   0.378   6.952 -0.7260 -0.1059 -0.1016
   51CHL1   H2A 3748   5.467   0.364   6.888 -0.6083  0.3388 -0.3702
   51CHL1   H2B 3749   5.633   0.302   6.926 -1.4189 -0.1126 -2.3283
   51CHL1   C20 3750   5.417   0.438   7.893 -0.4657 -0.2361 -0.9248
   51CHL1   H20 3751   5.516   0.408   7.934 -0.9702 -1.1079 -0.3085
   51CHL1   C21 3752   5.335   0.315   7.863  0.2615 -0.1445 -0.1691
   51CHL1  H21A 3753   5.306   0.266   7.958  1.9209 -1.8932 -0.4890
   51CHL1  H21B 3754   5.391   0.237   7.807  0.0310  0.4236 -1.2132
   51CHL1  H21C 3755   5.241   0.332   7.806  0.9742 -1.4247 -1.8174
   51CHL1   C22 3756   5.364   0.517   8.017  0.3305  0.4177 -1.0499
   51CHL1  H22A 3757   5.406   0.620   8.024  0.9096  0.0971  0.6572
   51CHL1  H22B 3758   5.256   0.526   7.995  0.7611  1.9267 -2.8048
   51CHL1   C23 3759   5.386   0.445   8.154 -0.1831 -0.2058  0.4277
   51CHL1  H23A 3760   5.376   0.336   8.134  2.6291 -0.5616  0.5670
   51CHL1  H23B 3761   5.491   0.461   8.187  0.1371 -0.3700 -0.4681
   51CHL1   C24 3762   5.284   0.494   8.258  0.0876 -0.2543 -0.6578
   51CHL1  H24A 3763   5.323   0.592   8.294 -0.7896 -0.4492  0.9007
   51CHL1  H24B 3764   5.186   0.512   8.208  0.0460  0.5312 -0.3112
   51CHL1   C25 3765   5.259   0.401   8.375 -1.0353 -0.4984 -0.3915
   51CHL1   H25 3766   5.358   0.372   8.416 -0.6349  0.0199 -0.9761
   51CHL1   C26 3767   5.185   0.477   8.491 -0.4707 -0.0049 -0.2292
   51CHL1  H26A 3768   5.243   0.566   8.522  1.3075 -0.9351 -0.7575
   51CHL1  H26B 3769   5.081   0.504   8.463  0.1537  1.3147 -1.3677
   51CHL1  H26C 3770   5.178   0.407   8.577  0.0981  1.6567  1.1996
   51CHL1   C27 3771   5.191   0.278   8.331 -0.3012 -0.5781  0.2348
   51CHL1  H27A 3772   5.248   0.216   8.258 -2.2796 -0.5160 -1.4654
   51CHL1  H27B 3773   5.173   0.217   8.422  0.8493 -1.6896 -0.2368
   51CHL1  H27C 3774   5.089   0.295   8.291 -0.5715  1.2582  1.5890
   52CHL1    C3 3775   0.199   1.740   7.121 -0.4380  0.3318 -0.1132
   52CHL1    H3 3776   0.255   1.807   7.191 -0.0004  0.6819 -0.7875
   52CHL1    O3 3777   0.217   1.785   6.987 -0.1284  0.3847 -0.5989
   52CHL1   H3' 3778   0.169   1.713   6.945 -0.7584 -0.4552  1.4376
   52CHL1    C4 3779   0.259   1.599   7.127  0.5676  0.0890  0.2733
   52CHL1   H4A 3780   0.215   1.527   7.054  1.1867 -1.8561  1.7248
   52CHL1   H4B 3781   0.367   1.594   7.104  0.6542 -3.1621  0.8939
   52CHL1    C5 3782   0.235   1.548   7.273 -0.2859  0.2856  0.3110
   52CHL1    C6 3783   0.335   1.496   7.355  0.9845 -0.1051  0.5035
   52CHL1    H6 3784   0.437   1.477   7.318  0.4239 -0.2222 -1.0426
   52CHL1    C7 3785   0.312   1.444   7.493 -0.4394 -0.3761  0.8518
   52CHL1   H7A 3786   0.361   1.345   7.509 -0.1306 -0.0841  1.7846
   52CHL1   H7B 3787   0.366   1.519   7.554 -2.6707  1.4016  0.7635
   52CHL1    C8 3788   0.162   1.426   7.536 -0.4088 -0.6810 -0.4641
   52CHL1    H8 3789   0.133   1.326   7.496  0.0125 -1.3374  0.8164
   52CHL1   C14 3790   0.152   1.426   7.682  0.2468  0.0771  0.4050
   52CHL1   H14 3791   0.184   1.524   7.723  2.3772  0.0363 -0.9966
   52CHL1   C15 3792   0.243   1.332   7.758  0.2797 -0.1946 -0.1522
   52CHL1  H15A 3793   0.258   1.244   7.692  0.1834  0.6610 -1.3391
   52CHL1  H15B 3794   0.345   1.376   7.762 -0.2068  1.7199 -4.1098
   52CHL1   C16 3795   0.174   1.302   7.895 -0.1496 -0.1993  1.6206
   52CHL1  H16A 3796   0.165   1.191   7.898  1.5762 -0.4411 -0.0972
   52CHL1  H16B 3797   0.233   1.340   7.981  1.9530  1.7878 -0.5372
   52CHL1   C17 3798   0.035   1.370   7.891  0.1829  0.2010  0.7757
   52CHL1   H17 3799   0.060   1.472   7.928  2.6024  0.0871 -0.3821
   52CHL1   C13 3800   0.007   1.399   7.740 -0.1618 -0.7896  0.3622
   52CHL1   C18 3801  -0.059   1.275   7.671 -0.1170 -0.4681  0.0576
   52CHL1  H18A 3802  -0.007   1.178   7.684 -0.2146 -0.8244 -1.9222
   52CHL1  H18B 3803  -0.163   1.255   7.704  0.0477 -1.0454  0.2315
   52CHL1  H18C 3804  -0.085   1.285   7.563  1.1314 -0.5277 -0.2651
   52CHL1   C12 3805  -0.084   1.523   7.703  0.0837 -0.1730 -0.3771
   52CHL1  H12A 3806  -0.192   1.507   7.721 -0.0617  0.3438 -0.7921
   52CHL1  H12B 3807  -0.038   1.609   7.756 -0.3056  0.1704 -0.5949
   52CHL1   C11 3808  -0.068   1.554   7.551  0.8887  0.7879 -0.0958
   52CHL1  H11A 3809  -0.123   1.473   7.499  2.1738 -0.4312  0.3680
   52CHL1  H11B 3810  -0.121   1.649   7.530  1.9394  1.2058 -0.9514
   52CHL1    C9 3811   0.077   1.541   7.487  0.0974 -0.1032 -0.2432
   52CHL1    H9 3812   0.129   1.628   7.533  0.5288  1.2825 -3.1276
   52CHL1   C10 3813   0.090   1.559   7.333  0.2269  0.4926  0.4254
   52CHL1   C19 3814  -0.001   1.458   7.268  0.5757 -0.5187  0.1701
   52CHL1  H19A 3815  -0.109   1.469   7.289 -0.6050 -4.8486 -2.2735
   52CHL1  H19B 3816   0.000   1.449   7.157 -0.6382 -0.3302  0.1350
   52CHL1  H19C 3817   0.008   1.350   7.291  0.4489 -0.7981 -1.0161
   52CHL1    C1 3818   0.034   1.700   7.305  0.1923  0.1438  0.3602
   52CHL1   H1A 3819  -0.071   1.685   7.337  0.7475 -3.5208  0.9584
   52CHL1   H1B 3820   0.081   1.780   7.365  1.2160 -0.4224  0.3382
   52CHL1    C2 3821   0.046   1.740   7.153 -0.0823 -0.1883 -0.4595
   52CHL1   H2A 3822  -0.001   1.840   7.136  1.5796  1.0846  1.7945
   52CHL1   H2B 3823  -0.006   1.670   7.084 -0.0699 -0.7989  0.1396
   52CHL1   C20 3824  -0.065   1.299   7.977 -0.2214  0.3914  0.1921
   52CHL1   H20 3825  -0.077   1.196   7.939 -0.4262 -0.0114  1.3209
   52CHL1   C21 3826  -0.201   1.373   7.975 -0.0053  0.3587  0.7599
   52CHL1  H21A 3827  -0.177   1.476   8.008  1.4723  1.2908 -2.7587
   52CHL1  H21B 3828  -0.279   1.320   8.035  0.2774 -0.5802  0.3262
   52CHL1  H21C 3829  -0.243   1.378   7.872  3.0596 -1.2921 -0.7150
   52CHL1   C22 3830  -0.012   1.288   8.124  0.2222  0.1392 -0.1325
   52CHL1  H22A 3831   0.082   1.229   8.128 -0.3953 -0.8459  2.7840
   52CHL1  H22B 3832  -0.003   1.393   8.160 -2.8573  1.5167 -2.8802
   52CHL1   C23 3833  -0.112   1.219   8.222 -0.5837 -0.1208 -0.5835
   52CHL1  H23A 3834  -0.196   1.291   8.225  0.6091  1.3392  2.6528
   52CHL1  H23B 3835  -0.144   1.116   8.198  1.3184 -1.0818  0.7681
   52CHL1   C24 3836  -0.058   1.199   8.368  0.1333  0.3589  0.0891
   52CHL1  H24A 3837   0.044   1.156   8.355  0.3219 -0.0489  2.4896
   52CHL1  H24B 3838  -0.062   1.297   8.421  1.1893  1.3027 -1.4796
   52CHL1   C25 3839  -0.140   1.099   8.455 -0.5516 -0.3761 -0.1158
   52CHL1   H25 3840  -0.168   1.006   8.400  2.0612 -2.1315  1.3198
   52CHL1   C26 3841  -0.060   1.059   8.578 -1.0658  0.2782  0.0082
   52CHL1  H26A 3842  -0.037   1.146   8.643 -0.0991  1.5347 -1.8886
   52CHL1  H26B 3843  -0.109   0.981   8.639  0.5269 -0.5183  0.3095
   52CHL1  H26C 3844   0.041   1.023   8.551 -1.9858 -1.2135 -1.6148
   52CHL1   C27 3845  -0.272   1.160   8.502  0.1692  0.1485 -0.1161
   52CHL1  H27A 3846  -0.329   1.212   8.422 -0.6128  1.3021  1.1545
   52CHL1  H27B 3847  -0.347   1.096   8.553 -1.4714  2.6899  0.8544
   52CHL1  H27C 3848  -0.240   1.245   8.566 -0.7686  1.5565 -1.4369
   53CHL1    C3 3849   4.021   4.275   6.885  0.0330 -0.5590  0.1058
   53CHL1    H3 3850   4.026   4.384   6.906 -0.7659 -0.7480  1.3435
   53CHL1    O3 3851   4.035   4.260   6.747  0.8866  0.1865 -0.2054
   53CHL1   H3' 3852   4.045   4.167   6.726  0.3815 -0.1724  1.0599
   53CHL1    C4 3853   4.136   4.209   6.962  0.2216  0.2462 -0.3060
   53CHL1   H4A 3854   4.141   4.100   6.942 -1.0998 -0.0038  0.6074
   53CHL1   H4B 3855   4.231   4.252   6.922  2.2641 -2.7540  1.0274
   53CHL1    C5 3856   4.117   4.233   7.109  0.8505  0.3662 -0.2445
   53CHL1    C6 3857   4.217   4.288   7.178 -0.0423  1.1410 -0.3043
   53CHL1    H6 3858   4.312   4.307   7.127  0.9747 -0.6571  0.8175
   53CHL1    C7 3859   4.214   4.290   7.329  0.1026  0.1056 -0.2425
   53CHL1   H7A 3860   4.300   4.232   7.370  0.3753  1.3687  1.0617
   53CHL1   H7B 3861   4.227   4.397   7.354  1.3845 -0.0461 -0.1810
   53CHL1    C8 3862   4.089   4.212   7.390 -0.0885  0.2975 -0.2558
   53CHL1    H8 3863   4.112   4.104   7.406 -0.7197  0.0451 -0.9331
   53CHL1   C14 3864   4.071   4.259   7.536  0.3816  0.0137 -0.7253
   53CHL1   H14 3865   4.041   4.366   7.524  0.8283  0.4938  1.7898
   53CHL1   C15 3866   4.195   4.275   7.629  0.4594  0.1514  0.4799
   53CHL1  H15A 3867   4.257   4.183   7.638  2.2179  1.0918 -1.2142
   53CHL1  H15B 3868   4.259   4.361   7.601  0.0577 -0.6321 -3.4609
   53CHL1   C16 3869   4.125   4.298   7.769 -0.4591 -0.3877  0.7174
   53CHL1  H16A 3870   4.180   4.228   7.836 -0.1462 -0.8736 -0.0292
   53CHL1  H16B 3871   4.137   4.405   7.797  0.7328  0.2106 -1.7745
   53CHL1   C17 3872   3.964   4.274   7.747 -1.2607 -0.0297  0.1325
   53CHL1   H17 3873   3.917   4.374   7.740 -1.4976 -0.2316 -1.8214
   53CHL1   C13 3874   3.953   4.201   7.610  0.3573  1.1593 -0.4292
   53CHL1   C18 3875   3.976   4.047   7.621  0.4087 -0.2348  0.7235
   53CHL1  H18A 3876   3.897   4.004   7.685  1.2548 -0.4903  1.6170
   53CHL1  H18B 3877   3.956   3.995   7.524 -4.5828  1.3291  0.6358
   53CHL1  H18C 3878   4.074   4.013   7.661 -0.1023 -1.2815  1.1484
   53CHL1   C12 3879   3.826   4.222   7.528  0.4066  0.1957 -0.4207
   53CHL1  H12A 3880   3.744   4.159   7.568  2.7317 -2.0349  1.1246
   53CHL1  H12B 3881   3.797   4.330   7.529 -2.6150 -0.5334 -0.9641
   53CHL1   C11 3882   3.835   4.174   7.386 -0.2447 -0.3642 -0.0393
   53CHL1  H11A 3883   3.828   4.063   7.386 -0.3494 -0.3614  0.6631
   53CHL1  H11B 3884   3.749   4.208   7.324 -0.0324  1.3700  0.5565
   53CHL1    C9 3885   3.960   4.225   7.311 -1.1673 -0.8822  0.2258
   53CHL1    H9 3886   3.951   4.335   7.306 -1.0483 -0.9235 -1.7615
   53CHL1   C10 3887   3.984   4.179   7.168 -0.2553 -0.2737  0.4356
   53CHL1   C19 3888   3.986   4.028   7.158  0.0752 -0.5710 -0.5125
   53CHL1  H19A 3889   3.884   3.990   7.180 -0.1128 -0.9557 -1.9067
   53CHL1  H19B 3890   4.014   3.982   7.060  2.2900  1.0266 -0.7064
   53CHL1  H19C 3891   4.048   3.989   7.241  0.9657 -0.2843 -1.0277
   53CHL1    C1 3892   3.863   4.225   7.085  0.7114  0.3677 -0.3931
   53CHL1   H1A 3893   3.787   4.148   7.110  2.3562 -1.2853 -0.2340
   53CHL1   H1B 3894   3.816   4.319   7.118  0.0721  0.4964 -1.6130
   53CHL1    C2 3895   3.881   4.212   6.931 -0.7945 -0.3202  0.1931
   53CHL1   H2A 3896   3.797   4.262   6.878 -0.3048 -0.7988 -1.0523
   53CHL1   H2B 3897   3.886   4.107   6.896  3.1734 -0.9375  2.0011
   53CHL1   C20 3898   3.888   4.206   7.866 -0.0021  0.2501 -0.9268
   53CHL1   H20 3899   3.927   4.103   7.879 -1.2991  0.0983  3.1477
   53CHL1   C21 3900   3.735   4.193   7.844  0.2044  0.2969  0.2042
   53CHL1  H21A 3901   3.689   4.151   7.936 -0.4039  0.9546  0.2051
   53CHL1  H21B 3902   3.709   4.129   7.756  0.0404  1.3686 -0.5462
   53CHL1  H21C 3903   3.692   4.295   7.831 -1.5293 -0.0099  2.8188
   53CHL1   C22 3904   3.910   4.289   7.997 -0.8394  0.1374  1.7688
   53CHL1  H22A 3905   4.016   4.322   8.006 -0.7082  1.1002 -1.6757
   53CHL1  H22B 3906   3.850   4.378   7.971 -0.4985 -0.1447 -0.0965
   53CHL1   C23 3907   3.861   4.231   8.128  0.6270 -0.3259 -0.3426
   53CHL1  H23A 3908   3.751   4.243   8.119  0.6182 -0.8936 -1.1144
   53CHL1  H23B 3909   3.879   4.122   8.141  1.0244 -0.0787  1.4663
   53CHL1   C24 3910   3.913   4.292   8.257 -0.9991 -0.3029  0.2396
   53CHL1  H24A 3911   4.021   4.267   8.256 -1.3894 -2.2586  1.0475
   53CHL1  H24B 3912   3.916   4.403   8.253  0.1527 -0.2958  0.9450
   53CHL1   C25 3913   3.839   4.258   8.387 -0.5408  0.2017 -0.5464
   53CHL1   H25 3914   3.736   4.297   8.372 -1.0194 -1.0656 -0.7251
   53CHL1   C26 3915   3.817   4.111   8.407  0.2815  0.8303  0.5080
   53CHL1  H26A 3916   3.772   4.076   8.502  1.0280  0.5189  0.7559
   53CHL1  H26B 3917   3.764   4.059   8.324  0.2807 -0.0961  1.0731
   53CHL1  H26C 3918   3.909   4.048   8.411 -0.2785 -0.2066 -1.4100
   53CHL1   C27 3919   3.909   4.306   8.516  0.5122  0.8372  0.1784
   53CHL1  H27A 3920   3.938   4.414   8.518  1.3718  0.6076  0.9016
   53CHL1  H27B 3921   3.838   4.302   8.601  0.1560  2.4496 -0.0110
   53CHL1  H27C 3922   3.998   4.242   8.535 -0.7988 -1.7882 -1.8253
   54CHL1    C3 3923   3.773   0.003   6.956  0.1313 -0.1662 -0.5872
   54CHL1    H3 3924   3.766   0.112   6.978  0.5593 -0.3178  0.3639
   54CHL1    O3 3925   3.772  -0.023   6.817  0.1935 -0.3482  0.1415
   54CHL1   H3' 3926   3.764  -0.119   6.821  1.5723 -0.4508  2.0072
   54CHL1    C4 3927   3.880  -0.072   7.025 -0.6144  0.2489  0.2863
   54CHL1   H4A 3928   3.876  -0.176   6.986 -0.7457  1.1457 -2.3529
   54CHL1   H4B 3929   3.977  -0.031   6.990 -0.1485 -0.0089  1.2548
   54CHL1    C5 3930   3.877  -0.064   7.181 -0.0896 -1.3892  0.8831
   54CHL1    C6 3931   3.975  -0.015   7.256 -0.7599  0.2770 -0.3485
   54CHL1    H6 3932   4.071   0.027   7.225 -0.6387  1.0136  0.9759
   54CHL1    C7 3933   3.972  -0.017   7.404 -0.8741  0.5808 -0.3129
   54CHL1   H7A 3934   4.067  -0.046   7.454 -0.0133  4.1830  0.3772
   54CHL1   H7B 3935   3.953   0.090   7.427 -1.3721  0.2681  0.8191
   54CHL1    C8 3936   3.862  -0.110   7.464 -0.7483 -0.7042 -0.5383
   54CHL1    H8 3937   3.897  -0.213   7.439  1.4364 -0.3223  0.7095
   54CHL1   C14 3938   3.849  -0.097   7.617 -0.5153  0.3597  0.0049
   54CHL1   H14 3939   3.831   0.006   7.654  0.8247  0.0929  1.4709
   54CHL1   C15 3940   3.974  -0.126   7.698  0.1813  0.3226  0.1534
   54CHL1  H15A 3941   4.030  -0.213   7.656 -0.4846 -0.0814  0.0809
   54CHL1  H15B 3942   4.044  -0.040   7.702  0.1712  0.2883  1.3199
   54CHL1   C16 3943   3.918  -0.158   7.837  0.3736  0.0919 -0.2591
   54CHL1  H16A 3944   3.945  -0.259   7.874 -1.4092  0.0553  1.0270
   54CHL1  H16B 3945   3.950  -0.086   7.915  1.9080 -4.4704  3.7764
   54CHL1   C17 3946   3.763  -0.154   7.825  0.5651  0.7740  0.0522
   54CHL1   H17 3947   3.728  -0.051   7.846 -1.7664  0.3882 -1.6031
   54CHL1   C13 3948   3.737  -0.177   7.676 -0.1545  0.0313  0.6678
   54CHL1   C18 3949   3.754  -0.325   7.647 -0.1927 -0.0534 -0.8631
   54CHL1  H18A 3950   3.657  -0.372   7.673 -0.1785  0.8437  0.9085
   54CHL1  H18B 3951   3.757  -0.357   7.540 -0.1739 -0.3328 -0.7798
   54CHL1  H18C 3952   3.835  -0.373   7.706 -1.7742 -1.0329  0.5796
   54CHL1   C12 3953   3.612  -0.117   7.623  0.8461 -0.3906  0.4037
   54CHL1  H12A 3954   3.515  -0.154   7.663 -0.1950  0.8732 -0.8375
   54CHL1  H12B 3955   3.609  -0.009   7.647  0.3353  0.7306 -3.8032
   54CHL1   C11 3956   3.604  -0.127   7.465 -0.1485  0.0448 -0.1254
   54CHL1  H11A 3957   3.580  -0.235   7.449 -3.1144  0.4488  0.9291
   54CHL1  H11B 3958   3.517  -0.065   7.434  0.2315  0.2763 -0.7442
   54CHL1    C9 3959   3.735  -0.081   7.392  0.5863 -0.4039 -0.1371
   54CHL1    H9 3960   3.727   0.030   7.400 -1.4525 -0.5156 -0.2279
   54CHL1   C10 3961   3.742  -0.098   7.241  0.2541  0.5385 -0.0039
   54CHL1   C19 3962   3.730  -0.250   7.226 -0.4708 -0.0848 -0.1548
   54CHL1  H19A 3963   3.628  -0.289   7.247 -1.3765  1.3712 -1.6979
   54CHL1  H19B 3964   3.746  -0.272   7.119 -0.3047  1.2992 -0.4274
   54CHL1  H19C 3965   3.797  -0.313   7.288 -0.9734 -1.6083 -1.1024
   54CHL1    C1 3966   3.628  -0.033   7.164 -0.1747 -0.5230 -0.6456
   54CHL1   H1A 3967   3.528  -0.076   7.189  0.1184 -2.0006 -1.8932
   54CHL1   H1B 3968   3.634   0.077   7.181  1.3750 -0.6387 -0.3379
   54CHL1    C2 3969   3.639  -0.052   7.004  0.1003 -0.0815 -0.7352
   54CHL1   H2A 3970   3.555  -0.001   6.954 -0.1840 -0.4602 -0.6480
   54CHL1   H2B 3971   3.626  -0.160   6.980  2.7697 -0.9821  1.3251
   54CHL1   C20 3972   3.691  -0.232   7.936 -0.3205 -0.4460  0.4666
   54CHL1   H20 3973   3.723  -0.336   7.918  0.6756  0.2143 -1.9006
   54CHL1   C21 3974   3.542  -0.241   7.908 -0.6786  0.0666 -0.5663
   54CHL1  H21A 3975   3.487  -0.286   7.992  0.0502  0.9610  0.4188
   54CHL1  H21B 3976   3.513  -0.299   7.818  0.4851 -1.4381 -0.0055
   54CHL1  H21C 3977   3.500  -0.140   7.889  1.1677  0.7140 -1.4625
   54CHL1   C22 3978   3.714  -0.177   8.084  0.2542 -0.2664  0.2970
   54CHL1  H22A 3979   3.823  -0.169   8.105  0.0812  0.5561  0.9212
   54CHL1  H22B 3980   3.672  -0.075   8.097  3.9116  1.3224  0.8704
   54CHL1   C23 3981   3.649  -0.272   8.194 -0.1368 -0.4851  0.3265
   54CHL1  H23A 3982   3.538  -0.270   8.194 -0.1741 -0.8733 -1.5958
   54CHL1  H23B 3983   3.685  -0.374   8.168 -1.7843 -1.0165  0.0464
   54CHL1   C24 3984   3.715  -0.237   8.330  0.1939  0.1310  0.1882
   54CHL1  H24A 3985   3.823  -0.260   8.335  0.0759 -0.4702  0.1132
   54CHL1  H24B 3986   3.698  -0.128   8.343  0.7906  0.3877 -1.0809
   54CHL1   C25 3987   3.650  -0.308   8.453  0.0367  0.4982  0.1192
   54CHL1   H25 3988   3.636  -0.415   8.428  0.1013  0.4818  0.1496
   54CHL1   C26 3989   3.754  -0.295   8.568  0.9868  0.2050 -0.0667
   54CHL1  H26A 3990   3.856  -0.336   8.550  0.8115  0.1601 -1.0341
   54CHL1  H26B 3991   3.770  -0.190   8.599  3.5925  0.1565 -0.9747
   54CHL1  H26C 3992   3.705  -0.355   8.648 -0.5224 -0.7313 -1.6184
   54CHL1   C27 3993   3.517  -0.242   8.486  0.3157  0.3909 -0.6487
   54CHL1  H27A 3994   3.476  -0.186   8.399 -2.3385 -1.0611 -0.4241
   54CHL1  H27B 3995   3.435  -0.300   8.532  2.2230  0.4868  3.2844
   54CHL1  H27C 3996   3.534  -0.162   8.561 -0.9539 -0.8967  1.0916
   55CHL1    C3 3997   3.610   0.833   7.112  0.1674  0.4551 -0.3787
   55CHL1    H3 3998   3.632   0.724   7.111  0.7505  0.5749 -0.5789
   55CHL1    O3 3999   3.619   0.883   6.980 -0.2287  0.1064  0.3587
   55CHL1   H3' 4000   3.591   0.974   6.986 -0.5799  0.0603 -0.4806
   55CHL1    C4 4001   3.468   0.855   7.155  0.8296  0.0290 -0.3920
   55CHL1   H4A 4002   3.444   0.962   7.139  0.2243 -0.5594 -5.0248
   55CHL1   H4B 4003   3.416   0.794   7.078  0.8552 -1.3495  0.6357
   55CHL1    C5 4004   3.446   0.811   7.294  0.3810 -0.2070 -0.7137
   55CHL1    C6 4005   3.351   0.722   7.328  0.4559  0.2953 -0.4256
   55CHL1    H6 4006   3.291   0.678   7.247  2.3908 -0.3037 -1.6306
   55CHL1    C7 4007   3.318   0.673   7.470 -0.1474  0.1632  0.5605
   55CHL1   H7A 4008   3.208   0.665   7.480 -0.0189 -0.1831  1.7828
   55CHL1   H7B 4009   3.356   0.569   7.478 -2.5281 -1.0480 -2.0865
   55CHL1    C8 4010   3.393   0.751   7.580 -0.7093  0.0253  0.5426
   55CHL1    H8 4011   3.327   0.838   7.597 -0.3183  0.8247 -1.7058
   55CHL1   C14 4012   3.411   0.670   7.703 -0.3409 -0.7332 -0.2642
   55CHL1   H14 4013   3.472   0.582   7.675 -0.2332 -0.1457 -1.9668
   55CHL1   C15 4014   3.285   0.609   7.770 -0.4151  0.0049 -0.3104
   55CHL1  H15A 4015   3.196   0.668   7.739 -0.4117 -0.3323 -0.9871
   55CHL1  H15B 4016   3.265   0.518   7.709  1.0233  1.0877 -2.5557
   55CHL1   C16 4017   3.316   0.596   7.921  0.2036 -0.9463  0.1410
   55CHL1  H16A 4018   3.236   0.646   7.980  0.8012  0.3158 -0.0792
   55CHL1  H16B 4019   3.327   0.489   7.948  2.8697 -0.3915  1.6157
   55CHL1   C17 4020   3.459   0.657   7.943 -0.6428  0.6829  0.1359
   55CHL1   H17 4021   3.528   0.576   7.910 -0.3557  0.2572  1.6980
   55CHL1   C13 4022   3.483   0.753   7.821 -0.2957  0.7742  0.4137
   55CHL1   C18 4023   3.413   0.879   7.856 -1.1032 -0.5438  0.1519
   55CHL1  H18A 4024   3.310   0.856   7.891 -0.4875 -2.2791  0.9322
   55CHL1  H18B 4025   3.465   0.935   7.936 -1.4165 -1.7411  1.2342
   55CHL1  H18C 4026   3.405   0.954   7.774  2.1999 -0.9298 -0.6892
   55CHL1   C12 4027   3.626   0.785   7.775 -0.6397  1.0836  0.0047
   55CHL1  H12A 4028   3.685   0.840   7.851 -0.5380 -0.7598  1.3420
   55CHL1  H12B 4029   3.675   0.687   7.755 -1.5862  0.5139  0.3708
   55CHL1   C11 4030   3.629   0.863   7.642 -0.3998  0.2145  0.0269
   55CHL1  H11A 4031   3.613   0.971   7.662 -0.8147  0.1627 -0.0105
   55CHL1  H11B 4032   3.734   0.858   7.606  0.1301  0.2640  1.4743
   55CHL1    C9 4033   3.540   0.801   7.529  0.0893  0.0231 -0.9152
   55CHL1    H9 4034   3.585   0.701   7.511  1.6197  0.3870  0.6201
   55CHL1   C10 4035   3.549   0.875   7.394 -0.3887  0.1460  0.4782
   55CHL1   C19 4036   3.493   1.018   7.418 -0.1045  0.0406  0.0433
   55CHL1  H19A 4037   3.565   1.059   7.492  1.4545 -1.6875 -0.4365
   55CHL1  H19B 4038   3.498   1.075   7.322 -2.0843 -2.2625 -1.5613
   55CHL1  H19C 4039   3.392   1.026   7.462  0.0602  2.0447  0.1569
   55CHL1    C1 4040   3.698   0.883   7.342 -0.3457  1.3001 -0.7764
   55CHL1   H1A 4041   3.753   0.959   7.401  0.3177  0.4838 -0.3374
   55CHL1   H1B 4042   3.739   0.783   7.368 -0.2797  1.0267 -1.8890
   55CHL1    C2 4043   3.709   0.912   7.194  0.2401  0.4663 -0.0035
   55CHL1   H2A 4044   3.816   0.899   7.168  0.7909 -0.4441  2.4478
   55CHL1   H2B 4045   3.681   1.019   7.186  2.3828  1.1596  1.0191
   55CHL1   C20 4046   3.493   0.706   8.083  0.4614  0.2067 -0.7097
   55CHL1   H20 4047   3.564   0.791   8.068  3.4196 -1.7598  1.0758
   55CHL1   C21 4048   3.569   0.591   8.151 -0.8323  0.5217 -0.3769
   55CHL1  H21A 4049   3.607   0.636   8.245 -1.2597  2.5981 -1.1367
   55CHL1  H21B 4050   3.651   0.551   8.087  0.2649  0.6248  0.9081
   55CHL1  H21C 4051   3.492   0.520   8.186 -0.3316  0.4809  0.6587
   55CHL1   C22 4052   3.384   0.767   8.172 -0.0609  0.5334  0.2762
   55CHL1  H22A 4053   3.324   0.822   8.097  0.3750 -1.5493 -1.7049
   55CHL1  H22B 4054   3.320   0.687   8.216  0.9089 -0.1526  0.4815
   55CHL1   C23 4055   3.425   0.855   8.292  0.3117  0.7978 -0.5274
   55CHL1  H23A 4056   3.324   0.894   8.316 -0.6991 -1.6872 -0.4036
   55CHL1  H23B 4057   3.449   0.791   8.380 -1.0775  0.1104 -0.6319
   55CHL1   C24 4058   3.526   0.969   8.259  0.3119 -0.6008 -0.1827
   55CHL1  H24A 4059   3.630   0.931   8.251 -0.4055 -2.3360 -2.0900
   55CHL1  H24B 4060   3.485   1.009   8.163 -1.0674 -1.4057  0.0479
   55CHL1   C25 4061   3.555   1.079   8.367 -0.5048 -0.1932  0.0415
   55CHL1   H25 4062   3.458   1.109   8.411 -0.9049 -0.0334 -0.9327
   55CHL1   C26 4063   3.650   1.034   8.479  0.0426 -0.4110 -0.1336
   55CHL1  H26A 4064   3.752   1.012   8.443 -0.1450 -1.0513 -0.2872
   55CHL1  H26B 4065   3.653   1.116   8.555 -1.2870 -1.1230  0.7353
   55CHL1  H26C 4066   3.608   0.946   8.533 -0.2149  0.5891  1.3557
   55CHL1   C27 4067   3.610   1.204   8.298 -0.3600 -0.2760 -0.0763
   55CHL1  H27A 4068   3.703   1.183   8.241 -1.8864 -0.1209 -2.8241
   55CHL1  H27B 4069   3.535   1.247   8.228 -0.7527  2.3848  1.8450
   55CHL1  H27C 4070   3.628   1.281   8.376  1.7558 -0.3010 -0.4663
   56CHL1    C3 4071   2.306   5.983   6.970 -0.5110 -0.5622 -0.0361
   56CHL1    H3 4072   2.264   5.881   6.979 -0.5705 -0.7203 -1.8916
   56CHL1    O3 4073   2.302   6.026   6.837 -0.2445 -0.4369 -0.2279
   56CHL1   H3' 4074   2.360   6.102   6.836 -1.8726  1.1082  3.2107
   56CHL1    C4 4075   2.216   6.082   7.049  0.3997  0.4934  0.2446
   56CHL1   H4A 4076   2.270   6.179   7.043 -0.0677  0.7671  0.4814
   56CHL1   H4B 4077   2.122   6.087   6.990 -0.9752 -0.7828  2.2014
   56CHL1    C5 4078   2.208   6.045   7.191  0.0587  0.5134 -0.0751
   56CHL1    C6 4079   2.096   6.002   7.252 -0.7710 -0.2157  0.4325
   56CHL1    H6 4080   2.008   5.997   7.185 -1.6250 -0.5594  1.5472
   56CHL1    C7 4081   2.067   5.965   7.391 -0.4826 -0.2378 -0.0421
   56CHL1   H7A 4082   1.974   6.018   7.418  0.6744  2.4777 -1.0600
   56CHL1   H7B 4083   2.066   5.854   7.396 -0.7180 -0.2729 -0.7839
   56CHL1    C8 4084   2.185   6.006   7.480 -0.8989 -0.0084 -1.0175
   56CHL1    H8 4085   2.190   6.117   7.489  0.4456  0.0635 -2.1907
   56CHL1   C14 4086   2.172   5.940   7.619  0.1004  0.2903 -0.4087
   56CHL1   H14 4087   2.166   5.832   7.597 -2.5986  0.3756 -0.3847
   56CHL1   C15 4088   2.045   5.982   7.699 -0.5780  0.5177 -0.3736
   56CHL1  H15A 4089   2.017   6.089   7.700 -1.8871  0.1883  0.4273
   56CHL1  H15B 4090   1.960   5.917   7.670  0.5265  0.1993 -3.2374
   56CHL1   C16 4091   2.086   5.936   7.847  0.5374 -0.0849  0.9698
   56CHL1  H16A 4092   2.068   6.021   7.917  1.5985 -0.0054  1.1591
   56CHL1  H16B 4093   2.011   5.861   7.880 -0.1046  0.6753  1.2709
   56CHL1   C17 4094   2.231   5.881   7.832 -0.1637 -0.3610 -0.0169
   56CHL1   H17 4095   2.229   5.772   7.812 -0.4027 -0.8314  2.3605
   56CHL1   C13 4096   2.295   5.957   7.711 -0.1172 -0.0437  0.3911
   56CHL1   C18 4097   2.321   6.105   7.753  0.5002  0.1065  0.4471
   56CHL1  H18A 4098   2.333   6.167   7.662  0.1615  0.6888  0.7994
   56CHL1  H18B 4099   2.240   6.164   7.800  0.3555 -0.4323  0.8820
   56CHL1  H18C 4100   2.403   6.124   7.826 -1.3524 -0.8097  2.9078
   56CHL1   C12 4101   2.414   5.896   7.640  0.1279 -0.0390 -0.0322
   56CHL1  H12A 4102   2.511   5.914   7.690  1.5744 -1.0250 -2.3306
   56CHL1  H12B 4103   2.388   5.788   7.634  1.3501 -0.4494  1.5018
   56CHL1   C11 4104   2.441   5.957   7.494 -0.3104  0.1716  0.2919
   56CHL1  H11A 4105   2.480   6.056   7.527  0.9386  0.6567 -2.3152
   56CHL1  H11B 4106   2.521   5.902   7.440 -1.1981  0.3424 -1.2496
   56CHL1    C9 4107   2.315   5.963   7.402  0.4453  0.5510 -0.2659
   56CHL1    H9 4108   2.298   5.856   7.381  1.2014  0.3966 -0.0913
   56CHL1   C10 4109   2.345   6.042   7.266 -0.0043 -0.1355 -0.3035
   56CHL1   C19 4110   2.411   6.179   7.294  0.2997  0.1534  0.4955
   56CHL1  H19A 4111   2.427   6.231   7.197 -0.2180  0.5642  0.6236
   56CHL1  H19B 4112   2.350   6.245   7.358  2.2444  0.0156  2.6186
   56CHL1  H19C 4113   2.509   6.161   7.344  0.7779 -0.0282 -0.4832
   56CHL1    C1 4114   2.446   5.948   7.180  0.6414  0.1486  0.7460
   56CHL1   H1A 4115   2.553   5.969   7.203  1.1024  0.1577 -1.2891
   56CHL1   H1B 4116   2.425   5.841   7.200  3.1044 -0.4471  0.4538
   56CHL1    C2 4117   2.449   5.983   7.027 -0.0627  0.0835  0.2227
   56CHL1   H2A 4118   2.523   5.928   6.964  0.8790  0.9640  0.5354
   56CHL1   H2B 4119   2.499   6.081   7.012  3.0831 -1.0540  2.3723
   56CHL1   C20 4120   2.297   5.893   7.975 -0.1206 -0.9456  0.1251
   56CHL1   H20 4121   2.295   6.001   8.002 -0.2741 -0.6718 -0.9391
   56CHL1   C21 4122   2.448   5.839   7.979  0.2093  0.9535 -0.7571
   56CHL1  H21A 4123   2.499   5.846   8.077 -1.9555 -2.0210  0.7521
   56CHL1  H21B 4124   2.509   5.894   7.905 -0.7739  0.8527 -1.6669
   56CHL1  H21C 4125   2.451   5.732   7.949 -0.6632  0.5644  0.4151
   56CHL1   C22 4126   2.217   5.823   8.085  0.1904  0.3149 -0.4037
   56CHL1  H22A 4127   2.113   5.862   8.084 -0.1512 -0.5977 -0.9477
   56CHL1  H22B 4128   2.209   5.714   8.071  3.8359 -0.3139  1.2475
   56CHL1   C23 4129   2.274   5.839   8.225  0.0769 -0.2933 -0.2676
   56CHL1  H23A 4130   2.360   5.768   8.235  0.1470 -0.0552  1.0284
   56CHL1  H23B 4131   2.326   5.937   8.224  0.8685 -0.7008 -1.4690
   56CHL1   C24 4132   2.179   5.811   8.342 -0.0683 -0.3147 -0.5094
   56CHL1  H24A 4133   2.088   5.875   8.336  0.5852  0.6232 -0.5537
   56CHL1  H24B 4134   2.158   5.702   8.337 -0.1414 -0.3813  0.8960
   56CHL1   C25 4135   2.223   5.827   8.489  0.2490  0.1203  0.2173
   56CHL1   H25 4136   2.262   5.930   8.501 -0.0804  0.1951  0.6874
   56CHL1   C26 4137   2.107   5.791   8.589  0.1149 -0.3293 -0.3049
   56CHL1  H26A 4138   2.012   5.826   8.544  0.9190  2.0419 -0.3120
   56CHL1  H26B 4139   2.121   5.856   8.678 -0.6592 -0.0468 -0.3834
   56CHL1  H26C 4140   2.102   5.682   8.609  0.4482 -0.2946 -0.0178
   56CHL1   C27 4141   2.354   5.741   8.517 -0.3767 -0.4049 -0.1832
   56CHL1  H27A 4142   2.324   5.634   8.517  0.4101 -0.7421  2.9183
   56CHL1  H27B 4143   2.443   5.770   8.457  0.9327  3.5010  3.1514
   56CHL1  H27C 4144   2.371   5.752   8.627 -0.9937 -0.0252 -0.1233
   57SAPC     N 4145   6.595   2.815  11.244  0.2543 -0.3412 -0.0951
   57SAPC   C12 4146   6.617   2.781  11.099  0.2158  0.3732 -0.0894
   57SAPC  H12A 4147   6.616   2.674  11.084  2.5715  0.0710  1.3035
   57SAPC  H12B 4148   6.721   2.802  11.078  0.7688 -0.7575  1.3927
   57SAPC   C13 4149   6.704   2.767  11.331  0.3124  0.2992 -0.4650
   57SAPC  H13A 4150   6.686   2.809  11.428  0.2981 -0.4976 -0.1143
   57SAPC  H13B 4151   6.700   2.660  11.345  0.8073  0.1189 -1.5809
   57SAPC  H13C 4152   6.803   2.790  11.297 -0.1942 -1.0343 -3.1496
   57SAPC   C14 4153   6.583   2.963  11.258  0.4337 -0.0972  0.3711
   57SAPC  H14A 4154   6.565   3.001  11.358  0.0209  0.1339  0.2130
   57SAPC  H14B 4155   6.655   3.025  11.206 -0.5658  2.4858  1.8228
   57SAPC  H14C 4156   6.494   2.987  11.200 -1.2672 -2.6771  1.7515
   57SAPC   C15 4157   6.466   2.748  11.271 -0.4800  0.3117 -0.2194
   57SAPC  H15A 4158   6.468   2.644  11.240  0.0660  0.4841 -0.7815
   57SAPC  H15B 4159   6.446   2.754  11.377 -2.0854  3.0458 -0.5984
   57SAPC  H15C 4160   6.385   2.798  11.221 -0.8035 -0.0742 -0.0908
   57SAPC   C11 4161   6.533   2.850  10.994 -0.2192  1.2102  0.2572
   57SAPC  H11A 4162   6.570   2.830  10.891 -0.4280  0.7716  0.2620
   57SAPC  H11B 4163   6.542   2.960  10.998  1.1002  1.0870  1.4993
   57SAPC     P 4164   6.291   2.869  10.884  0.4526  0.4045  0.1665
   57SAPC   O13 4165   6.179   2.775  10.893  0.7952  0.7573 -0.1771
   57SAPC   O14 4166   6.260   3.010  10.905  0.2263 -0.4960 -0.0841
   57SAPC   O12 4167   6.396   2.825  10.993 -0.8531  0.5635  0.2456
   57SAPC   O11 4168   6.355   2.846  10.739  0.0894  0.0337  0.4132
   57SAPC    C1 4169   6.383   2.714  10.688 -0.2610 -0.2863 -0.6886
   57SAPC    HA 4170   6.402   2.637  10.767 -1.4241  1.4316  1.3682
   57SAPC    HB 4171   6.293   2.669  10.643 -1.2734  0.8338  0.1578
   57SAPC    C2 4172   6.502   2.724  10.589 -0.1866  0.3823 -0.2491
   57SAPC    HS 4173   6.595   2.747  10.645  0.9878 -0.2942 -1.8421
   57SAPC   O21 4174   6.468   2.820  10.482 -0.4885  0.1232  0.1302
   57SAPC   C21 4175   6.576   2.855  10.409 -0.7328  0.1668  0.1724
   57SAPC   O22 4176   6.690   2.829  10.441  0.1176  0.6027 -0.6356
   57SAPC   C22 4177   6.539   2.947  10.298  1.0535  0.0107  0.1403
   57SAPC   H2R 4178   6.521   3.045  10.348  3.9860  0.2129  0.9789
   57SAPC   H2S 4179   6.619   2.962  10.222  0.2934  2.5005 -0.2734
   57SAPC    C3 4180   6.540   2.584  10.531 -0.6030  0.3980  0.7599
   57SAPC    HX 4181   6.574   2.526  10.619 -1.6213  1.3197  1.7783
   57SAPC    HY 4182   6.638   2.595  10.480 -0.4176 -1.6408  0.5722
   57SAPC   O31 4183   6.434   2.516  10.460  0.0308  0.3697 -0.2535
   57SAPC   C31 4184   6.478   2.397  10.426  0.7244  0.4120 -0.2162
   57SAPC   O32 4185   6.584   2.343  10.462  0.3522 -0.8242  0.8274
   57SAPC   C32 4186   6.384   2.319  10.335 -0.5975 -0.5307 -0.0971
   57SAPC   H2X 4187   6.310   2.394  10.300  1.0959  0.9209 -0.7203
   57SAPC   H2Y 4188   6.341   2.242  10.401  1.6058 -0.0471  2.0761
   57SAPC   C23 4189   6.412   2.895  10.224 -0.0037  0.5745 -0.1752
   57SAPC   H3R 4190   6.392   2.974  10.149 -2.8907  0.6599  0.5703
   57SAPC   H3S 4191   6.323   2.894  10.290 -0.6211  0.4400 -1.0056
   57SAPC   C24 4192   6.429   2.756  10.161  0.1730 -0.9648 -0.4215
   57SAPC   H4R 4193   6.459   2.676  10.233 -1.3520  0.7084  2.2585
   57SAPC   H4S 4194   6.508   2.761  10.084 -0.7423  0.5365 -1.3067
   57SAPC   C25 4195   6.301   2.727  10.088  0.3127  0.9749  0.2159
   57SAPC   H5R 4196   6.224   2.698  10.162  1.5409  0.2735  1.2728
   57SAPC   C26 4197   6.280   2.717   9.957 -0.4381  0.6661  0.0195
   57SAPC   H6R 4198   6.175   2.713   9.924 -0.1939  1.6685 -0.8991
   57SAPC   C27 4199   6.366   2.742   9.828  0.1995  0.3253  0.1481
   57SAPC   H7R 4200   6.295   2.764   9.746  0.7745  1.8006  0.0187
   57SAPC   H7S 4201   6.415   2.648   9.794 -0.7532 -0.1319  0.0130
   57SAPC   C28 4202   6.453   2.868   9.827 -0.7526 -0.4083  0.1727
   57SAPC   H8R 4203   6.445   2.934   9.914  0.7420  0.7900 -0.5601
   57SAPC   C29 4204   6.524   2.916   9.717  0.0368  0.4059 -1.1306
   57SAPC   H9R 4205   6.568   3.017   9.719  0.0645  0.3749  0.1190
   57SAPC  C210 4206   6.543   2.847   9.586  0.4156 -0.1166  0.1540
   57SAPC  H10R 4207   6.542   2.920   9.503 -0.3037 -1.4180 -1.0338
   57SAPC  H10S 4208   6.464   2.780   9.546  2.5546 -1.9199 -1.3482
   57SAPC  C211 4209   6.668   2.762   9.579 -0.5486  0.6964  0.6193
   57SAPC  H11R 4210   6.679   2.672   9.642 -0.8406  0.0522 -0.2294
   57SAPC  C212 4211   6.773   2.788   9.491  0.6204 -0.5865 -0.6040
   57SAPC  H12R 4212   6.862   2.723   9.486 -0.3653 -1.9338 -1.3054
   57SAPC  C213 4213   6.777   2.897   9.391  0.0989 -0.4972  0.5245
   57SAPC  H13R 4214   6.678   2.931   9.354  0.6672  1.2337  0.4865
   57SAPC  H13S 4215   6.835   2.874   9.300 -0.5384  1.1062 -0.3199
   57SAPC  C214 4216   6.829   3.026   9.454  0.2026  0.3201  0.3375
   57SAPC  H14R 4217   6.765   3.079   9.526  1.3994  1.6713  0.4611
   57SAPC  C215 4218   6.951   3.072   9.420  0.5026 -0.6138  0.4234
   57SAPC  H15R 4219   6.991   3.157   9.477  1.3449  0.3636 -1.5098
   57SAPC  C216 4220   7.059   3.003   9.326 -0.0146 -0.6939 -0.3065
   57SAPC  H16R 4221   7.032   3.012   9.218  1.5570  1.1387 -0.6148
   57SAPC  H16S 4222   7.067   2.897   9.356  0.2041 -1.1090 -1.7600
   57SAPC  C217 4223   7.192   3.073   9.354  0.4268  0.2421  0.4288
   57SAPC  H17R 4224   7.212   3.068   9.464  0.9106  2.3240  0.4659
   57SAPC  H17S 4225   7.186   3.179   9.321  2.1143  0.0676 -0.5371
   57SAPC  C218 4226   7.300   3.011   9.268 -0.2180 -0.7585  0.2942
   57SAPC  H18R 4227   7.285   2.901   9.275 -0.7467 -0.8130 -1.1978
   57SAPC  H18S 4228   7.400   3.051   9.296 -0.7317  2.4967 -1.8848
   57SAPC  C219 4229   7.296   3.051   9.118  0.6123 -0.0914 -0.1229
   57SAPC  H19R 4230   7.351   3.147   9.115  0.5163 -0.0538 -2.0951
   57SAPC  H19S 4231   7.193   3.078   9.086  0.1927 -0.4673  0.8514
   57SAPC  C220 4232   7.362   2.949   9.028  0.2614 -0.1741 -0.5879
   57SAPC  H20R 4233   7.302   2.855   9.025 -0.0502 -0.0079  0.1142
   57SAPC  H20S 4234   7.464   2.932   9.068  0.0399 -0.0457  0.0369
   57SAPC  H20T 4235   7.375   2.981   8.922  1.9087  0.1310 -0.3218
   57SAPC   C33 4236   6.462   2.251  10.220 -0.0842 -0.2808 -0.0645
   57SAPC   H3X 4237   6.537   2.187  10.271 -0.4375 -1.3316 -0.8175
   57SAPC   H3Y 4238   6.514   2.325  10.156  0.3530 -0.6400 -0.1310
   57SAPC   C34 4239   6.369   2.179  10.121  0.1325 -0.4129 -0.1513
   57SAPC   H4X 4240   6.300   2.109  10.173  0.7106  0.1975  1.5097
   57SAPC   H4Y 4241   6.432   2.122  10.050  0.9295 -1.3670  1.2588
   57SAPC   C35 4242   6.277   2.263  10.031  0.3148  0.2742  0.2211
   57SAPC   H5X 4243   6.335   2.355  10.008 -0.6507  1.0557  0.8136
   57SAPC   H5Y 4244   6.185   2.286  10.089 -1.6361 -1.6742 -1.8935
   57SAPC   C36 4245   6.246   2.193   9.900  0.8348 -0.1395  0.2178
   57SAPC   H6X 4246   6.138   2.166   9.908  0.6165  1.2526  3.5096
   57SAPC   H6Y 4247   6.294   2.093   9.901  1.3804  0.0720  3.0425
   57SAPC   C37 4248   6.293   2.270   9.776 -0.1431 -1.1435 -0.5849
   57SAPC   H7X 4249   6.401   2.289   9.797 -0.9272  2.2283  1.0657
   57SAPC   H7Y 4250   6.234   2.364   9.780  2.2568  0.4067  2.0453
   57SAPC   C38 4251   6.281   2.199   9.638  0.2180 -0.3860  0.6915
   57SAPC   H8X 4252   6.183   2.148   9.626 -0.3442  0.0650  2.9746
   57SAPC   H8Y 4253   6.355   2.116   9.641  0.8673  0.0279 -1.6483
   57SAPC   C39 4254   6.297   2.302   9.518 -0.3562 -0.1625  0.0336
   57SAPC   H9X 4255   6.260   2.401   9.553  1.3459  0.5638 -0.1265
   57SAPC   H9Y 4256   6.223   2.289   9.436 -1.5603 -1.0272  1.2138
   57SAPC  C310 4257   6.437   2.314   9.464  0.1403  0.2003 -0.1724
   57SAPC  H10X 4258   6.453   2.223   9.402  0.0771  0.9504 -1.3100
   57SAPC  H10Y 4259   6.520   2.324   9.538  1.6874 -1.3975 -1.5957
   57SAPC  C311 4260   6.462   2.447   9.377 -0.4262  0.4458 -0.0997
   57SAPC  H11X 4261   6.567   2.462   9.344 -0.3404 -1.4028 -0.7501
   57SAPC  H11Y 4262   6.434   2.532   9.443 -1.9004  2.5577 -3.1987
   57SAPC  C312 4263   6.386   2.465   9.248 -0.1071 -0.2717 -0.1569
   57SAPC  H12X 4264   6.280   2.485   9.275 -0.5165 -1.2558 -0.9842
   57SAPC  H12Y 4265   6.403   2.376   9.184 -1.3118  1.1745 -2.6321
   57SAPC  C313 4266   6.424   2.591   9.179 -0.1511  0.0634  0.3430
   57SAPC  H13X 4267   6.526   2.589   9.135  0.7546  2.4964  2.1192
   57SAPC  H13Y 4268   6.441   2.665   9.260 -0.4392  0.7170 -0.1877
   57SAPC  C314 4269   6.322   2.643   9.081 -0.9533 -0.1326 -0.0885
   57SAPC  H14X 4270   6.351   2.751   9.077 -1.6893  0.0491 -0.7645
   57SAPC  H14Y 4271   6.215   2.642   9.109 -1.2527  1.0934 -1.0822
   57SAPC  C315 4272   6.338   2.577   8.945 -0.0739  0.0419 -0.0106
   57SAPC  H15X 4273   6.395   2.482   8.954 -0.0514  0.0217 -0.3243
   57SAPC  H15Y 4274   6.409   2.644   8.890 -2.0581  2.4788  0.2325
   57SAPC  C316 4275   6.206   2.564   8.868  0.7773 -0.4475  0.8224
   57SAPC  H16X 4276   6.178   2.670   8.851 -1.5381 -1.0368  0.5480
   57SAPC  H16Y 4277   6.127   2.520   8.934 -0.1514  0.2810  0.2245
   57SAPC  C317 4278   6.214   2.478   8.743  0.0236 -0.7791  0.2096
   57SAPC  H17X 4279   6.192   2.373   8.769  1.4389 -1.1577 -0.0367
   57SAPC  H17Y 4280   6.309   2.489   8.687 -1.3432  0.7040 -2.0169
   57SAPC  C318 4281   6.104   2.522   8.643  0.7115  0.7104 -0.0310
   57SAPC  H18X 4282   6.005   2.518   8.694  0.6900 -1.5344 -0.1485
   57SAPC  H18Y 4283   6.094   2.448   8.561 -1.3548  0.7044  0.1707
   57SAPC  H18Z 4284   6.114   2.621   8.595 -2.5932  1.8995  1.4139
   58SAPC     N 4285   3.190   2.469  10.794 -0.5099 -0.0412  0.3382
   58SAPC   C12 4286   3.219   2.592  10.698 -0.0998 -0.2304 -0.3158
   58SAPC  H12A 4287   3.130   2.612  10.640  0.8575 -3.1088 -3.1006
   58SAPC  H12B 4288   3.286   2.563  10.618 -0.3895  0.8664 -0.9752
   58SAPC   C13 4289   3.086   2.507  10.891  0.6707  0.1962 -0.4452
   58SAPC  H13A 4290   2.986   2.533  10.861  0.2311  0.8758  1.4435
   58SAPC  H13B 4291   3.090   2.436  10.973  3.0470 -0.6930 -1.2580
   58SAPC  H13C 4292   3.120   2.602  10.932  2.4678 -0.6397  0.1086
   58SAPC   C14 4293   3.152   2.349  10.721 -0.3091  0.0448  0.0748
   58SAPC  H14A 4294   3.124   2.265  10.783 -1.9478  0.1072 -0.5465
   58SAPC  H14B 4295   3.071   2.371  10.654 -0.4149  1.6406  0.6985
   58SAPC  H14C 4296   3.227   2.303  10.658 -1.1178 -2.3258  0.7500
   58SAPC   C15 4297   3.314   2.441  10.864  0.6272 -0.2568 -0.0994
   58SAPC  H15A 4298   3.395   2.395  10.810 -0.3461 -1.0365 -0.9233
   58SAPC  H15B 4299   3.346   2.531  10.916  0.5930 -0.0982 -0.3465
   58SAPC  H15C 4300   3.298   2.378  10.950 -1.3669  1.5064  0.9101
   58SAPC   C11 4301   3.273   2.724  10.753 -0.1175 -0.1895 -0.3911
   58SAPC  H11A 4302   3.282   2.799  10.671 -1.0027  0.8702  0.4345
   58SAPC  H11B 4303   3.375   2.698  10.788 -1.1168 -1.1805  1.9651
   58SAPC     P 4304   3.095   2.899  10.836 -0.6716 -0.1521  0.3443
   58SAPC   O13 4305   3.009   2.866  10.715 -0.8831  0.3289  0.1233
   58SAPC   O14 4306   3.030   2.935  10.959  0.7595 -0.1570  0.0717
   58SAPC   O12 4307   3.196   2.776  10.860 -0.0319 -0.3612 -0.9325
   58SAPC   O11 4308   3.185   3.024  10.791  0.0862  0.4903 -0.1398
   58SAPC    C1 4309   3.304   3.039  10.870 -0.2583 -0.5399 -0.3778
   58SAPC    HA 4310   3.286   3.059  10.978  0.4427 -0.0207 -0.3504
   58SAPC    HB 4311   3.371   2.951  10.860  1.2974  0.5921 -0.2438
   58SAPC    C2 4312   3.396   3.154  10.814 -0.8476 -0.6276  0.0863
   58SAPC    HS 4313   3.386   3.250  10.871  0.2503 -1.4848  1.8083
   58SAPC   O21 4314   3.373   3.184  10.675  0.0530  0.0987  0.6889
   58SAPC   C21 4315   3.311   3.299  10.646  0.7097  0.5756 -0.3105
   58SAPC   O22 4316   3.313   3.398  10.716  0.3330  0.3675 -0.1328
   58SAPC   C22 4317   3.254   3.295  10.507  0.4196  0.3727  0.6040
   58SAPC   H2R 4318   3.282   3.206  10.447  0.1208 -0.0122  1.0259
   58SAPC   H2S 4319   3.143   3.293  10.519  0.4137 -3.1433  1.0402
   58SAPC    C3 4320   3.546   3.115  10.831  0.1694 -0.0925  0.0694
   58SAPC    HX 4321   3.572   3.096  10.937 -0.9383  4.3969  1.4099
   58SAPC    HY 4322   3.605   3.207  10.808  0.9186 -0.5024  0.3284
   58SAPC   O31 4323   3.577   3.000  10.746 -0.2264 -0.3907  0.1252
   58SAPC   C31 4324   3.636   3.025  10.634 -0.2738 -0.1988 -0.4487
   58SAPC   O32 4325   3.669   3.132  10.585 -0.0056 -0.4195  0.2777
   58SAPC   C32 4326   3.666   2.894  10.566  0.4688  0.3624 -0.4383
   58SAPC   H2X 4327   3.697   2.821  10.644 -0.4531  0.7081  0.2640
   58SAPC   H2Y 4328   3.743   2.922  10.491 -1.4438  0.4404 -2.4744
   58SAPC   C23 4329   3.291   3.435  10.440  0.2042  0.4703  0.6052
   58SAPC   H3R 4330   3.219   3.503  10.490  1.1404 -1.9732  5.9914
   58SAPC   H3S 4331   3.271   3.408  10.334  2.4501 -1.0747  0.5004
   58SAPC   C24 4332   3.438   3.486  10.459 -0.9141 -0.1743  0.3560
   58SAPC   H4R 4333   3.507   3.400  10.447 -1.2958 -0.4319 -0.0058
   58SAPC   H4S 4334   3.459   3.523  10.562 -0.8066  1.9198 -0.3678
   58SAPC   C25 4335   3.484   3.595  10.365  0.1721  0.1229 -0.0145
   58SAPC   H5R 4336   3.483   3.701  10.396 -0.8160  0.3497 -0.7633
   58SAPC   C26 4337   3.521   3.593  10.238 -0.0030  0.2295  0.3818
   58SAPC   H6R 4338   3.544   3.690  10.191 -2.0749  0.9548  0.7489
   58SAPC   C27 4339   3.527   3.470  10.146 -0.3092 -0.1548  0.3520
   58SAPC   H7R 4340   3.451   3.476  10.066 -1.6817 -2.7458  1.3362
   58SAPC   H7S 4341   3.486   3.380  10.198 -1.5587 -0.2697 -0.7815
   58SAPC   C28 4342   3.658   3.435  10.094  0.0856 -0.3107  0.2415
   58SAPC   H8R 4343   3.720   3.380  10.167  1.8016 -0.6918 -1.4256
   58SAPC   C29 4344   3.723   3.473   9.981 -0.1982 -0.2910 -0.1501
   58SAPC   H9R 4345   3.825   3.434   9.977  0.1747  0.3211  1.9475
   58SAPC  C210 4346   3.683   3.566   9.868  0.7502  0.0718 -0.3649
   58SAPC  H10R 4347   3.759   3.645   9.856  1.3748  0.0782  2.7559
   58SAPC  H10S 4348   3.586   3.610   9.903  1.4495  0.7130  0.8500
   58SAPC  C211 4349   3.662   3.497   9.740  0.2417 -0.1808  0.1664
   58SAPC  H11R 4350   3.561   3.455   9.730  0.5160 -1.6383  2.7293
   58SAPC  C212 4351   3.737   3.500   9.631 -0.5971  0.2508 -0.1078
   58SAPC  H12R 4352   3.703   3.447   9.541  0.5316 -0.6092 -0.0589
   58SAPC  C213 4353   3.872   3.587   9.624  1.0424  0.4130 -0.6271
   58SAPC  H13R 4354   3.941   3.575   9.710  0.0657 -0.7199  0.0258
   58SAPC  H13S 4355   3.834   3.692   9.628 -1.3616 -0.4246  2.0887
   58SAPC  C214 4356   3.929   3.561   9.490 -0.1758  1.0183 -0.0395
   58SAPC  H14R 4357   3.933   3.454   9.466  1.8076  0.7052  1.4328
   58SAPC  C215 4358   3.972   3.641   9.397  0.4039 -0.1862 -0.1531
   58SAPC  H15R 4359   4.032   3.600   9.316  1.5056 -0.5789  0.8331
   58SAPC  C216 4360   3.992   3.784   9.414  0.0756  0.4089  0.3686
   58SAPC  H16R 4361   4.096   3.809   9.384  0.8755  0.0562  2.6384
   58SAPC  H16S 4362   3.988   3.811   9.522 -0.5735 -0.0196  0.4561
   58SAPC  C217 4363   3.891   3.879   9.342  0.1937  0.3421 -0.3634
   58SAPC  H17R 4364   3.914   3.983   9.372  0.8494  0.9853 -2.8140
   58SAPC  H17S 4365   3.786   3.853   9.366 -0.4007  0.9404 -2.1816
   58SAPC  C218 4366   3.894   3.863   9.188 -0.5815  0.2231  0.0320
   58SAPC  H18R 4367   3.869   3.760   9.155  0.4818  0.3355 -1.1930
   58SAPC  H18S 4368   3.998   3.867   9.150 -0.0355  0.6237  1.4987
   58SAPC  C219 4369   3.805   3.964   9.117 -0.6138  0.3548 -0.5266
   58SAPC  H19R 4370   3.843   4.063   9.149  2.5527 -0.9524  0.1145
   58SAPC  H19S 4371   3.707   3.944   9.166  0.0607  1.0000  1.1608
   58SAPC  C220 4372   3.793   3.942   8.969  0.2698  0.1731  0.2001
   58SAPC  H20R 4373   3.892   3.959   8.921  0.5650  1.0841  1.0895
   58SAPC  H20S 4374   3.724   4.016   8.922  1.2036  0.0150 -1.5085
   58SAPC  H20T 4375   3.754   3.840   8.948 -0.3280 -0.3173  3.2076
   58SAPC   C33 4376   3.542   2.832  10.497  0.1443 -0.6479  0.2534
   58SAPC   H3X 4377   3.464   2.821  10.576  0.9054  3.1616  1.7836
   58SAPC   H3Y 4378   3.560   2.731  10.453 -0.0317 -0.3881 -0.4327
   58SAPC   C34 4379   3.462   2.927  10.400 -0.8229 -0.4921 -0.5471
   58SAPC   H4X 4380   3.410   3.012  10.448  0.6967 -0.5117  1.3122
   58SAPC   H4Y 4381   3.383   2.857  10.365  0.9090 -1.3835 -2.9871
   58SAPC   C35 4382   3.544   2.989  10.284  0.1594 -0.7727  0.0361
   58SAPC   H5X 4383   3.622   2.913  10.260  1.7471  1.0357 -0.7909
   58SAPC   H5Y 4384   3.597   3.079  10.320  2.1422 -2.5665  1.8898
   58SAPC   C36 4385   3.453   3.032  10.172  0.1657 -0.3385 -0.0515
   58SAPC   H6X 4386   3.405   3.130  10.192  0.7118  0.2793 -1.6001
   58SAPC   H6Y 4387   3.377   2.957  10.141 -0.7440  0.9424 -1.0332
   58SAPC   C37 4388   3.541   3.054  10.047 -0.1755  0.0979  0.5998
   58SAPC   H7X 4389   3.622   2.979  10.036  0.7639  1.4653 -3.5476
   58SAPC   H7Y 4390   3.595   3.147  10.074  1.1483 -1.0211  2.0415
   58SAPC   C38 4391   3.476   3.074   9.905  0.5680 -0.1369  0.0566
   58SAPC   H8X 4392   3.410   3.161   9.886  0.3779 -0.5113 -1.0329
   58SAPC   H8Y 4393   3.424   2.982   9.871 -0.6014  0.6643 -0.4148
   58SAPC   C39 4394   3.581   3.085   9.794  0.0111  0.0449 -0.2545
   58SAPC   H9X 4395   3.634   2.989   9.810 -1.1947 -0.5849  0.0838
   58SAPC   H9Y 4396   3.640   3.177   9.815 -2.0033  1.1383  1.0068
   58SAPC  C310 4397   3.520   3.083   9.650 -0.1223  0.1046  0.1030
   58SAPC  H10X 4398   3.474   3.182   9.628  0.0263 -0.1795 -1.6089
   58SAPC  H10Y 4399   3.442   3.004   9.656  0.2462 -0.4371 -1.7414
   58SAPC  C311 4400   3.631   3.065   9.543  0.8602 -0.3021 -0.0827
   58SAPC  H11X 4401   3.695   2.977   9.566  2.2627  0.0850 -2.2122
   58SAPC  H11Y 4402   3.685   3.162   9.536 -0.1760  0.2003 -1.7739
   58SAPC  C312 4403   3.565   3.043   9.413  0.7957 -0.1291  0.3819
   58SAPC  H12X 4404   3.495   3.127   9.393  1.5661  0.2223 -0.9781
   58SAPC  H12Y 4405   3.497   2.956   9.409  1.7348 -0.8622 -0.0598
   58SAPC  C313 4406   3.653   3.038   9.287 -0.0425  0.5385  0.0244
   58SAPC  H13X 4407   3.700   3.135   9.261  0.6780  0.2079  0.0610
   58SAPC  H13Y 4408   3.586   3.006   9.204 -0.7809  0.6407  0.5745
   58SAPC  C314 4409   3.775   2.935   9.295  0.3570 -0.1234 -0.2006
   58SAPC  H14X 4410   3.734   2.833   9.314 -1.8490  0.5051 -1.2085
   58SAPC  H14Y 4411   3.842   2.963   9.379 -2.2462 -0.8170  2.2605
   58SAPC  C315 4412   3.849   2.943   9.161  0.2394  0.0821  0.1056
   58SAPC  H15X 4413   3.910   3.034   9.145 -0.3783  0.6652  0.9765
   58SAPC  H15Y 4414   3.775   2.935   9.079  1.2628 -1.2254 -0.7353
   58SAPC  C316 4415   3.934   2.820   9.144 -0.2811  0.4335 -0.9117
   58SAPC  H16X 4416   3.873   2.728   9.154  0.1547  0.2944  0.8418
   58SAPC  H16Y 4417   4.010   2.819   9.225  2.5492  0.0466 -3.4019
   58SAPC  C317 4418   4.009   2.812   9.012 -0.3163 -0.1708  0.0830
   58SAPC  H17X 4419   3.951   2.813   8.918  0.1401  0.8306 -0.1964
   58SAPC  H17Y 4420   4.061   2.714   9.004 -0.5269 -0.1431 -1.9507
   58SAPC  C318 4421   4.121   2.920   8.992 -0.6032  0.3680  0.4394
   58SAPC  H18X 4422   4.072   3.008   8.946 -1.2903 -0.6578 -0.8602
   58SAPC  H18Y 4423   4.193   2.883   8.917 -1.9268  1.4984 -1.4587
   58SAPC  H18Z 4424   4.177   2.958   9.080  4.8005 -1.3795 -1.8195
   59SAPC     N 4425   3.876   3.039  11.240 -0.2159  0.6351  0.2550
   59SAPC   C12 4426   3.979   2.946  11.179 -0.6101  0.1043  0.8829
   59SAPC  H12A 4427   3.977   2.954  11.071  0.5458 -1.2302  0.7424
   59SAPC  H12B 4428   3.956   2.846  11.212 -0.7710 -0.6913 -1.4863
   59SAPC   C13 4429   3.909   3.184  11.207 -0.3202  0.4375  0.1483
   59SAPC  H13A 4430   4.015   3.204  11.218 -0.6701  1.5108  2.0037
   59SAPC  H13B 4431   3.894   3.211  11.103 -0.2414 -1.4289 -0.3779
   59SAPC  H13C 4432   3.854   3.251  11.272  2.5338  1.9967  1.1385
   59SAPC   C14 4433   3.743   3.006  11.177 -0.8467 -0.1050  0.8308
   59SAPC  H14A 4434   3.665   3.074  11.207 -1.5915 -0.8862  0.7183
   59SAPC  H14B 4435   3.754   3.006  11.070  0.1892  0.2232  0.9320
   59SAPC  H14C 4436   3.715   2.902  11.191 -0.6055 -0.5206 -1.3756
   59SAPC   C15 4437   3.863   3.024  11.384 -0.1097  0.2358 -0.2164
   59SAPC  H15A 4438   3.952   3.067  11.431 -1.3044 -0.3997  2.8973
   59SAPC  H15B 4439   3.788   3.087  11.430 -0.4652 -1.3425  1.4994
   59SAPC  H15C 4440   3.857   2.922  11.420 -0.7851  0.3902  0.1315
   59SAPC   C11 4441   4.130   2.970  11.227  0.0999 -0.5414  0.3750
   59SAPC  H11A 4442   4.181   2.880  11.187 -1.0296 -1.0895  0.1148
   59SAPC  H11B 4443   4.124   2.953  11.337 -2.2506  0.1389  0.4183
   59SAPC     P 4444   4.316   3.153  11.213 -0.5305 -0.1453  0.1133
   59SAPC   O13 4445   4.318   3.300  11.233 -0.1288  0.1247  0.1550
   59SAPC   O14 4446   4.372   3.069  11.318  0.0398 -0.2492  0.3078
   59SAPC   O12 4447   4.175   3.101  11.183  0.0465  0.1867  1.0042
   59SAPC   O11 4448   4.396   3.127  11.080 -0.0681 -0.7687  0.5265
   59SAPC    C1 4449   4.347   3.056  10.971  1.1892  0.3860  0.5284
   59SAPC    HA 4450   4.373   2.948  10.970 -0.8591 -0.2692  3.7011
   59SAPC    HB 4451   4.237   3.044  10.977  1.0484  0.8985 -0.7928
   59SAPC    C2 4452   4.375   3.121  10.832 -0.1469  0.3684  0.2555
   59SAPC    HS 4453   4.486   3.110  10.829  0.0704  2.1767  0.2904
   59SAPC   O21 4454   4.323   3.254  10.827 -1.1852  0.3260  0.2418
   59SAPC   C21 4455   4.410   3.349  10.837 -0.6077  0.7275  0.2546
   59SAPC   O22 4456   4.525   3.342  10.871  0.3220 -0.0280 -0.0201
   59SAPC   C22 4457   4.341   3.473  10.803  0.1952 -0.2525  0.4166
   59SAPC   H2R 4458   4.279   3.510  10.888  1.8789 -1.0506  2.0524
   59SAPC   H2S 4459   4.411   3.555  10.776  0.4716 -0.2231  1.2151
   59SAPC    C3 4460   4.323   3.048  10.702 -0.5304  0.3722  1.0595
   59SAPC    HX 4461   4.218   3.074  10.678 -0.4170  0.9899  1.1904
   59SAPC    HY 4462   4.328   2.938  10.718  0.1681 -0.2120 -2.3481
   59SAPC   O31 4463   4.397   3.077  10.579 -0.1256  0.2445  0.7595
   59SAPC   C31 4464   4.511   3.010  10.571 -0.0039 -0.1279  0.1379
   59SAPC   O32 4465   4.542   2.914  10.641 -0.1142 -0.2146  0.4054
   59SAPC   C32 4466   4.605   3.049  10.445  0.2633 -0.4716 -0.1200
   59SAPC   H2X 4467   4.656   2.956  10.412 -0.8176 -1.4840  0.9657
   59SAPC   H2Y 4468   4.676   3.124  10.486  2.5378 -1.6140 -1.7726
   59SAPC   C23 4469   4.229   3.459  10.687  0.0776 -0.3846 -0.5365
   59SAPC   H3R 4470   4.178   3.558  10.692 -0.2753 -0.5929  0.1046
   59SAPC   H3S 4471   4.159   3.379  10.718  1.4455 -0.5285  2.4952
   59SAPC   C24 4472   4.281   3.435  10.545 -0.1494  0.9936  0.5568
   59SAPC   H4R 4473   4.194   3.436  10.476  0.0941  1.0475  0.2476
   59SAPC   H4S 4474   4.322   3.332  10.550  2.0739  1.7258 -1.1321
   59SAPC   C25 4475   4.367   3.552  10.491 -1.1179 -0.3096  0.1457
   59SAPC   H5R 4476   4.311   3.645  10.477 -2.4329 -0.5694  3.0465
   59SAPC   C26 4477   4.499   3.541  10.458  0.2004 -0.5670 -0.5843
   59SAPC   H6R 4478   4.557   3.630  10.429  1.2187 -1.2269 -0.6015
   59SAPC   C27 4479   4.587   3.411  10.473  0.5035 -0.0254  0.3813
   59SAPC   H7R 4480   4.592   3.357  10.376 -1.0881  2.4133 -1.1680
   59SAPC   H7S 4481   4.544   3.336  10.542 -0.3922  0.7874  0.7165
   59SAPC   C28 4482   4.723   3.436  10.531 -0.0663 -0.7910 -0.5300
   59SAPC   H8R 4483   4.728   3.408  10.637 -0.0119 -0.2222 -0.3814
   59SAPC   C29 4484   4.832   3.474  10.467  0.3845 -0.1090  0.1959
   59SAPC   H9R 4485   4.920   3.500  10.528  0.2227 -0.9060  0.7860
   59SAPC  C210 4486   4.841   3.506  10.321 -0.4087  0.0159  0.2229
   59SAPC  H10R 4487   4.846   3.616  10.309  0.3815 -0.1381 -0.9870
   59SAPC  H10S 4488   4.754   3.480  10.257  0.7566  2.2578 -2.4680
   59SAPC  C211 4489   4.958   3.428  10.259  0.1133  0.3545  0.2839
   59SAPC  H11R 4490   4.978   3.325  10.291  0.1053 -0.1661 -1.3185
   59SAPC  C212 4491   5.033   3.475  10.161  0.4252  0.0434 -0.4279
   59SAPC  H12R 4492   5.114   3.414  10.118  1.6390  0.4161  1.2168
   59SAPC  C213 4493   5.028   3.614  10.103 -0.5647  0.7097  0.4881
   59SAPC  H13R 4494   5.098   3.680  10.159  0.7100  1.3318 -1.7083
   59SAPC  H13S 4495   4.926   3.656  10.109 -0.9693  0.7884 -3.6574
   59SAPC  C214 4496   5.065   3.614   9.954 -0.1534  0.6571 -0.0391
   59SAPC  H14R 4497   5.153   3.552   9.932  0.8433  1.5328  1.3624
   59SAPC  C215 4498   5.018   3.702   9.862  1.3378 -0.0840  0.7725
   59SAPC  H15R 4499   5.047   3.701   9.756  0.3577  0.3465  0.4889
   59SAPC  C216 4500   4.916   3.812   9.890  0.2194  0.7915 -0.3739
   59SAPC  H16R 4501   4.835   3.779   9.959  0.7430  1.5597  0.6361
   59SAPC  H16S 4502   4.878   3.842   9.790  1.9602  0.1715 -1.2553
   59SAPC  C217 4503   4.986   3.930   9.960  0.0398  0.0069 -0.3307
   59SAPC  H17R 4504   5.072   3.984   9.913  0.2366  0.2824  0.3348
   59SAPC  H17S 4505   5.016   3.897  10.061  0.2865 -0.3174 -0.5075
   59SAPC  C218 4506   4.886   4.045   9.980  0.0655 -0.1660  1.1753
   59SAPC  H18R 4507   4.909   4.105  10.071 -1.6962  1.0204  0.8815
   59SAPC  H18S 4508   4.782   4.013  10.001 -0.2886  0.9133  1.1171
   59SAPC  C219 4509   4.877   4.151   9.864 -0.1072  0.5389  0.5684
   59SAPC  H19R 4510   4.824   4.099   9.781  1.0981 -1.4491  0.9883
   59SAPC  H19S 4511   4.976   4.188   9.831  0.2933  0.3058  1.4851
   59SAPC  C220 4512   4.782   4.262   9.900 -0.4109 -0.0426  0.7333
   59SAPC  H20R 4513   4.808   4.327   9.986  2.2883  1.5014 -1.1122
   59SAPC  H20S 4514   4.680   4.221   9.886 -1.4479  2.3551  0.7077
   59SAPC  H20T 4515   4.784   4.335   9.816 -2.4674 -2.0524 -1.1996
   59SAPC   C33 4516   4.530   3.113  10.325  0.3854  0.0346 -0.0209
   59SAPC   H3X 4517   4.462   3.195  10.356 -0.5110 -0.8686  0.4547
   59SAPC   H3Y 4518   4.462   3.036  10.283  0.7419 -1.2453  1.5944
   59SAPC   C34 4519   4.632   3.149  10.224 -0.4000 -0.2270 -0.4726
   59SAPC   H4X 4520   4.703   3.070  10.190  0.8753  1.0037 -0.7486
   59SAPC   H4Y 4521   4.704   3.216  10.276  0.3564 -1.2399 -0.1671
   59SAPC   C35 4522   4.572   3.219  10.100 -0.8486 -0.3584  0.4466
   59SAPC   H5X 4523   4.508   3.297  10.146 -0.6098 -0.2134  0.5384
   59SAPC   H5Y 4524   4.506   3.155  10.039 -0.3627  0.9470 -1.5648
   59SAPC   C36 4525   4.683   3.272  10.007 -0.5571  0.1240  0.3480
   59SAPC   H6X 4526   4.755   3.187  10.011  0.5229  0.8333 -2.0078
   59SAPC   H6Y 4527   4.735   3.359  10.054  2.0743 -0.7283 -0.7622
   59SAPC   C37 4528   4.623   3.307   9.864 -0.7201  0.3402  0.6867
   59SAPC   H7X 4529   4.546   3.385   9.881 -0.5720  0.6354  0.0113
   59SAPC   H7Y 4530   4.566   3.216   9.835  0.7969 -0.1297 -0.9525
   59SAPC   C38 4531   4.727   3.349   9.764 -0.3703  0.0105  0.2722
   59SAPC   H8X 4532   4.810   3.275   9.755  1.5919  2.0655  0.5997
   59SAPC   H8Y 4533   4.779   3.443   9.792 -0.1687  0.3531 -1.1724
   59SAPC   C39 4534   4.661   3.372   9.628 -0.0575 -0.2931  0.2613
   59SAPC   H9X 4535   4.576   3.443   9.638  0.0589  0.0945 -1.2297
   59SAPC   H9Y 4536   4.618   3.275   9.596 -2.5117  1.0238 -0.6809
   59SAPC  C310 4537   4.761   3.419   9.516  0.1254 -0.3485  0.4235
   59SAPC  H10X 4538   4.835   3.338   9.498  1.1154  0.9982 -2.1129
   59SAPC  H10Y 4539   4.810   3.508   9.561  0.6417  0.0629 -0.8871
   59SAPC  C311 4540   4.688   3.451   9.384 -0.2116  0.0019  0.2477
   59SAPC  H11X 4541   4.614   3.532   9.398  0.3747  0.8329 -1.2555
   59SAPC  H11Y 4542   4.621   3.364   9.367  0.7120 -0.7966  0.5719
   59SAPC  C312 4543   4.785   3.483   9.266  0.0249 -0.5505  0.5999
   59SAPC  H12X 4544   4.859   3.401   9.256 -1.2290 -1.4552 -2.4866
   59SAPC  H12Y 4545   4.837   3.575   9.301 -0.1090 -0.9767  1.9450
   59SAPC  C313 4546   4.712   3.496   9.134  0.0431  0.1100  0.4012
   59SAPC  H13X 4547   4.633   3.572   9.152 -0.7897  0.1376 -2.6963
   59SAPC  H13Y 4548   4.665   3.400   9.103 -0.5963  0.4940  0.1661
   59SAPC  C314 4549   4.810   3.555   9.026  0.3359  0.0165  0.6461
   59SAPC  H14X 4550   4.887   3.476   9.017  2.1164  1.5243  1.7784
   59SAPC  H14Y 4551   4.866   3.640   9.072  1.3141 -0.2896  0.0431
   59SAPC  C315 4552   4.743   3.590   8.893 -0.2605  0.1121 -0.0019
   59SAPC  H15X 4553   4.653   3.651   8.913  0.9534  2.2040 -0.5401
   59SAPC  H15Y 4554   4.712   3.497   8.841  0.3386 -0.0046 -0.1607
   59SAPC  C316 4555   4.835   3.678   8.797 -0.4095 -0.4812 -0.9869
   59SAPC  H16X 4556   4.934   3.634   8.774  0.4577  1.0722 -0.3071
   59SAPC  H16Y 4557   4.855   3.777   8.843 -0.6728 -1.0245  0.3326
   59SAPC  C317 4558   4.784   3.718   8.660 -0.4815  0.6294 -0.0817
   59SAPC  H17X 4559   4.746   3.625   8.611 -2.3507  2.4414 -2.3171
   59SAPC  H17Y 4560   4.873   3.750   8.602  1.4859 -0.1348  2.3342
   59SAPC  C318 4561   4.677   3.821   8.659  0.5354  0.0560 -0.0539
   59SAPC  H18X 4562   4.703   3.921   8.619 -1.2349 -0.0253 -1.5053
   59SAPC  H18Y 4563   4.656   3.842   8.766 -0.1329 -3.4899  0.6399
   59SAPC  H18Z 4564   4.581   3.791   8.612 -0.3486  0.8457  1.1774
   60SAPC     N 4565   6.500   1.062  11.146  0.1716 -0.1546 -0.6111
   60SAPC   C12 4566   6.622   0.991  11.078 -0.4487  0.5995 -1.1040
   60SAPC  H12A 4567   6.673   0.920  11.142  0.8687  1.1664 -1.4972
   60SAPC  H12B 4568   6.696   1.069  11.072 -0.8875  2.0630  5.3620
   60SAPC   C13 4569   6.417   1.142  11.048  0.4772  0.5482 -0.0280
   60SAPC  H13A 4570   6.474   1.227  11.014 -0.3606  1.0220 -0.2621
   60SAPC  H13B 4571   6.391   1.090  10.957  1.2717  0.9024 -0.4736
   60SAPC  H13C 4572   6.324   1.187  11.079 -0.8416 -0.8584 -1.7376
   60SAPC   C14 4573   6.404   0.963  11.212 -0.6423  0.3599 -0.4068
   60SAPC  H14A 4574   6.360   0.891  11.145 -1.3193  0.8779 -0.5265
   60SAPC  H14B 4575   6.464   0.903  11.279  0.9697  2.3443  0.0031
   60SAPC  H14C 4576   6.332   1.005  11.280  1.2427  0.3879  1.6843
   60SAPC   C15 4577   6.552   1.159  11.251  0.5198  0.8235  1.0471
   60SAPC  H15A 4578   6.612   1.239  11.210  1.5791  0.0918  1.1297
   60SAPC  H15B 4579   6.468   1.195  11.310 -0.8667 -0.0852 -0.3034
   60SAPC  H15C 4580   6.621   1.113  11.320  1.2650  3.0712  1.8943
   60SAPC   C11 4581   6.601   0.918  10.944 -0.2850 -0.3753 -0.4671
   60SAPC  H11A 4582   6.528   0.835  10.949 -1.9492  1.0675 -0.0167
   60SAPC  H11B 4583   6.701   0.874  10.921 -0.5650 -0.4423 -1.6546
   60SAPC     P 4584   6.666   1.127  10.783  0.3085 -0.2117 -0.0514
   60SAPC   O13 4585   6.587   1.248  10.745 -0.3079  0.4613  0.4411
   60SAPC   O14 4586   6.776   1.142  10.887  0.3616  0.0317  0.4779
   60SAPC   O12 4587   6.566   1.015  10.843  0.3823 -0.3017  0.2074
   60SAPC   O11 4588   6.729   1.049  10.660 -0.0811  0.0918  0.8106
   60SAPC    C1 4589   6.647   0.971  10.569 -1.2000  0.1753  0.1281
   60SAPC    HA 4590   6.698   0.878  10.537  3.6218  2.1974  1.0640
   60SAPC    HB 4591   6.546   0.950  10.612 -0.1207  0.2775  2.8850
   60SAPC    C2 4592   6.622   1.047  10.442 -0.6575 -0.1454 -0.3614
   60SAPC    HS 4593   6.573   1.141  10.476  0.3155 -0.0384  0.8218
   60SAPC   O21 4594   6.535   0.977  10.357 -0.5833 -0.4490 -0.4386
   60SAPC   C21 4595   6.412   0.977  10.394  0.3200  0.2776  0.1551
   60SAPC   O22 4596   6.360   1.054  10.477  0.0443 -0.6043  0.3192
   60SAPC   C22 4597   6.328   0.865  10.324 -0.9248  0.0519  0.5090
   60SAPC   H2R 4598   6.408   0.820  10.261 -1.1353 -0.8335  0.8608
   60SAPC   H2S 4599   6.302   0.782  10.393  0.2840 -0.1549  0.7341
   60SAPC    C3 4600   6.759   1.081  10.375  0.0765 -0.1086 -0.5373
   60SAPC    HX 4601   6.832   1.002  10.404 -0.5582 -0.7481 -0.6510
   60SAPC    HY 4602   6.807   1.168  10.426 -2.8868  0.4182  1.6177
   60SAPC   O31 4603   6.749   1.109  10.233 -0.2973 -0.2466 -0.0985
   60SAPC   C31 4604   6.755   1.010  10.145  0.5094 -0.1417  0.4410
   60SAPC   O32 4605   6.751   0.895  10.174  0.2120 -0.4919  0.5364
   60SAPC   C32 4606   6.752   1.064   9.999 -0.1568  0.8540  0.2995
   60SAPC   H2X 4607   6.846   1.124  10.004  0.8298 -0.7293  1.7664
   60SAPC   H2Y 4608   6.658   1.122  10.000 -0.9970 -0.4859  0.7937
   60SAPC   C23 4609   6.206   0.913  10.241 -0.5390  0.5683 -0.5314
   60SAPC   H3R 4610   6.141   0.973  10.307 -0.7779  0.3740 -0.5905
   60SAPC   H3S 4611   6.145   0.826  10.209  0.6461 -1.8130  3.0453
   60SAPC   C24 4612   6.234   1.008  10.121 -0.1338 -0.5901  0.1793
   60SAPC   H4R 4613   6.255   1.108  10.167  0.2454 -1.6806  2.5520
   60SAPC   H4S 4614   6.134   1.021  10.073  0.4886 -1.8179 -1.5350
   60SAPC   C25 4615   6.330   0.974  10.019  0.2446  0.0331  0.5606
   60SAPC   H5R 4616   6.428   1.023  10.030  1.7776 -2.3139 -1.3498
   60SAPC   C26 4617   6.309   0.902   9.903 -0.1171  0.7442  0.2791
   60SAPC   H6R 4618   6.389   0.909   9.828  0.9953  2.8804  1.5718
   60SAPC   C27 4619   6.183   0.829   9.863  0.3698  0.2519  0.4327
   60SAPC   H7R 4620   6.106   0.892   9.814 -0.1547 -1.2483 -0.7564
   60SAPC   H7S 4621   6.141   0.795   9.960  0.5797 -0.4934  0.2747
   60SAPC   C28 4622   6.213   0.710   9.783 -0.0779 -0.2573  0.2112
   60SAPC   H8R 4623   6.236   0.618   9.838 -0.1584 -0.0338  0.6198
   60SAPC   C29 4624   6.236   0.710   9.654  0.3202  0.2385  0.6761
   60SAPC   H9R 4625   6.269   0.620   9.601 -1.0659  0.4988 -0.7122
   60SAPC  C210 4626   6.236   0.833   9.560  0.3473 -0.7943  0.2289
   60SAPC  H10R 4627   6.343   0.842   9.533  0.7169 -2.6067  1.0108
   60SAPC  H10S 4628   6.206   0.927   9.613  0.2108 -0.8155  0.1891
   60SAPC  C211 4629   6.155   0.829   9.430 -0.1825 -0.4109 -0.4001
   60SAPC  H11R 4630   6.048   0.855   9.434 -0.2831 -0.3334 -2.4827
   60SAPC  C212 4631   6.209   0.796   9.318  0.4627 -0.0265 -0.5579
   60SAPC  H12R 4632   6.146   0.807   9.228 -3.1541  0.6321  1.8332
   60SAPC  C213 4633   6.353   0.747   9.303 -0.1286 -0.7731  0.3704
   60SAPC  H13R 4634   6.364   0.673   9.385  1.1784 -0.8261  0.1566
   60SAPC  H13S 4635   6.417   0.836   9.315 -0.1899 -0.9675  2.4642
   60SAPC  C214 4636   6.385   0.674   9.170  0.2070  0.1291 -0.3279
   60SAPC  H14R 4637   6.412   0.568   9.175 -1.5938 -0.3245  2.9999
   60SAPC  C215 4638   6.382   0.725   9.046  0.5995 -0.0633 -0.1356
   60SAPC  H15R 4639   6.409   0.661   8.962 -1.3178 -0.2376 -0.6745
   60SAPC  C216 4640   6.354   0.871   9.003  0.0093 -0.2713 -0.0621
   60SAPC  H16R 4641   6.418   0.907   8.920  1.2881  2.1107  1.8320
   60SAPC  H16S 4642   6.359   0.941   9.088 -0.8566 -1.1905  0.7710
   60SAPC  C217 4643   6.215   0.891   8.937 -0.0350 -0.2351  0.2329
   60SAPC  H17R 4644   6.132   0.862   9.004 -0.8870 -0.4047 -0.8589
   60SAPC  H17S 4645   6.204   0.829   8.845  2.8775 -0.2327 -0.2129
   60SAPC  C218 4646   6.200   1.034   8.884 -0.2799  0.3618  0.2589
   60SAPC  H18R 4647   6.108   1.045   8.822  0.1937  0.1119 -0.5069
   60SAPC  H18S 4648   6.270   1.054   8.801 -1.1742  0.0847 -0.5851
   60SAPC  C219 4649   6.210   1.154   8.981  0.2660  0.8914  0.2053
   60SAPC  H19R 4650   6.311   1.143   9.025  0.6037 -1.0824 -0.9474
   60SAPC  H19S 4651   6.134   1.156   9.062 -0.2449  1.1934 -0.2761
   60SAPC  C220 4652   6.209   1.289   8.910 -0.3974  0.8347  0.0250
   60SAPC  H20R 4653   6.105   1.311   8.879 -0.8546  0.7211  1.4174
   60SAPC  H20S 4654   6.284   1.284   8.827  1.6714 -1.0926  1.8813
   60SAPC  H20T 4655   6.250   1.365   8.980 -3.5725  2.4765  0.2759
   60SAPC   C33 4656   6.745   0.963   9.888 -0.3040 -0.3811 -0.7348
   60SAPC   H3X 4657   6.655   0.899   9.878 -0.2570 -0.1986 -2.8299
   60SAPC   H3Y 4658   6.832   0.897   9.904 -0.5162 -0.1559  1.7025
   60SAPC   C34 4659   6.754   1.031   9.752 -0.2235  0.0132 -0.0653
   60SAPC   H4X 4660   6.847   1.092   9.755 -0.6542  0.6866  2.0470
   60SAPC   H4Y 4661   6.671   1.103   9.735  0.6281  0.8047 -0.9902
   60SAPC   C35 4662   6.747   0.938   9.634  0.0314  1.1181 -0.3858
   60SAPC   H5X 4663   6.650   0.885   9.636  0.3011  0.5850 -0.8359
   60SAPC   H5Y 4664   6.814   0.849   9.634  0.9112  1.7564  0.4887
   60SAPC   C36 4665   6.748   1.031   9.510 -0.0327  0.4149  0.1863
   60SAPC   H6X 4666   6.853   1.064   9.506  0.2709 -0.6108 -2.3941
   60SAPC   H6Y 4667   6.690   1.125   9.521  3.0995  2.7675 -1.8009
   60SAPC   C37 4668   6.712   0.953   9.375 -0.9372 -0.3328  0.1022
   60SAPC   H7X 4669   6.602   0.940   9.367 -1.1006  0.4169  1.0028
   60SAPC   H7Y 4670   6.760   0.855   9.394  0.5674  0.4746  0.6064
   60SAPC   C38 4671   6.763   1.027   9.258  0.1120  0.6218  0.4267
   60SAPC   H8X 4672   6.874   1.032   9.257  0.1108  0.6311 -0.3433
   60SAPC   H8Y 4673   6.723   1.130   9.267  0.9963  1.0324 -0.2214
   60SAPC   C39 4674   6.726   0.942   9.129 -0.4286  0.1947  0.0531
   60SAPC   H9X 4675   6.621   0.961   9.097 -0.7230 -0.7290  0.4565
   60SAPC   H9Y 4676   6.715   0.837   9.163 -1.7009 -0.0055 -0.8795
   60SAPC  C310 4677   6.835   0.958   9.019  0.4808  0.4271  0.0452
   60SAPC  H10X 4678   6.827   0.874   8.946 -0.0746  0.2464  0.3026
   60SAPC  H10Y 4679   6.936   0.947   9.063  0.6232 -1.4892 -0.6453
   60SAPC  C311 4680   6.840   1.089   8.946  0.1314 -0.1521  0.6907
   60SAPC  H11X 4681   6.831   1.179   9.012  0.3473 -0.5742  1.3041
   60SAPC  H11Y 4682   6.748   1.092   8.884  1.8692  2.2254 -2.0366
   60SAPC  C312 4683   6.962   1.111   8.844 -0.1649  0.3766  0.0664
   60SAPC  H12X 4684   7.057   1.146   8.890  0.5641 -0.6378 -0.6219
   60SAPC  H12Y 4685   6.929   1.186   8.769  0.5764  0.8929  0.2469
   60SAPC  C313 4686   7.002   0.977   8.766 -0.1747 -0.5619 -0.1119
   60SAPC  H13X 4687   6.911   0.929   8.723 -1.9650  1.7474  0.8682
   60SAPC  H13Y 4688   7.057   0.920   8.845  1.3573  1.5053  0.3839
   60SAPC  C314 4689   7.108   0.999   8.649  0.0769 -0.6446 -1.2453
   60SAPC  H14X 4690   7.192   1.058   8.691  0.4173 -2.3195  0.5408
   60SAPC  H14Y 4691   7.068   1.067   8.570 -0.6473 -0.1718 -0.4921
   60SAPC  C315 4692   7.155   0.865   8.583  0.1391 -0.7761 -0.2663
   60SAPC  H15X 4693   7.067   0.843   8.519 -0.6607  1.1656  0.1029
   60SAPC  H15Y 4694   7.180   0.799   8.669 -1.6612 -0.8871  0.2113
   60SAPC  C316 4695   7.278   0.881   8.489 -0.3321 -0.4149 -0.6302
   60SAPC  H16X 4696   7.362   0.939   8.533 -1.7542  0.6633  0.8018
   60SAPC  H16Y 4697   7.248   0.927   8.393 -0.6368  2.6182  0.7849
   60SAPC  C317 4698   7.328   0.746   8.464 -0.5285  0.5885  0.4766
   60SAPC  H17X 4699   7.238   0.688   8.435 -0.5323  1.3151 -1.0942
   60SAPC  H17Y 4700   7.373   0.694   8.551 -0.7636 -1.0485 -0.3417
   60SAPC  C318 4701   7.434   0.748   8.345  0.9037 -0.1238  0.2013
   60SAPC  H18X 4702   7.489   0.653   8.332 -0.1364 -0.6444 -0.5236
   60SAPC  H18Y 4703   7.520   0.818   8.356  0.4731  1.2326 -3.4786
   60SAPC  H18Z 4704   7.388   0.772   8.247 -0.1857 -0.0802  0.7080
   61SAPC     N 4705   0.055   6.757  11.219 -0.1336  0.0679  0.4831
   61SAPC   C12 4706   0.150   6.656  11.156 -0.2072  0.6895 -0.2855
   61SAPC  H12A 4707   0.223   6.634  11.232  0.7700  1.8656 -0.8454
   61SAPC  H12B 4708   0.215   6.697  11.080  2.0850 -0.3894  0.9788
   61SAPC   C13 4709   0.139   6.876  11.258 -0.4559 -0.9710 -0.2829
   61SAPC  H13A 4710   0.171   6.951  11.188  0.9578 -2.0755 -0.8628
   61SAPC  H13B 4711   0.078   6.933  11.326  0.2929 -1.0387  0.4655
   61SAPC  H13C 4712   0.232   6.842  11.301  0.5465  1.7765 -0.1057
   61SAPC   C14 4713  -0.054   6.803  11.126 -0.1550  0.0970 -0.0540
   61SAPC  H14A 4714  -0.106   6.879  11.183  1.4972  2.4973 -1.5715
   61SAPC  H14B 4715  -0.007   6.848  11.040  0.0684 -0.3870 -0.1874
   61SAPC  H14C 4716  -0.130   6.729  11.104  2.2197 -2.5497  0.0374
   61SAPC   C15 4717  -0.010   6.700  11.340  0.2459  0.1820 -1.4015
   61SAPC  H15A 4718   0.072   6.661  11.399 -1.5229 -1.2023  0.2548
   61SAPC  H15B 4719  -0.067   6.768  11.401 -2.0041 -2.4010 -0.3887
   61SAPC  H15C 4720  -0.073   6.622  11.299 -0.2093 -0.5298  0.5408
   61SAPC   C11 4721   0.089   6.522  11.106  0.2690 -0.4658 -0.8909
   61SAPC  H11A 4722   0.014   6.485  11.179 -0.6592  0.5548 -1.2903
   61SAPC  H11B 4723   0.166   6.443  11.112  0.9127  0.2120  0.2712
   61SAPC     P 4724   0.134   6.592  10.864  0.0689 -0.0581 -0.3382
   61SAPC   O13 4725   0.153   6.739  10.874 -0.5241 -0.4525  0.1495
   61SAPC   O14 4726   0.263   6.525  10.872  0.3414 -0.1430  0.6156
   61SAPC   O12 4727   0.034   6.537  10.973  0.1628 -0.2244 -0.0230
   61SAPC   O11 4728   0.067   6.559  10.728 -0.8100  0.0121  1.0375
   61SAPC    C1 4729   0.031   6.434  10.681  0.2971  0.4695 -0.9719
   61SAPC    HA 4730   0.013   6.361  10.762  1.5899  0.8679 -0.3070
   61SAPC    HB 4731  -0.056   6.449  10.613  0.8102  1.6140 -1.4146
   61SAPC    C2 4732   0.145   6.385  10.581 -0.1313 -0.5164 -0.3117
   61SAPC    HS 4733   0.234   6.389  10.647 -0.5179  1.0120  0.1651
   61SAPC   O21 4734   0.155   6.483  10.470  0.8067 -0.0708 -0.1981
   61SAPC   C21 4735   0.281   6.497  10.421  0.1474 -0.8304  0.1779
   61SAPC   O22 4736   0.379   6.450  10.475 -0.9049 -0.4193 -0.2222
   61SAPC   C22 4737   0.275   6.580  10.299  0.0613  0.5299  0.2345
   61SAPC   H2R 4738   0.173   6.584  10.254 -1.1305 -0.2873  2.6841
   61SAPC   H2S 4739   0.298   6.684  10.332  0.3025  1.0132 -1.3822
   61SAPC    C3 4740   0.115   6.245  10.519  0.7268  0.1931  0.1605
   61SAPC    HX 4741   0.038   6.252  10.439  2.2934  1.3873 -1.3433
   61SAPC    HY 4742   0.057   6.193  10.597  0.6977 -1.1115 -0.7015
   61SAPC   O31 4743   0.222   6.167  10.472 -0.4080 -0.2017  0.0501
   61SAPC   C31 4744   0.299   6.108  10.558  0.0443  0.1129  0.2981
   61SAPC   O32 4745   0.283   6.121  10.681 -0.1112 -0.1151  0.7421
   61SAPC   C32 4746   0.398   6.015  10.489 -0.2658  0.2813  0.5695
   61SAPC   H2X 4747   0.386   5.922  10.549 -2.0798 -0.6455 -1.1362
   61SAPC   H2Y 4748   0.504   6.043  10.513 -0.1664 -1.8009  3.0430
   61SAPC   C23 4749   0.376   6.553  10.186 -0.1517 -0.4322  0.3801
   61SAPC   H3R 4750   0.348   6.461  10.131 -0.5848 -0.1022  0.0454
   61SAPC   H3S 4751   0.470   6.533  10.242  2.4100  1.7007 -2.7602
   61SAPC   C24 4752   0.399   6.663  10.080 -0.2522 -0.8254  0.2773
   61SAPC   H4R 4753   0.381   6.763  10.124 -0.9944  0.7388 -3.2250
   61SAPC   H4S 4754   0.320   6.658  10.002 -1.0503 -0.1699  1.0248
   61SAPC   C25 4755   0.545   6.657  10.028  0.7669 -0.4315  0.1572
   61SAPC   H5R 4756   0.623   6.679  10.102  0.8129  0.8558 -0.2589
   61SAPC   C26 4757   0.586   6.635   9.904  1.0806 -0.6710  1.2353
   61SAPC   H6R 4758   0.691   6.621   9.875  1.7692  3.1261  1.4022
   61SAPC   C27 4759   0.482   6.609   9.793  0.8176  0.7852 -0.4785
   61SAPC   H7R 4760   0.384   6.572   9.830  0.9449  1.8995  1.0685
   61SAPC   H7S 4761   0.509   6.527   9.723 -0.3585 -0.2784  0.2534
   61SAPC   C28 4762   0.449   6.737   9.726 -0.0795 -1.0700  0.5283
   61SAPC   H8R 4763   0.418   6.823   9.787 -1.0487 -1.0624  0.0433
   61SAPC   C29 4764   0.453   6.779   9.598  0.0901  0.0790 -0.0839
   61SAPC   H9R 4765   0.408   6.877   9.576 -0.3817 -0.3960 -1.3436
   61SAPC  C210 4766   0.501   6.694   9.477 -0.4403 -0.1236 -0.4647
   61SAPC  H10R 4767   0.415   6.693   9.407  0.6427  1.1227 -1.8755
   61SAPC  H10S 4768   0.507   6.587   9.506 -2.2053 -0.0898  0.1125
   61SAPC  C211 4769   0.629   6.728   9.406  0.1739  0.0341  0.5908
   61SAPC  H11R 4770   0.697   6.791   9.464  2.1831  0.4118 -1.9866
   61SAPC  C212 4771   0.666   6.686   9.289 -0.4053 -0.8429  0.5089
   61SAPC  H12R 4772   0.757   6.723   9.238 -0.0632 -0.4631  1.3623
   61SAPC  C213 4773   0.593   6.600   9.191  0.2791 -0.3627  0.1638
   61SAPC  H13R 4774   0.534   6.527   9.250  2.0753 -1.9143  0.1637
   61SAPC  H13S 4775   0.660   6.529   9.137  0.1625 -0.4866  0.1807
   61SAPC  C214 4776   0.513   6.669   9.081 -0.4197  0.0066 -0.4350
   61SAPC  H14R 4777   0.404   6.668   9.091 -0.5496 -0.0049 -1.6771
   61SAPC  C215 4778   0.569   6.711   8.960  0.3355 -0.4753 -0.0827
   61SAPC  H15R 4779   0.498   6.743   8.882  1.3026  1.9899 -0.0638
   61SAPC  C216 4780   0.716   6.707   8.928  0.3968  0.2842  0.0628
   61SAPC  H16R 4781   0.781   6.674   9.011  1.8920 -1.0906 -1.5776
   61SAPC  H16S 4782   0.746   6.810   8.900  0.7035 -0.2720 -1.8248
   61SAPC  C217 4783   0.751   6.609   8.811 -0.2290 -1.0054 -0.6158
   61SAPC  H17R 4784   0.723   6.503   8.829 -2.2604 -0.4063  0.0672
   61SAPC  H17S 4785   0.861   6.602   8.796  0.1752  2.6665 -0.1674
   61SAPC  C218 4786   0.706   6.658   8.667  0.2885  0.0024  0.0900
   61SAPC  H18R 4787   0.732   6.765   8.656  0.4492 -0.1283 -0.8804
   61SAPC  H18S 4788   0.598   6.631   8.663  0.8384 -2.2882 -0.5376
   61SAPC  C219 4789   0.773   6.581   8.556 -0.2547 -0.1931  0.2671
   61SAPC  H19R 4790   0.771   6.474   8.588  0.4208 -0.3457 -0.1792
   61SAPC  H19S 4791   0.878   6.617   8.541  0.8595 -1.5198  3.8988
   61SAPC  C220 4792   0.714   6.605   8.418  0.0835 -0.0152  0.1626
   61SAPC  H20R 4793   0.777   6.555   8.341 -0.1724 -0.1782  0.0584
   61SAPC  H20S 4794   0.707   6.715   8.405 -1.7815 -0.1268 -0.0034
   61SAPC  H20T 4795   0.616   6.553   8.408  0.1813 -0.4374  1.2864
   61SAPC   C33 4796   0.362   5.980  10.344  0.2986 -0.2297 -0.6762
   61SAPC   H3X 4797   0.362   6.066  10.273 -3.1622 -0.1492 -0.7118
   61SAPC   H3Y 4798   0.258   5.943  10.341  0.9657 -2.3093  0.3615
   61SAPC   C34 4799   0.453   5.870  10.281  0.5030  0.0649 -0.2431
   61SAPC   H4X 4800   0.459   5.790  10.357 -0.5673  1.0111  0.8879
   61SAPC   H4Y 4801   0.553   5.915  10.262  0.2658 -0.0668 -2.0244
   61SAPC   C35 4802   0.403   5.807  10.153  0.7140  0.9940 -0.0111
   61SAPC   H5X 4803   0.320   5.734  10.164  0.6402  0.9881 -0.6082
   61SAPC   H5Y 4804   0.488   5.748  10.114 -0.1107 -1.6780  1.9165
   61SAPC   C36 4805   0.399   5.896  10.032  0.1286 -0.2749  0.4615
   61SAPC   H6X 4806   0.482   5.970  10.038 -1.1192  1.2288 -0.1200
   61SAPC   H6Y 4807   0.309   5.961  10.040 -1.4186 -2.3026  0.2989
   61SAPC   C37 4808   0.389   5.825   9.896  0.0515  0.5847 -0.5014
   61SAPC   H7X 4809   0.326   5.735   9.912 -1.3002  1.5136 -0.4686
   61SAPC   H7Y 4810   0.488   5.781   9.874 -0.3835 -0.5979 -0.1544
   61SAPC   C38 4811   0.344   5.916   9.781 -0.7016 -0.1107  0.5499
   61SAPC   H8X 4812   0.387   6.015   9.804  0.8343 -0.9484  1.4102
   61SAPC   H8Y 4813   0.233   5.915   9.774 -0.9074 -0.5684  2.9827
   61SAPC   C39 4814   0.397   5.863   9.641  0.4261 -0.0884  0.6842
   61SAPC   H9X 4815   0.390   5.753   9.628  1.6860 -0.0662 -0.4423
   61SAPC   H9Y 4816   0.501   5.899   9.625  0.3829  0.6649  1.9515
   61SAPC  C310 4817   0.312   5.926   9.528  0.2034 -0.4557 -0.4090
   61SAPC  H10X 4818   0.310   6.036   9.515  0.7218 -0.7444 -3.8987
   61SAPC  H10Y 4819   0.205   5.901   9.545  0.5214 -1.2731  0.4671
   61SAPC  C311 4820   0.357   5.892   9.385  0.0355  0.8912  0.6401
   61SAPC  H11X 4821   0.362   5.782   9.368 -2.2397  0.7790  0.3225
   61SAPC  H11Y 4822   0.459   5.930   9.366  0.0201  0.2012 -1.0443
   61SAPC  C312 4823   0.256   5.930   9.280 -0.4576 -0.8297  0.3659
   61SAPC  H12X 4824   0.230   6.038   9.269  0.5170 -0.7597 -1.6849
   61SAPC  H12Y 4825   0.154   5.893   9.303 -0.9293 -0.4642 -1.0255
   61SAPC  C313 4826   0.316   5.884   9.147  0.0039  0.3908 -0.0600
   61SAPC  H13X 4827   0.323   5.773   9.156  1.8742  0.5779  1.5282
   61SAPC  H13Y 4828   0.415   5.929   9.128 -0.4277  2.0773  1.3860
   61SAPC  C314 4829   0.222   5.926   9.036  0.1177  0.4206 -0.0559
   61SAPC  H14X 4830   0.222   6.037   9.046 -0.1148  0.6264 -1.8855
   61SAPC  H14Y 4831   0.119   5.885   9.035  0.0564  0.4520 -2.5435
   61SAPC  C315 4832   0.282   5.892   8.897  0.5749  0.2543 -0.2080
   61SAPC  H15X 4833   0.308   5.785   8.888 -1.5364 -0.3266 -0.0781
   61SAPC  H15Y 4834   0.375   5.951   8.889 -0.2002  1.6385  0.5574
   61SAPC  C316 4835   0.197   5.909   8.770 -0.2177  0.0023  0.1072
   61SAPC  H16X 4836   0.144   6.006   8.777 -1.3482 -0.6278  0.5590
   61SAPC  H16Y 4837   0.112   5.838   8.775 -0.1629 -0.1730 -1.2031
   61SAPC  C317 4838   0.275   5.896   8.643 -0.7424 -0.2146 -0.3277
   61SAPC  H17X 4839   0.334   5.804   8.663 -0.0155  0.6482  1.8724
   61SAPC  H17Y 4840   0.346   5.981   8.635  0.7664 -1.4309 -0.4375
   61SAPC  C318 4841   0.190   5.894   8.516 -0.1378  1.2067 -0.0253
   61SAPC  H18X 4842   0.136   5.990   8.504 -1.0381  0.8522  1.0027
   61SAPC  H18Y 4843   0.114   5.813   8.520  1.6765 -0.6785 -1.4734
   61SAPC  H18Z 4844   0.245   5.879   8.421 -0.4796  0.6458 -0.1417
   62SAPC     N 4845   0.818   5.672  10.936 -0.1982  0.3410 -0.7001
   62SAPC   C12 4846   0.862   5.529  10.985  0.0650 -0.5510 -0.3117
   62SAPC  H12A 4847   0.917   5.541  11.076  2.5957  3.1743 -2.0725
   62SAPC  H12B 4848   0.946   5.501  10.923  1.0536  2.6861 -0.6361
   62SAPC   C13 4849   0.776   5.643  10.800 -0.3010  0.5926 -0.7496
   62SAPC  H13A 4850   0.746   5.730  10.743  2.4890  1.6700 -0.7337
   62SAPC  H13B 4851   0.852   5.597  10.739 -1.2671 -0.6985 -1.0037
   62SAPC  H13C 4852   0.696   5.571  10.804 -1.1419  1.5671  1.1776
   62SAPC   C14 4853   0.691   5.725  11.019 -0.5310  0.5227 -0.1441
   62SAPC  H14A 4854   0.647   5.815  10.979 -1.2390 -0.5759 -1.9398
   62SAPC  H14B 4855   0.617   5.647  11.016  1.4596 -1.4642 -0.4571
   62SAPC  H14C 4856   0.723   5.738  11.122  0.6008  0.8967 -0.5304
   62SAPC   C15 4857   0.939   5.763  10.944  0.7566 -0.0639  0.1222
   62SAPC  H15A 4858   0.960   5.794  11.045 -1.9061 -2.2957  1.4970
   62SAPC  H15B 4859   1.024   5.708  10.905 -0.2999 -0.5787 -1.5863
   62SAPC  H15C 4860   0.926   5.857  10.893  2.3093  0.2843  0.3047
   62SAPC   C11 4861   0.759   5.416  10.994 -0.0471 -0.8086 -0.6742
   62SAPC  H11A 4862   0.678   5.428  11.069  1.1214 -1.6481  0.7832
   62SAPC  H11B 4863   0.807   5.324  11.034 -0.3080 -0.7665 -0.2555
   62SAPC     P 4864   0.567   5.303  10.869  0.1841 -0.6443 -0.2013
   62SAPC   O13 4865   0.571   5.174  10.942 -0.2969 -0.2009 -0.2755
   62SAPC   O14 4866   0.473   5.410  10.916  0.1610  0.1892  0.2119
   62SAPC   O12 4867   0.711   5.377  10.870  0.5968 -0.3477  0.2917
   62SAPC   O11 4868   0.528   5.277  10.719 -0.1409  0.3048  0.4127
   62SAPC    C1 4869   0.638   5.240  10.628 -0.2276 -0.6850  0.6529
   62SAPC    HA 4870   0.741   5.246  10.668 -0.2261  0.4831  0.4900
   62SAPC    HB 4871   0.621   5.136  10.591 -0.1524  0.0485 -1.5863
   62SAPC    C2 4872   0.632   5.323  10.497  0.0104  0.3040  0.4121
   62SAPC    HS 4873   0.614   5.431  10.519 -1.1919  0.6437 -1.9305
   62SAPC   O21 4874   0.515   5.270  10.430 -0.3020 -0.5481 -0.2650
   62SAPC   C21 4875   0.460   5.367  10.346 -0.1823 -0.2003 -1.0903
   62SAPC   O22 4876   0.487   5.485  10.351 -0.3296 -0.5517  0.0100
   62SAPC   C22 4877   0.357   5.306  10.254  0.1546  0.7918 -0.0610
   62SAPC   H2R 4878   0.419   5.231  10.201  0.3158  0.1851  0.9661
   62SAPC   H2S 4879   0.287   5.244  10.312  1.3685  0.5601  1.2032
   62SAPC    C3 4880   0.764   5.298  10.420 -0.2144 -0.0812 -0.7561
   62SAPC    HX 4881   0.771   5.187  10.412  0.1274 -0.0634 -0.6926
   62SAPC    HY 4882   0.851   5.336  10.477 -0.5146  1.3390 -1.2055
   62SAPC   O31 4883   0.766   5.360  10.293  0.1340  0.2859  0.8530
   62SAPC   C31 4884   0.763   5.500  10.289 -0.3694  0.3081 -0.2896
   62SAPC   O32 4885   0.773   5.567  10.391  0.3017 -0.6584  0.3074
   62SAPC   C32 4886   0.752   5.547  10.146  0.3107  0.3371 -0.7708
   62SAPC   H2X 4887   0.642   5.538  10.127  0.5366 -1.0583 -1.6139
   62SAPC   H2Y 4888   0.810   5.471  10.089  0.6890  2.2686 -3.0734
   62SAPC   C23 4889   0.283   5.412  10.168  0.0128  0.7579  0.0668
   62SAPC   H3R 4890   0.345   5.480  10.106  2.3294 -0.0269  1.4173
   62SAPC   H3S 4891   0.230   5.480  10.238  0.7323  0.5742  0.8028
   62SAPC   C24 4892   0.186   5.338  10.078  0.5785 -0.4151 -0.5315
   62SAPC   H4R 4893   0.131   5.257  10.130 -1.2702  0.6948 -0.6247
   62SAPC   H4S 4894   0.227   5.285   9.990  1.3775  1.3184 -1.2669
   62SAPC   C25 4895   0.070   5.425  10.032 -0.3480  0.0281 -0.4752
   62SAPC   H5R 4896  -0.006   5.441  10.109  0.2690 -1.0095  0.3756
   62SAPC   C26 4897   0.056   5.482   9.914  0.3028  0.0524  0.4656
   62SAPC   H6R 4898  -0.030   5.550   9.899 -1.4562 -1.9350  1.0680
   62SAPC   C27 4899   0.154   5.473   9.800  0.8812 -0.1989  0.2052
   62SAPC   H7R 4900   0.125   5.375   9.756 -3.3494  0.4768  1.1214
   62SAPC   H7S 4901   0.260   5.469   9.834  0.5980  0.4340  1.1943
   62SAPC   C28 4902   0.128   5.587   9.707  0.3095  0.0491 -0.2858
   62SAPC   H8R 4903   0.192   5.675   9.726  0.4593 -0.2267  0.4830
   62SAPC   C29 4904   0.061   5.588   9.594 -0.0860  0.6230  0.2715
   62SAPC   H9R 4905   0.060   5.682   9.538  4.0028 -0.6511 -2.3851
   62SAPC  C210 4906  -0.020   5.474   9.528 -0.1602  0.4402 -0.0573
   62SAPC  H10R 4907  -0.112   5.518   9.484 -0.1005 -0.2313 -0.8678
   62SAPC  H10S 4908  -0.058   5.399   9.600  2.5546 -1.9041 -0.8917
   62SAPC  C211 4909   0.060   5.408   9.422  0.0267  0.0497 -0.1118
   62SAPC  H11R 4910   0.131   5.336   9.465 -0.2827  0.6408  1.4333
   62SAPC  C212 4911   0.045   5.426   9.290  0.4655 -0.0538 -0.1429
   62SAPC  H12R 4912   0.109   5.360   9.230 -0.6532  0.3349 -1.8437
   62SAPC  C213 4913  -0.045   5.518   9.219  0.2426 -0.9808  0.5669
   62SAPC  H13R 4914   0.009   5.562   9.133  0.0434  1.6387  1.6931
   62SAPC  H13S 4915  -0.092   5.600   9.278 -0.0864  0.6230 -1.7968
   62SAPC  C214 4916  -0.163   5.438   9.166 -0.1417  0.0555  0.4825
   62SAPC  H14R 4917  -0.235   5.401   9.240 -3.9603  2.7491 -1.5239
   62SAPC  C215 4918  -0.203   5.434   9.034  0.2748  0.5988  0.1503
   62SAPC  H15R 4919  -0.289   5.375   8.997 -0.4242  1.9111 -0.3992
   62SAPC  C216 4920  -0.122   5.505   8.928 -0.6996 -0.1845  0.2009
   62SAPC  H16R 4921  -0.011   5.508   8.939 -0.3919 -2.1525 -1.7362
   62SAPC  H16S 4922  -0.162   5.609   8.923 -3.2352 -1.1343 -1.7499
   62SAPC  C217 4923  -0.145   5.438   8.791 -0.0843 -0.2601  0.1206
   62SAPC  H17R 4924  -0.255   5.436   8.770  0.0638  2.0051 -1.0851
   62SAPC  H17S 4925  -0.104   5.335   8.799  0.1069 -0.1348  0.7887
   62SAPC  C218 4926  -0.060   5.502   8.679 -0.6969  0.3588 -0.3583
   62SAPC  H18R 4927   0.048   5.486   8.701 -0.4744  0.6852 -1.1860
   62SAPC  H18S 4928  -0.089   5.607   8.659  1.1388  0.9213 -0.2479
   62SAPC  C219 4929  -0.090   5.428   8.549 -0.3937 -0.0552 -0.5286
   62SAPC  H19R 4930  -0.077   5.495   8.461 -1.8232 -1.2709 -1.7349
   62SAPC  H19S 4931  -0.197   5.401   8.533 -1.4150  3.0984  0.3203
   62SAPC  C220 4932  -0.002   5.303   8.519  0.4253 -0.0393  0.6575
   62SAPC  H20R 4933  -0.005   5.232   8.604 -0.3350  0.5824  1.1630
   62SAPC  H20S 4934   0.102   5.341   8.509 -0.2194  1.5153 -0.5991
   62SAPC  H20T 4935  -0.030   5.246   8.428  2.5039  0.0878 -0.1139
   62SAPC   C33 4936   0.812   5.682  10.122  0.1159 -0.0590 -0.5735
   62SAPC   H3X 4937   0.922   5.673  10.134  0.1418  0.0217 -0.7428
   62SAPC   H3Y 4938   0.773   5.753  10.199 -0.4088  0.8931 -1.6884
   62SAPC   C34 4939   0.764   5.745   9.987 -0.2754 -0.2284  0.0127
   62SAPC   H4X 4940   0.812   5.844   9.971  0.9289 -1.1049 -2.3694
   62SAPC   H4Y 4941   0.655   5.743   9.964 -0.5282  0.9839  0.9980
   62SAPC   C35 4942   0.816   5.677   9.861 -0.8646  0.6897  0.1140
   62SAPC   H5X 4943   0.764   5.579   9.864 -1.9337  1.2671  1.8447
   62SAPC   H5Y 4944   0.926   5.661   9.865 -0.8968  0.4609  0.0519
   62SAPC   C36 4945   0.760   5.742   9.734  0.4164  0.1883 -0.3893
   62SAPC   H6X 4946   0.799   5.845   9.722  1.2514 -0.2496 -1.6747
   62SAPC   H6Y 4947   0.649   5.747   9.740  0.3650 -0.2930 -0.8168
   62SAPC   C37 4948   0.814   5.672   9.615 -0.1648 -0.1698 -0.0072
   62SAPC   H7X 4949   0.768   5.570   9.615  2.1993 -1.3064 -0.9159
   62SAPC   H7Y 4950   0.924   5.660   9.615  0.0488  1.3654  1.7859
   62SAPC   C38 4951   0.763   5.747   9.497 -0.5093 -1.0847  0.5443
   62SAPC   H8X 4952   0.781   5.857   9.504 -2.8847 -0.5454 -0.8185
   62SAPC   H8Y 4953   0.655   5.723   9.497 -0.7253 -0.3235  2.5647
   62SAPC   C39 4954   0.815   5.691   9.366  0.1266 -0.2300  0.6740
   62SAPC   H9X 4955   0.803   5.581   9.357 -0.7131 -0.0516 -0.5124
   62SAPC   H9Y 4956   0.925   5.708   9.359  0.2448 -1.5836 -1.5996
   62SAPC  C310 4957   0.753   5.770   9.247  0.1495  0.2947 -0.4930
   62SAPC  H10X 4958   0.737   5.871   9.291 -0.2829 -0.0018  0.0332
   62SAPC  H10Y 4959   0.655   5.721   9.229 -0.9513  1.0037  2.9556
   62SAPC  C311 4960   0.853   5.769   9.122  0.5796  0.1201  1.1497
   62SAPC  H11X 4961   0.957   5.792   9.153  1.5855  1.7967 -2.8364
   62SAPC  H11Y 4962   0.823   5.852   9.054  1.0718  1.6189  2.7058
   62SAPC  C312 4963   0.860   5.637   9.040 -0.1313 -0.3250 -0.5133
   62SAPC  H12X 4964   0.858   5.556   9.116 -1.9694  0.0329 -0.1408
   62SAPC  H12Y 4965   0.954   5.635   8.981  0.7752  0.4015  0.8651
   62SAPC  C313 4966   0.764   5.620   8.929 -0.0120  0.1990  0.0559
   62SAPC  H13X 4967   0.776   5.704   8.858 -0.0795 -0.6681 -1.0113
   62SAPC  H13Y 4968   0.656   5.620   8.956 -0.4009 -1.5243 -1.3153
   62SAPC  C314 4969   0.809   5.516   8.828  0.2231  0.2114 -0.3375
   62SAPC  H14X 4970   0.810   5.415   8.874 -3.5131  0.6088  1.0185
   62SAPC  H14Y 4971   0.915   5.530   8.797  0.0574 -0.8420 -1.5010
   62SAPC  C315 4972   0.723   5.498   8.698 -1.0703 -0.4085  0.3558
   62SAPC  H15X 4973   0.693   5.594   8.650 -2.5275 -1.3609 -0.7001
   62SAPC  H15Y 4974   0.626   5.453   8.727 -1.4937  0.2373 -0.0339
   62SAPC  C316 4975   0.781   5.392   8.608 -0.3319 -0.1348  0.6855
   62SAPC  H16X 4976   0.707   5.342   8.542 -0.1888  2.5672 -1.6935
   62SAPC  H16Y 4977   0.837   5.325   8.677  0.0353 -0.2030  0.3245
   62SAPC  C317 4978   0.883   5.449   8.503 -0.4544  0.5370  0.2958
   62SAPC  H17X 4979   0.965   5.510   8.547  0.9547 -0.0689 -1.3877
   62SAPC  H17Y 4980   0.836   5.517   8.429 -0.5462 -0.0357 -0.1815
   62SAPC  C318 4981   0.958   5.334   8.429  0.3144  0.1572 -0.1857
   62SAPC  H18X 4982   0.877   5.266   8.394  0.1587 -0.0516  0.5670
   62SAPC  H18Y 4983   1.026   5.278   8.496  1.0379  0.8403 -0.3365
   62SAPC  H18Z 4984   0.996   5.378   8.334 -1.2609  1.5381 -0.2154
   63SAPC     N 4985   6.172   4.647   6.173  0.1652  0.2808  0.1435
   63SAPC   C12 4986   6.042   4.706   6.224 -0.1603 -0.2461 -0.3150
   63SAPC  H12A 4987   5.958   4.659   6.175  0.2405 -1.0795 -0.2332
   63SAPC  H12B 4988   6.048   4.810   6.197 -2.6280  0.0533  0.1411
   63SAPC   C13 4989   6.293   4.665   6.258  0.2696  0.1730  0.1284
   63SAPC  H13A 4990   6.379   4.627   6.206 -0.3792 -0.3190 -0.6064
   63SAPC  H13B 4991   6.298   4.768   6.291  2.6402  0.2083 -0.2136
   63SAPC  H13C 4992   6.275   4.606   6.347  0.7032 -0.3776 -0.1437
   63SAPC   C14 4993   6.151   4.500   6.149  0.1834 -0.0961  0.1284
   63SAPC  H14A 4994   6.242   4.474   6.098  0.5081  0.5503  0.3616
   63SAPC  H14B 4995   6.135   4.455   6.245  1.9893 -3.5790 -1.0503
   63SAPC  H14C 4996   6.068   4.464   6.089 -0.4697 -0.7633  1.4060
   63SAPC   C15 4997   6.208   4.720   6.046 -0.3174  0.5028  0.8227
   63SAPC  H15A 4998   6.233   4.824   6.063  0.0690  0.8249 -1.4056
   63SAPC  H15B 4999   6.296   4.668   6.009  0.8165  1.5971  1.8665
   63SAPC  H15C 5000   6.131   4.717   5.970  1.1377 -2.8351 -0.7471
   63SAPC   C11 5001   6.018   4.697   6.374 -0.0380 -0.5714 -1.5007
   63SAPC  H11A 5002   5.916   4.737   6.390 -0.5833 -1.9290 -1.5224
   63SAPC  H11B 5003   6.080   4.772   6.429 -1.2410  0.2539 -1.2316
   63SAPC     P 5004   5.945   4.456   6.465  0.5253  0.1074 -0.7201
   63SAPC   O13 5005   5.837   4.450   6.366  0.2779  0.4509  1.0375
   63SAPC   O14 5006   6.010   4.326   6.483  0.1980 -0.2601  0.1571
   63SAPC   O12 5007   6.055   4.568   6.435 -0.3093  0.7923 -0.4705
   63SAPC   O11 5008   5.892   4.501   6.595 -0.8036  0.2465  0.1261
   63SAPC    C1 5009   5.954   4.600   6.681 -0.3315 -0.5187 -0.7422
   63SAPC    HA 5010   5.972   4.690   6.618 -0.4101  0.1668  0.1947
   63SAPC    HB 5011   5.885   4.630   6.763  1.5516 -0.4570  0.9124
   63SAPC    C2 5012   6.084   4.549   6.742  0.1790 -0.1494 -0.4188
   63SAPC    HS 5013   6.149   4.509   6.661 -0.7941  0.5517 -1.5770
   63SAPC   O21 5014   6.055   4.440   6.829 -0.4495 -0.0194 -0.2938
   63SAPC   C21 5015   6.150   4.350   6.846 -0.1918 -0.2272 -0.4851
   63SAPC   O22 5016   6.260   4.357   6.790 -0.0483 -0.3886 -0.4919
   63SAPC   C22 5017   6.109   4.244   6.945 -0.0609  0.0090 -0.1775
   63SAPC   H2R 5018   6.065   4.162   6.884  0.0148 -0.5236  0.4649
   63SAPC   H2S 5019   6.200   4.212   6.999 -0.2223  0.4867  0.3954
   63SAPC    C3 5020   6.169   4.653   6.817 -0.3145  0.6751 -0.1145
   63SAPC    HX 5021   6.214   4.714   6.735 -0.6514  0.2454 -0.6253
   63SAPC    HY 5022   6.254   4.605   6.868  0.9324  0.4303 -2.2892
   63SAPC   O31 5023   6.086   4.730   6.907 -0.2495  0.0135  0.4579
   63SAPC   C31 5024   6.147   4.840   6.953  0.3385  0.1098  0.4410
   63SAPC   O32 5025   6.257   4.877   6.925 -0.4155 -0.2951 -0.1545
   63SAPC   C32 5026   6.056   4.909   7.054  0.2681 -0.3971 -0.2163
   63SAPC   H2X 5027   6.037   4.831   7.130  3.3755 -0.0609  1.0343
   63SAPC   H2Y 5028   5.963   4.953   7.013  1.5195  3.4623  0.6538
   63SAPC   C23 5029   6.007   4.285   7.053 -0.2360  0.5129 -0.1829
   63SAPC   H3R 5030   5.914   4.326   7.007 -1.8386 -1.0349  1.4838
   63SAPC   H3S 5031   6.049   4.379   7.094 -0.2026  0.8799 -1.0359
   63SAPC   C24 5032   5.972   4.156   7.144  0.3182  0.3815  0.0065
   63SAPC   H4R 5033   6.074   4.148   7.188  1.2293  3.0420 -1.3612
   63SAPC   H4S 5034   5.955   4.070   7.076  1.3171  1.2398 -1.4096
   63SAPC   C25 5035   5.871   4.183   7.250 -0.0721 -0.3749 -0.2857
   63SAPC   H5R 5036   5.796   4.256   7.218 -0.6980 -1.0441 -0.3599
   63SAPC   C26 5037   5.863   4.122   7.372 -0.2959  0.3666 -0.0965
   63SAPC   H6R 5038   5.794   4.168   7.444 -0.3997 -0.6662  0.4844
   63SAPC   C27 5039   5.959   4.021   7.423 -0.0457 -0.8877  0.2293
   63SAPC   H7R 5040   6.064   4.053   7.411  0.3108 -1.5128  1.5578
   63SAPC   H7S 5041   5.946   3.937   7.351 -1.9824 -1.4784  1.1974
   63SAPC   C28 5042   5.931   3.982   7.567 -0.7517  0.3466 -0.5286
   63SAPC   H8R 5043   6.015   4.010   7.632  0.4502 -1.7478 -1.1070
   63SAPC   C29 5044   5.821   3.923   7.621 -0.5235 -0.3927  0.5635
   63SAPC   H9R 5045   5.823   3.908   7.730  2.4404 -1.0548  0.5077
   63SAPC  C210 5046   5.702   3.882   7.545  0.2424  0.6100 -0.8628
   63SAPC  H10R 5047   5.678   3.777   7.574  2.2192  0.9475  2.5657
   63SAPC  H10S 5048   5.721   3.872   7.436 -1.8234 -0.6458 -1.1647
   63SAPC  C211 5049   5.589   3.975   7.576 -0.3325 -1.0608 -0.3527
   63SAPC  H11R 5050   5.576   4.062   7.510 -0.9690 -1.0633 -0.2428
   63SAPC  C212 5051   5.489   3.951   7.668 -0.8929 -0.8183 -0.4943
   63SAPC  H12R 5052   5.418   4.034   7.682  0.4715  0.4757 -0.9984
   63SAPC  C213 5053   5.476   3.840   7.762  0.1572  0.0290 -0.6528
   63SAPC  H13R 5054   5.453   3.886   7.861 -0.8583 -2.0507  0.1268
   63SAPC  H13S 5055   5.573   3.786   7.766  0.6485  0.9234  1.4192
   63SAPC  C214 5056   5.368   3.745   7.723  0.4594  0.3700  0.5250
   63SAPC  H14R 5057   5.315   3.759   7.628 -0.6218 -1.1651  0.8781
   63SAPC  C215 5058   5.327   3.632   7.782  0.5148  0.1589  0.2076
   63SAPC  H15R 5059   5.258   3.571   7.722  1.0342 -1.3759  1.1081
   63SAPC  C216 5060   5.377   3.558   7.910  0.5228 -0.3315 -0.1141
   63SAPC  H16R 5061   5.453   3.619   7.964 -0.0187  0.4611 -0.2262
   63SAPC  H16S 5062   5.429   3.464   7.882  1.1538 -0.4065  1.2291
   63SAPC  C217 5063   5.252   3.519   7.998  0.3557  0.0537 -0.6025
   63SAPC  H17R 5064   5.179   3.458   7.940 -1.4473  0.7761  0.8132
   63SAPC  H17S 5065   5.213   3.612   8.044 -0.7739  0.4830 -2.3389
   63SAPC  C218 5066   5.287   3.420   8.109 -0.6580  0.3361 -0.0656
   63SAPC  H18R 5067   5.347   3.338   8.064  0.9343  1.4481 -0.0765
   63SAPC  H18S 5068   5.195   3.377   8.153  0.6769  0.3211  2.9422
   63SAPC  C219 5069   5.380   3.468   8.228  0.4323 -0.2668  0.0644
   63SAPC  H19R 5070   5.319   3.544   8.281  0.9090  0.2292 -0.0884
   63SAPC  H19S 5071   5.462   3.522   8.176  0.3428  0.6934  0.9075
   63SAPC  C220 5072   5.418   3.355   8.326 -0.0944 -0.6773 -0.0865
   63SAPC  H20R 5073   5.323   3.329   8.378 -1.3283  1.8775 -0.9305
   63SAPC  H20S 5074   5.486   3.399   8.402 -1.1557 -1.3191  1.2831
   63SAPC  H20T 5075   5.463   3.263   8.281  1.0494  0.3865 -1.1883
   63SAPC   C33 5076   6.133   5.020   7.133  0.1321 -0.1276 -0.0677
   63SAPC   H3X 5077   6.159   5.105   7.066  0.4245 -0.8687 -0.9161
   63SAPC   H3Y 5078   6.231   4.982   7.168  0.3892  0.6807  0.0979
   63SAPC   C34 5079   6.053   5.080   7.246  0.0788 -0.0302 -0.5841
   63SAPC   H4X 5080   5.968   5.136   7.201  0.6667 -0.8238 -2.8275
   63SAPC   H4Y 5081   6.115   5.165   7.282  1.8324 -1.4289 -0.1854
   63SAPC   C35 5082   6.003   4.991   7.366  0.3053 -0.6335  0.6068
   63SAPC   H5X 5083   6.096   4.961   7.420 -1.6652 -0.2506  4.6217
   63SAPC   H5Y 5084   5.939   4.905   7.334 -2.9084  1.4584  0.9661
   63SAPC   C36 5085   5.922   5.061   7.475  0.8138 -0.4145  0.0683
   63SAPC   H6X 5086   5.817   5.091   7.452  0.0263 -1.2888  2.2706
   63SAPC   H6Y 5087   5.975   5.148   7.518 -1.3813  0.9494  0.1984
   63SAPC   C37 5088   5.909   4.960   7.598  0.2976  0.3729 -0.8977
   63SAPC   H7X 5089   6.010   4.948   7.641 -0.7760  1.4505  2.1856
   63SAPC   H7Y 5090   5.875   4.857   7.572  0.0844 -1.2285  4.4655
   63SAPC   C38 5091   5.829   5.008   7.715 -0.6496  0.3491  0.6475
   63SAPC   H8X 5092   5.728   5.035   7.675 -0.8289  0.8454  1.4204
   63SAPC   H8Y 5093   5.868   5.106   7.750  3.4090 -0.5856 -0.7009
   63SAPC   C39 5094   5.816   4.915   7.842 -0.0497 -0.2464 -0.2136
   63SAPC   H9X 5095   5.738   4.840   7.817 -0.3508  0.1985 -0.6087
   63SAPC   H9Y 5096   5.781   4.989   7.917  1.4420  1.7200 -1.3514
   63SAPC  C310 5097   5.953   4.865   7.894  0.4397 -0.9126  0.5959
   63SAPC  H10X 5098   6.015   4.958   7.893 -2.9808  1.6429 -1.9478
   63SAPC  H10Y 5099   5.993   4.793   7.819 -1.0305 -0.7832 -0.3493
   63SAPC  C311 5100   5.936   4.806   8.030 -0.1512  0.1390  0.5380
   63SAPC  H11X 5101   6.025   4.748   8.061  0.4793 -0.7276 -2.6371
   63SAPC  H11Y 5102   5.850   4.736   8.040 -0.4715  0.5505  0.7562
   63SAPC  C312 5103   5.920   4.913   8.140  0.1607 -0.7029 -0.1637
   63SAPC  H12X 5104   5.815   4.950   8.135 -0.7018 -3.1312 -1.7004
   63SAPC  H12Y 5105   5.987   4.997   8.111  0.6445 -1.1005 -0.2118
   63SAPC  C313 5106   5.970   4.883   8.287 -0.2630 -0.3488  0.1485
   63SAPC  H13X 5107   5.973   4.982   8.338  0.5415  0.1015 -0.7318
   63SAPC  H13Y 5108   6.079   4.860   8.280 -0.2893 -0.3993 -0.0931
   63SAPC  C314 5109   5.897   4.779   8.361 -0.3703  0.3715  0.1274
   63SAPC  H14X 5110   5.933   4.739   8.458 -1.6404 -0.8097  0.1555
   63SAPC  H14Y 5111   5.908   4.690   8.296  0.2585  0.7789 -0.3250
   63SAPC  C315 5112   5.747   4.809   8.368 -0.3593 -0.4751 -0.7394
   63SAPC  H15X 5113   5.711   4.813   8.263  1.5618  0.2222 -1.4278
   63SAPC  H15Y 5114   5.722   4.909   8.409  1.9232 -0.8751  1.9408
   63SAPC  C316 5115   5.669   4.692   8.428  0.1124  0.0929 -0.5617
   63SAPC  H16X 5116   5.687   4.593   8.381  2.1384  0.7549 -1.2894
   63SAPC  H16Y 5117   5.561   4.713   8.415 -0.4134 -2.5752 -1.0672
   63SAPC  C317 5118   5.691   4.665   8.573  0.1366  0.2939 -0.1562
   63SAPC  H17X 5119   5.671   4.756   8.634 -0.1361  0.9399 -1.1769
   63SAPC  H17Y 5120   5.796   4.649   8.605 -0.8829 -0.1745  3.4579
   63SAPC  C318 5121   5.600   4.558   8.635 -0.3461  0.0339  0.0210
   63SAPC  H18X 5122   5.495   4.579   8.608 -0.5289  1.8004  1.8762
   63SAPC  H18Y 5123   5.610   4.556   8.745 -1.9668 -1.4401  0.1789
   63SAPC  H18Z 5124   5.635   4.464   8.587 -1.2121  0.7119 -2.0422
   64SAPC     N 5125   0.610   5.132   5.931 -0.4214  0.1635 -0.2715
   64SAPC   C12 5126   0.477   5.067   5.983 -0.0117 -0.2801  0.9626
   64SAPC  H12A 5127   0.499   4.962   5.993  1.5272 -0.3518 -1.8788
   64SAPC  H12B 5128   0.394   5.064   5.914 -1.0035 -0.9990  2.1593
   64SAPC   C13 5129   0.643   5.049   5.809 -0.4348  0.0621  0.9654
   64SAPC  H13A 5130   0.568   5.057   5.732  1.2529 -1.2128 -0.9008
   64SAPC  H13B 5131   0.734   5.089   5.766  0.3279 -2.6628 -0.1572
   64SAPC  H13C 5132   0.659   4.944   5.828 -2.6079 -0.2680  1.1826
   64SAPC   C14 5133   0.590   5.274   5.913 -0.0974 -1.0880  0.0243
   64SAPC  H14A 5134   0.690   5.313   5.926 -0.3928 -0.3426  0.1388
   64SAPC  H14B 5135   0.547   5.304   5.819  3.0792  2.2587 -0.6052
   64SAPC  H14C 5136   0.531   5.312   5.995 -1.4991 -0.7454 -1.1139
   64SAPC   C15 5137   0.726   5.129   6.032  0.3475 -0.4811  0.3928
   64SAPC  H15A 5138   0.817   5.164   5.985 -0.0914  0.6325  0.3476
   64SAPC  H15B 5139   0.706   5.190   6.118 -0.9994 -2.2488  1.3958
   64SAPC  H15C 5140   0.733   5.027   6.067 -4.0095 -1.3311 -0.6121
   64SAPC   C11 5141   0.423   5.109   6.121 -0.6837  0.6629  0.3168
   64SAPC  H11A 5142   0.505   5.097   6.194  0.0797 -1.1969 -0.7865
   64SAPC  H11B 5143   0.345   5.037   6.153  2.9026 -2.7970  1.9868
   64SAPC     P 5144   0.247   5.288   6.074 -0.2016  0.3429 -0.3994
   64SAPC   O13 5145   0.264   5.407   5.996  0.4297  0.4839 -0.0322
   64SAPC   O14 5146   0.180   5.178   5.999  0.2892  0.0752 -0.5645
   64SAPC   O12 5147   0.381   5.245   6.131 -0.7300  0.5998  0.0457
   64SAPC   O11 5148   0.158   5.332   6.200 -0.7649 -0.1229 -0.1838
   64SAPC    C1 5149   0.135   5.222   6.295  0.4722 -0.6382 -0.1029
   64SAPC    HA 5150   0.026   5.201   6.302  0.2898  0.0554 -0.8246
   64SAPC    HB 5151   0.177   5.122   6.269  0.7206 -0.3782 -0.7149
   64SAPC    C2 5152   0.165   5.268   6.441  0.5061  0.3798 -0.2832
   64SAPC    HS 5153   0.143   5.181   6.506  0.3772 -0.2347 -1.1303
   64SAPC   O21 5154   0.090   5.376   6.483  0.5612  0.1445 -0.0497
   64SAPC   C21 5155  -0.037   5.348   6.523  0.2288  0.2878  0.3397
   64SAPC   O22 5156  -0.097   5.244   6.510  1.0472 -0.6435  0.6072
   64SAPC   C22 5157  -0.089   5.477   6.588 -0.4573  0.1195  0.1495
   64SAPC   H2R 5158  -0.143   5.532   6.508  3.1068  0.8392 -1.9897
   64SAPC   H2S 5159  -0.162   5.445   6.666  0.3162  0.6373  1.0993
   64SAPC    C3 5160   0.311   5.301   6.465 -0.4038 -0.3558 -0.2481
   64SAPC    HX 5161   0.332   5.400   6.420  0.5351  0.3804  1.7016
   64SAPC    HY 5162   0.371   5.226   6.409 -1.0863 -1.3549  0.3294
   64SAPC   O31 5163   0.350   5.297   6.608  0.4270  0.6413 -0.1252
   64SAPC   C31 5164   0.447   5.368   6.641 -0.0044  0.1549 -0.6073
   64SAPC   O32 5165   0.511   5.448   6.576 -0.4944 -0.1299  0.3043
   64SAPC   C32 5166   0.475   5.344   6.792 -0.0926 -0.3534 -0.2761
   64SAPC   H2X 5167   0.430   5.251   6.830 -0.3638  0.1304  0.6116
   64SAPC   H2Y 5168   0.429   5.429   6.847 -1.4594 -1.4420  0.3242
   64SAPC   C23 5169   0.020   5.575   6.639 -0.9554  0.1446  0.3401
   64SAPC   H3R 5170   0.064   5.622   6.548 -1.3408  0.1607  0.1589
   64SAPC   H3S 5171   0.105   5.531   6.696  0.3688  3.2437  0.9772
   64SAPC   C24 5172  -0.035   5.689   6.718  0.2009 -0.0302 -0.1043
   64SAPC   H4R 5173  -0.122   5.730   6.662 -0.1597 -1.7624 -0.8631
   64SAPC   H4S 5174   0.038   5.771   6.733  0.3863 -0.3990  1.1337
   64SAPC   C25 5175  -0.084   5.642   6.856 -0.4591  0.0727  0.4295
   64SAPC   H5R 5176  -0.189   5.670   6.874 -0.5810  1.1258 -1.6474
   64SAPC   C26 5177  -0.016   5.575   6.952  0.4534  0.2461  0.4900
   64SAPC   H6R 5178  -0.073   5.571   7.046 -0.4827  0.2526 -0.0646
   64SAPC   C27 5179   0.122   5.518   6.966 -0.5606 -0.3101 -0.1171
   64SAPC   H7R 5180   0.165   5.564   7.058  1.2958  0.4940 -1.3381
   64SAPC   H7S 5181   0.190   5.547   6.883 -0.4685 -0.3599 -0.0594
   64SAPC   C28 5182   0.131   5.365   6.963  0.2550 -0.5285  0.8245
   64SAPC   H8R 5183   0.087   5.323   6.871 -0.1681  0.6799  0.4529
   64SAPC   C29 5184   0.186   5.291   7.054 -0.5603  0.2266 -0.2221
   64SAPC   H9R 5185   0.186   5.181   7.051  0.2149  0.1950  0.5798
   64SAPC  C210 5186   0.234   5.346   7.194  0.6585  0.0671 -0.0840
   64SAPC  H10R 5187   0.287   5.444   7.190  0.1027  0.3217 -1.4306
   64SAPC  H10S 5188   0.311   5.277   7.235 -0.3635 -2.0134 -1.5137
   64SAPC  C211 5189   0.105   5.357   7.272 -0.0390  0.1107 -0.2858
   64SAPC  H11R 5190   0.031   5.431   7.238  1.7162  1.1438 -2.0671
   64SAPC  C212 5191   0.073   5.293   7.393  0.2299 -0.3200 -0.0423
   64SAPC  H12R 5192  -0.020   5.328   7.440 -0.4039 -0.9621 -0.8033
   64SAPC  C213 5193   0.161   5.199   7.472 -0.6347  0.5232  0.0352
   64SAPC  H13R 5194   0.205   5.126   7.400 -0.6447  0.3954  0.1579
   64SAPC  H13S 5195   0.106   5.137   7.546  1.6420 -1.6007  0.0869
   64SAPC  C214 5196   0.278   5.277   7.532  0.0295 -0.3520  0.5198
   64SAPC  H14R 5197   0.366   5.291   7.468 -1.8592  0.7037 -2.0109
   64SAPC  C215 5198   0.283   5.339   7.653  0.6086  0.0731 -0.0706
   64SAPC  H15R 5199   0.374   5.384   7.696 -0.4427  0.6593  1.6559
   64SAPC  C216 5200   0.175   5.336   7.760 -0.5266  0.5238 -0.7056
   64SAPC  H16R 5201   0.074   5.311   7.721 -0.4834  0.8271 -1.0176
   64SAPC  H16S 5202   0.178   5.427   7.824  2.2706  0.0808 -0.0866
   64SAPC  C217 5203   0.216   5.219   7.855 -0.2656  0.4826  0.0088
   64SAPC  H17R 5204   0.323   5.216   7.885 -0.9422  2.1628  2.9179
   64SAPC  H17S 5205   0.184   5.125   7.805 -0.2154 -0.5392  1.8177
   64SAPC  C218 5206   0.138   5.221   7.987 -0.2220  0.0031  0.1146
   64SAPC  H18R 5207   0.130   5.327   8.017  0.0120  0.2489 -0.6591
   64SAPC  H18S 5208   0.210   5.175   8.058  0.5304  1.0742  0.0618
   64SAPC  C219 5209  -0.001   5.156   7.978 -0.2991 -0.6968 -0.1500
   64SAPC  H19R 5210   0.002   5.046   7.991  4.2184 -0.9509 -1.7932
   64SAPC  H19S 5211  -0.051   5.184   7.883 -0.9800  2.3568  0.9980
   64SAPC  C220 5212  -0.075   5.214   8.102  0.0114 -0.4334  0.6533
   64SAPC  H20R 5213  -0.049   5.165   8.199 -1.0290 -0.0067  1.1729
   64SAPC  H20S 5214  -0.185   5.205   8.087  0.0398  0.4481 -0.1177
   64SAPC  H20T 5215  -0.059   5.323   8.114 -1.0011 -0.5084  3.5415
   64SAPC   C33 5216   0.621   5.349   6.829 -0.1803  0.1185 -0.6967
   64SAPC   H3X 5217   0.690   5.425   6.787 -0.1792  0.8060  0.4828
   64SAPC   H3Y 5218   0.670   5.255   6.797  0.2292  0.1435 -0.1685
   64SAPC   C34 5219   0.630   5.345   6.985 -1.0223  0.7056  0.4398
   64SAPC   H4X 5220   0.527   5.328   7.021 -0.7614  1.8547  1.8273
   64SAPC   H4Y 5221   0.665   5.448   7.007 -2.1603  1.5517 -1.4912
   64SAPC   C35 5222   0.734   5.236   7.028 -0.2349  0.0152 -0.1659
   64SAPC   H5X 5223   0.820   5.237   6.958  1.0451 -3.9822  1.0635
   64SAPC   H5Y 5224   0.684   5.137   7.018 -2.3324  0.4842  3.5784
   64SAPC   C36 5225   0.792   5.244   7.165 -0.1369 -0.3166 -0.3957
   64SAPC   H6X 5226   0.859   5.333   7.169  3.5151 -2.7701 -2.0559
   64SAPC   H6Y 5227   0.862   5.161   7.185  0.6241  0.2565 -0.6159
   64SAPC   C37 5228   0.684   5.244   7.286  0.2938 -0.6400  1.0500
   64SAPC   H7X 5229   0.617   5.156   7.282 -3.0872  1.5718  3.7145
   64SAPC   H7Y 5230   0.628   5.336   7.257  1.0749 -0.3843  0.2782
   64SAPC   C38 5231   0.743   5.266   7.429 -0.1165  0.5779 -0.3089
   64SAPC   H8X 5232   0.667   5.301   7.502  0.6412  0.5897  0.4853
   64SAPC   H8Y 5233   0.824   5.341   7.427  0.0776  0.4342  1.2225
   64SAPC   C39 5234   0.789   5.129   7.486  0.2689 -0.5304  0.5856
   64SAPC   H9X 5235   0.875   5.098   7.423 -0.1817 -0.3171 -0.1494
   64SAPC   H9Y 5236   0.714   5.050   7.464 -1.6751  1.9058 -2.5956
   64SAPC  C310 5237   0.821   5.146   7.635 -0.3935 -0.5524 -0.0968
   64SAPC  H10X 5238   0.835   5.255   7.649 -0.7154 -0.4840 -0.2828
   64SAPC  H10Y 5239   0.921   5.099   7.641  0.2613  0.7500 -0.4686
   64SAPC  C311 5240   0.715   5.092   7.734  0.0760  0.0948  0.7098
   64SAPC  H11X 5241   0.692   4.989   7.701  2.2202  0.0184 -0.7621
   64SAPC  H11Y 5242   0.624   5.145   7.700  0.8946  1.3619  0.4316
   64SAPC  C312 5243   0.751   5.112   7.883 -0.2489 -0.0033  0.2498
   64SAPC  H12X 5244   0.782   5.219   7.885  0.0694 -0.0834  2.1616
   64SAPC  H12Y 5245   0.843   5.054   7.909  0.7806  1.7419  0.6935
   64SAPC  C313 5246   0.629   5.077   7.974 -0.1545 -0.2334 -0.1170
   64SAPC  H13X 5247   0.576   4.981   7.957 -1.1693  0.4454 -0.9388
   64SAPC  H13Y 5248   0.551   5.152   7.946 -2.0575 -2.3698 -0.8752
   64SAPC  C314 5249   0.662   5.089   8.126  0.1709 -0.0494 -0.5483
   64SAPC  H14X 5250   0.569   5.094   8.187 -0.3698 -1.1390 -1.2534
   64SAPC  H14Y 5251   0.703   5.192   8.124 -1.5119  0.7631  2.1007
   64SAPC  C315 5252   0.753   4.978   8.188  0.4031  0.4800  0.2118
   64SAPC  H15X 5253   0.859   5.010   8.196  1.2515 -1.6495 -1.2974
   64SAPC  H15Y 5254   0.753   4.893   8.116 -1.3675  0.5384  0.1090
   64SAPC  C316 5255   0.702   4.928   8.326 -1.1742 -0.2389 -0.2484
   64SAPC  H16X 5256   0.593   4.907   8.319 -1.3386  0.4440  0.1743
   64SAPC  H16Y 5257   0.706   5.018   8.391 -0.6100 -0.8013  0.5209
   64SAPC  C317 5258   0.767   4.810   8.396 -0.7454  0.3457  0.1827
   64SAPC  H17X 5259   0.740   4.717   8.342  0.8837  0.0525 -0.1805
   64SAPC  H17Y 5260   0.711   4.813   8.492 -0.4811  0.8152  0.3255
   64SAPC  C318 5261   0.913   4.799   8.408  0.4520  0.5254 -0.2045
   64SAPC  H18X 5262   0.933   4.886   8.474 -1.0381 -0.5807  1.8020
   64SAPC  H18Y 5263   0.949   4.811   8.303 -0.7897 -1.6670 -0.9369
   64SAPC  H18Z 5264   0.954   4.707   8.454  1.4670  0.7850 -0.5498
   65SAPC     N 5265   6.379   6.517   5.859  0.1654 -0.1934  0.2362
   65SAPC   C12 5266   6.425   6.394   5.935 -0.6012 -0.8103  0.0477
   65SAPC  H12A 5267   6.532   6.388   5.919 -0.5138  1.5570 -0.5351
   65SAPC  H12B 5268   6.388   6.301   5.893 -1.6314 -0.8982  1.1156
   65SAPC   C13 5269   6.232   6.540   5.873 -0.0966  0.0760  0.0512
   65SAPC  H13A 5270   6.173   6.450   5.873  0.0682 -0.0740  1.6052
   65SAPC  H13B 5271   6.216   6.590   5.968  2.1876 -0.5583  0.8518
   65SAPC  H13C 5272   6.198   6.612   5.801 -0.0047  0.5602  0.4814
   65SAPC   C14 5273   6.435   6.642   5.918 -0.0619  0.0198  0.5324
   65SAPC  H14A 5274   6.402   6.724   5.855 -0.4404 -0.3122  0.2920
   65SAPC  H14B 5275   6.407   6.654   6.021 -1.8314 -1.9798  0.3535
   65SAPC  H14C 5276   6.542   6.630   5.908 -0.4056 -1.5047 -2.5465
   65SAPC   C15 5277   6.426   6.505   5.721 -0.2728  0.3934  0.4183
   65SAPC  H15A 5278   6.419   6.409   5.673 -4.6839  0.2152  1.0184
   65SAPC  H15B 5279   6.367   6.567   5.656 -0.7664  0.1234  0.6104
   65SAPC  H15C 5280   6.522   6.554   5.713 -0.1203 -0.0015 -0.1571
   65SAPC   C11 5281   6.401   6.392   6.089 -0.6322 -0.5742  0.3472
   65SAPC  H11A 5282   6.417   6.289   6.128 -0.4797 -0.1672  1.3927
   65SAPC  H11B 5283   6.296   6.425   6.104 -0.0904  0.7126  1.4483
   65SAPC     P 5284   6.643   6.444   6.160 -0.5530  0.0435  0.5186
   65SAPC   O13 5285   6.693   6.362   6.048 -0.1304 -0.4713  0.9085
   65SAPC   O14 5286   6.720   6.563   6.200  0.4932 -0.1282 -0.3323
   65SAPC   O12 5287   6.490   6.482   6.152  0.7390  0.3000 -0.3906
   65SAPC   O11 5288   6.640   6.343   6.284 -0.3335 -0.2488  0.6849
   65SAPC    C1 5289   6.570   6.383   6.409  0.6717  0.6130  0.2955
   65SAPC    HA 5290   6.536   6.489   6.405 -2.4426 -0.3173 -2.3422
   65SAPC    HB 5291   6.485   6.312   6.419  2.9828 -2.2791  0.8987
   65SAPC    C2 5292   6.643   6.340   6.544  0.3195 -0.1021 -0.8146
   65SAPC    HS 5293   6.558   6.335   6.616  0.7283 -1.3817 -0.4052
   65SAPC   O21 5294   6.739   6.433   6.580 -0.0485  0.1151 -0.4502
   65SAPC   C21 5295   6.700   6.544   6.622 -0.0674 -0.3971  0.1741
   65SAPC   O22 5296   6.588   6.579   6.649 -0.6096  0.0126  0.2104
   65SAPC   C22 5297   6.824   6.638   6.623 -0.1946  0.0219  0.2444
   65SAPC   H2R 5298   6.891   6.597   6.544 -2.4365 -0.8007 -1.3322
   65SAPC   H2S 5299   6.794   6.741   6.593 -0.1866 -0.5601 -1.9265
   65SAPC    C3 5300   6.708   6.200   6.551 -0.5786 -0.2648  0.1872
   65SAPC    HX 5301   6.784   6.204   6.470  0.0065 -0.0908  0.7389
   65SAPC    HY 5302   6.632   6.124   6.523 -1.2796 -0.5197  2.5424
   65SAPC   O31 5303   6.759   6.162   6.686 -0.1133  0.4449 -0.8906
   65SAPC   C31 5304   6.882   6.111   6.689 -0.1411  0.3408 -0.4699
   65SAPC   O32 5305   6.955   6.075   6.596  0.0939 -0.8092 -0.3820
   65SAPC   C32 5306   6.917   6.106   6.842  0.1960 -0.2797 -0.1367
   65SAPC   H2X 5307   6.850   6.169   6.904  0.1335 -1.5348  1.1197
   65SAPC   H2Y 5308   7.017   6.151   6.855 -0.2257  0.1475  1.9503
   65SAPC   C23 5309   6.881   6.653   6.775  0.1796  0.1783  0.5484
   65SAPC   H3R 5310   6.797   6.686   6.841 -0.6619 -0.3972 -0.2068
   65SAPC   H3S 5311   6.957   6.734   6.767  0.8244 -0.3846  0.9215
   65SAPC   C24 5312   6.945   6.523   6.833  0.4712 -0.7001  0.0456
   65SAPC   H4R 5313   7.028   6.488   6.767 -0.5110 -0.8179 -1.1435
   65SAPC   H4S 5314   6.871   6.441   6.843  0.0457 -0.2560  0.6432
   65SAPC   C25 5315   7.006   6.557   6.970  0.2426  0.5728 -0.0199
   65SAPC   H5R 5316   7.111   6.590   6.961 -0.5192  2.7452 -2.4206
   65SAPC   C26 5317   6.947   6.537   7.094 -0.2246 -0.1415  1.1857
   65SAPC   H6R 5318   7.001   6.565   7.185 -0.0140 -0.8205  1.2790
   65SAPC   C27 5319   6.808   6.486   7.129  0.1271 -0.2029  0.5630
   65SAPC   H7R 5320   6.755   6.474   7.032 -0.7604  2.9977  0.5467
   65SAPC   H7S 5321   6.749   6.572   7.166  0.2886 -0.8555  2.4364
   65SAPC   C28 5322   6.820   6.371   7.235  0.4994 -0.5403 -0.2435
   65SAPC   H8R 5323   6.812   6.270   7.192 -1.7637 -0.3474 -0.3575
   65SAPC   C29 5324   6.847   6.387   7.369  0.2380 -0.8344  0.6927
   65SAPC   H9R 5325   6.860   6.296   7.428 -3.2030 -1.8045  0.1538
   65SAPC  C210 5326   6.886   6.521   7.435 -0.0820  1.0157  0.4727
   65SAPC  H10R 5327   6.835   6.602   7.378 -0.5314 -1.3400 -2.7701
   65SAPC  H10S 5328   6.995   6.540   7.425  0.4942 -2.4315 -1.3440
   65SAPC  C211 5329   6.865   6.534   7.583 -0.1192 -0.0880 -0.4062
   65SAPC  H11R 5330   6.935   6.475   7.643 -0.9136 -3.1860 -2.3248
   65SAPC  C212 5331   6.776   6.617   7.645 -0.4829  0.0540 -0.8369
   65SAPC  H12R 5332   6.770   6.623   7.754 -0.1011  0.6902 -0.8473
   65SAPC  C213 5333   6.668   6.707   7.584  0.3218  0.6697 -0.6001
   65SAPC  H13R 5334   6.695   6.711   7.476  0.5277  1.3239 -0.5254
   65SAPC  H13S 5335   6.677   6.804   7.635  0.9925  0.1766  0.2478
   65SAPC  C214 5336   6.527   6.661   7.596 -0.0728 -0.4332 -0.2569
   65SAPC  H14R 5337   6.492   6.638   7.698  0.9180 -0.6468  0.0516
   65SAPC  C215 5338   6.437   6.634   7.501  0.6745  0.2529 -0.6709
   65SAPC  H15R 5339   6.332   6.615   7.526  0.8370  0.9555  0.6368
   65SAPC  C216 5340   6.458   6.646   7.353 -0.3522  0.0283 -0.3607
   65SAPC  H16R 5341   6.395   6.589   7.281 -0.4435  1.0782 -1.1383
   65SAPC  H16S 5342   6.559   6.602   7.336 -0.9765 -0.5622 -2.9596
   65SAPC  C217 5343   6.467   6.798   7.322 -0.4279 -0.2631  0.6639
   65SAPC  H17R 5344   6.524   6.857   7.397  0.8191 -2.2685  1.3904
   65SAPC  H17S 5345   6.366   6.838   7.343 -0.8686 -2.8144  4.3735
   65SAPC  C218 5346   6.522   6.826   7.181 -0.0727  0.8683 -0.0945
   65SAPC  H18R 5347   6.616   6.768   7.170 -0.8503 -0.2620 -1.0384
   65SAPC  H18S 5348   6.539   6.936   7.180  0.9056  0.7226 -0.8131
   65SAPC  C219 5349   6.419   6.777   7.075 -0.0444 -0.2189  0.3640
   65SAPC  H19R 5350   6.320   6.809   7.114 -0.1672 -0.1519  0.0008
   65SAPC  H19S 5351   6.421   6.667   7.059  2.5058  0.1973 -3.2978
   65SAPC  C220 5352   6.443   6.846   6.941 -0.0428  0.2449 -0.2316
   65SAPC  H20R 5353   6.368   6.846   6.859 -1.0158 -2.2817  0.5694
   65SAPC  H20S 5354   6.535   6.806   6.892  1.8850  2.8672  0.9953
   65SAPC  H20T 5355   6.461   6.950   6.974 -1.6083  0.7918 -1.0608
   65SAPC   C33 5356   6.928   5.967   6.897  0.1342  0.0552 -1.0454
   65SAPC   H3X 5357   7.005   5.901   6.852 -4.0151 -6.0217 -0.4232
   65SAPC   H3Y 5358   6.828   5.919   6.888 -0.2436  0.8969 -1.4734
   65SAPC   C34 5359   6.950   5.974   7.052 -0.1113  0.1859  0.1987
   65SAPC   H4X 5360   6.867   6.028   7.102 -0.1048  1.3482 -0.9681
   65SAPC   H4Y 5361   7.042   6.034   7.073 -0.2451  0.2430  0.6153
   65SAPC   C35 5362   6.968   5.839   7.110 -0.0518  0.6422  0.9141
   65SAPC   H5X 5363   7.058   5.803   7.057 -2.2651 -0.8611 -2.1440
   65SAPC   H5Y 5364   6.874   5.782   7.093 -1.2692  2.2065  2.0295
   65SAPC   C36 5365   7.001   5.835   7.262  0.6154 -0.2693  0.1348
   65SAPC   H6X 5366   7.073   5.911   7.299 -0.0461 -0.1094  1.1213
   65SAPC   H6Y 5367   7.042   5.734   7.282 -1.8034 -1.5969 -1.0962
   65SAPC   C37 5368   6.872   5.856   7.348  0.7516 -1.2497  0.5313
   65SAPC   H7X 5369   6.795   5.779   7.327 -1.5798 -0.5544  5.2586
   65SAPC   H7Y 5370   6.831   5.957   7.327  0.6480 -0.4099  4.0739
   65SAPC   C38 5371   6.904   5.839   7.494 -0.0612 -0.1403 -0.3110
   65SAPC   H8X 5372   6.988   5.905   7.526  1.0097 -0.8960 -1.4590
   65SAPC   H8Y 5373   6.948   5.738   7.509  2.6317  1.0351  0.3872
   65SAPC   C39 5374   6.790   5.882   7.596  0.2123  0.0825 -0.1236
   65SAPC   H9X 5375   6.708   5.808   7.583  1.0094 -1.7326  3.7299
   65SAPC   H9Y 5376   6.753   5.983   7.565 -0.7513 -1.0939 -3.2947
   65SAPC  C310 5377   6.844   5.871   7.745 -0.1348  0.8641  0.3023
   65SAPC  H10X 5378   6.784   5.907   7.831 -0.6745 -2.1015  1.2817
   65SAPC  H10Y 5379   6.936   5.933   7.748 -1.1556  2.4868 -0.5583
   65SAPC  C311 5380   6.889   5.728   7.783  0.3577 -0.2586 -0.1727
   65SAPC  H11X 5381   6.949   5.681   7.702 -0.3330  1.5550 -1.8083
   65SAPC  H11Y 5382   6.797   5.665   7.786 -1.6076  2.2569 -2.5652
   65SAPC  C312 5383   6.975   5.711   7.911  0.1246 -0.6133  0.3930
   65SAPC  H12X 5384   7.074   5.760   7.901 -0.0699 -0.4277 -0.7299
   65SAPC  H12Y 5385   7.000   5.603   7.920  0.9574 -0.3781  0.9342
   65SAPC  C313 5386   6.923   5.757   8.045  0.3719 -1.3538  0.4175
   65SAPC  H13X 5387   6.930   5.867   8.055  0.0112 -1.4096  1.3883
   65SAPC  H13Y 5388   6.987   5.706   8.119  2.0563 -2.3265 -1.5961
   65SAPC  C314 5389   6.771   5.723   8.075 -0.0932 -0.2012 -0.0170
   65SAPC  H14X 5390   6.754   5.613   8.067 -1.3519  0.0777 -1.8934
   65SAPC  H14Y 5391   6.710   5.784   8.005 -0.1468  2.1000  1.9201
   65SAPC  C315 5392   6.728   5.756   8.216  0.5283 -0.1221 -0.2444
   65SAPC  H15X 5393   6.743   5.865   8.232  2.5125 -0.6967  2.4530
   65SAPC  H15Y 5394   6.795   5.699   8.284 -2.0786 -1.2343  1.5325
   65SAPC  C316 5395   6.588   5.726   8.254  0.2707  0.0561 -0.0277
   65SAPC  H16X 5396   6.517   5.787   8.194 -0.6993 -0.6169  0.4070
   65SAPC  H16Y 5397   6.563   5.748   8.360  0.1672 -0.8212  0.1404
   65SAPC  C317 5398   6.536   5.579   8.227  0.6045  0.3606 -0.5721
   65SAPC  H17X 5399   6.604   5.504   8.274 -0.2280  1.3690  2.4454
   65SAPC  H17Y 5400   6.532   5.551   8.119  0.4970 -5.6678  0.5990
   65SAPC  C318 5401   6.393   5.530   8.268 -0.1441  0.0444 -0.3032
   65SAPC  H18X 5402   6.302   5.576   8.226 -0.2078  1.4871  1.2955
   65SAPC  H18Y 5403   6.383   5.558   8.375  0.1480 -0.6375 -0.0927
   65SAPC  H18Z 5404   6.388   5.419   8.260 -0.2737  0.0681 -0.5450
   66SAPC     N 5405   4.844   0.160   5.947 -0.4350  0.7330 -0.8893
   66SAPC   C12 5406   4.805   0.073   6.062 -0.3601  0.0318 -0.4169
   66SAPC  H12A 5407   4.828   0.126   6.153 -2.4049  2.3236 -1.1457
   66SAPC  H12B 5408   4.877  -0.008   6.062  0.0218  0.3107  1.9044
   66SAPC   C13 5409   4.822   0.098   5.816 -0.0458 -0.5336  1.0481
   66SAPC  H13A 5410   4.718   0.096   5.786  0.5879  0.9767 -1.5900
   66SAPC  H13B 5411   4.879   0.165   5.753  0.7521  0.7536  3.0370
   66SAPC  H13C 5412   4.854  -0.005   5.817 -0.0559 -0.5527  2.6843
   66SAPC   C14 5413   4.772   0.297   5.954  0.5949  0.4068 -0.6890
   66SAPC  H14A 5414   4.666   0.279   5.964  0.5714  0.8863 -0.0650
   66SAPC  H14B 5415   4.800   0.357   6.039 -0.9807  0.5585 -0.2517
   66SAPC  H14C 5416   4.791   0.347   5.861  0.8026 -2.0473 -2.0667
   66SAPC   C15 5417   4.989   0.187   5.963  0.6197 -0.3539  0.5073
   66SAPC  H15A 5418   5.050   0.098   5.958  2.3263  0.8332 -1.9159
   66SAPC  H15B 5419   5.025   0.247   5.881 -0.1447  1.1859  1.2526
   66SAPC  H15C 5420   4.996   0.238   6.058 -3.2075 -0.5565  1.0827
   66SAPC   C11 5421   4.665   0.014   6.061 -0.0192  0.0426  0.9230
   66SAPC  H11A 5422   4.601   0.087   6.006  1.8085 -0.7838 -2.6163
   66SAPC  H11B 5423   4.623  -0.018   6.159 -4.1938 -2.4563 -1.3413
   66SAPC     P 5424   4.705  -0.243   6.029 -0.1465 -0.4631 -0.1074
   66SAPC   O13 5425   4.580  -0.304   6.071 -0.1238 -0.5862  0.9173
   66SAPC   O14 5426   4.793  -0.313   5.931 -0.5600  0.0569 -0.0757
   66SAPC   O12 5427   4.678  -0.099   5.969 -0.6255  0.0844  1.0176
   66SAPC   O11 5428   4.796  -0.208   6.156  0.4207 -0.3565  0.1542
   66SAPC    C1 5429   4.890  -0.311   6.204 -0.0193 -0.0085  0.0810
   66SAPC    HA 5430   4.946  -0.371   6.128  1.7650  2.3480 -0.6026
   66SAPC    HB 5431   4.958  -0.260   6.276  0.1223  3.6238 -2.3395
   66SAPC    C2 5432   4.821  -0.420   6.290 -0.2932 -0.4409 -0.3825
   66SAPC    HS 5433   4.768  -0.490   6.222  0.5112 -0.0917 -1.3997
   66SAPC   O21 5434   4.736  -0.352   6.381  0.2740 -0.3188  0.3249
   66SAPC   C21 5435   4.647  -0.422   6.454 -0.3679  0.5681 -0.3037
   66SAPC   O22 5436   4.634  -0.540   6.436  0.2577  0.0589 -0.4722
   66SAPC   C22 5437   4.560  -0.334   6.551  0.5943 -0.8014  0.9189
   66SAPC   H2R 5438   4.555  -0.234   6.502 -1.0118 -2.4386 -2.6515
   66SAPC   H2S 5439   4.458  -0.376   6.559 -0.4219  1.1844 -0.7461
   66SAPC    C3 5440   4.932  -0.509   6.358 -0.7610 -0.5388 -0.6141
   66SAPC    HX 5441   4.985  -0.577   6.288  1.7254 -1.2545  1.7935
   66SAPC    HY 5442   4.878  -0.581   6.423  0.6594 -1.4568 -0.4110
   66SAPC   O31 5443   5.039  -0.436   6.418  0.1224 -0.8520  0.1837
   66SAPC   C31 5444   5.029  -0.413   6.549 -0.1849  0.2686 -0.6039
   66SAPC   O32 5445   4.937  -0.447   6.618 -0.2261  0.0243 -0.1083
   66SAPC   C32 5446   5.156  -0.335   6.596  0.0966 -0.2943  0.2598
   66SAPC   H2X 5447   5.119  -0.239   6.638 -0.3120 -0.8577  1.2037
   66SAPC   H2Y 5448   5.201  -0.308   6.498 -1.3735 -0.3665 -0.4642
   66SAPC   C23 5449   4.614  -0.317   6.693 -0.2341 -0.5434 -0.7231
   66SAPC   H3R 5450   4.724  -0.302   6.695 -0.0203 -2.1140  0.6460
   66SAPC   H3S 5451   4.600  -0.421   6.728  1.1215 -1.8596 -3.7618
   66SAPC   C24 5452   4.554  -0.192   6.773 -0.4717  0.2410  0.2950
   66SAPC   H4R 5453   4.578  -0.106   6.708  1.8900  0.6072  1.5366
   66SAPC   H4S 5454   4.609  -0.191   6.870  0.1996  0.5609 -0.0871
   66SAPC   C25 5455   4.404  -0.190   6.773  0.2821 -0.2961  0.1101
   66SAPC   H5R 5456   4.350  -0.205   6.678 -0.6523 -0.9061  0.7265
   66SAPC   C26 5457   4.327  -0.160   6.881 -0.6009  0.3860 -0.6604
   66SAPC   H6R 5458   4.217  -0.152   6.873 -0.7110 -0.9387 -0.7617
   66SAPC   C27 5459   4.384  -0.145   7.023 -0.1849 -0.5645  0.2387
   66SAPC   H7R 5460   4.309  -0.100   7.092  2.4424  3.9823  0.5299
   66SAPC   H7S 5461   4.466  -0.071   7.021 -2.1152  1.6860 -0.3836
   66SAPC   C28 5462   4.458  -0.271   7.085 -0.1449 -0.3577 -0.2881
   66SAPC   H8R 5463   4.504  -0.341   7.014  1.5972 -1.2060  1.5739
   66SAPC   C29 5464   4.481  -0.290   7.214 -0.8446 -0.1020 -0.3094
   66SAPC   H9R 5465   4.537  -0.379   7.247  2.5929  2.2116  0.7749
   66SAPC  C210 5466   4.408  -0.207   7.318 -1.0520 -0.3357  0.3298
   66SAPC  H10R 5467   4.321  -0.261   7.362 -1.3336 -2.2507 -2.2806
   66SAPC  H10S 5468   4.369  -0.108   7.285  1.8065  0.6072 -0.4383
   66SAPC  C211 5469   4.496  -0.160   7.422 -0.2898  0.0646  0.4151
   66SAPC  H11R 5470   4.562  -0.084   7.377 -1.4245 -0.0340 -1.5479
   66SAPC  C212 5471   4.510  -0.204   7.555  0.0130  0.5568  0.8041
   66SAPC  H12R 5472   4.586  -0.160   7.621  0.7131 -0.3009  0.5935
   66SAPC  C213 5473   4.426  -0.307   7.628 -0.8818  0.2333 -0.3793
   66SAPC  H13R 5474   4.417  -0.397   7.563  1.8709  0.8756 -1.7794
   66SAPC  H13S 5475   4.327  -0.259   7.642 -1.3923 -0.9684  0.2686
   66SAPC  C214 5476   4.489  -0.350   7.761 -0.4672  0.4096  0.9956
   66SAPC  H14R 5477   4.566  -0.428   7.757 -1.9623 -1.0737 -0.4719
   66SAPC  C215 5478   4.470  -0.291   7.880 -0.5740  0.7145  0.2704
   66SAPC  H15R 5479   4.532  -0.338   7.957 -0.1018 -0.9664 -1.0740
   66SAPC  C216 5480   4.387  -0.171   7.922 -0.9581 -0.5754 -0.7159
   66SAPC  H16R 5481   4.301  -0.202   7.985 -0.6362  1.0065  0.5617
   66SAPC  H16S 5482   4.343  -0.121   7.834 -1.4936 -2.1525 -1.3793
   66SAPC  C217 5483   4.455  -0.053   8.000 -0.0471 -0.8201 -0.8789
   66SAPC  H17R 5484   4.388   0.036   8.004 -1.4861 -1.7056 -2.9909
   66SAPC  H17S 5485   4.542  -0.007   7.948 -0.8082  0.3330 -1.1711
   66SAPC  C218 5486   4.498  -0.091   8.148  0.1260 -0.0845  1.0117
   66SAPC  H18R 5487   4.572  -0.174   8.148 -0.8623 -0.9915  1.3271
   66SAPC  H18S 5488   4.409  -0.129   8.204 -0.5261 -0.4530 -0.2478
   66SAPC  C219 5489   4.548   0.025   8.231  0.8167  0.2172  0.0281
   66SAPC  H19R 5490   4.491   0.116   8.200  1.7821  1.1434  0.9097
   66SAPC  H19S 5491   4.650   0.051   8.197  0.4097  0.4234 -1.0940
   66SAPC  C220 5492   4.529  -0.001   8.381 -0.5315 -0.6559 -0.5876
   66SAPC  H20R 5493   4.425   0.019   8.415 -0.9848  0.0235 -2.2465
   66SAPC  H20S 5494   4.598   0.065   8.438  0.0318 -0.7923 -1.0971
   66SAPC  H20T 5495   4.547  -0.107   8.405 -3.5814 -1.2713 -0.5959
   66SAPC   C33 5496   5.254  -0.396   6.692 -0.1646  0.3454  0.1520
   66SAPC   H3X 5497   5.352  -0.345   6.680 -1.2851  2.1241 -2.2213
   66SAPC   H3Y 5498   5.301  -0.490   6.655  1.7409  2.2966 -2.9334
   66SAPC   C34 5499   5.216  -0.407   6.837  0.3085 -0.0510  0.5705
   66SAPC   H4X 5500   5.132  -0.478   6.854 -0.3332  0.8680  1.2996
   66SAPC   H4Y 5501   5.179  -0.308   6.870 -1.6670 -0.9376  1.2229
   66SAPC   C35 5502   5.331  -0.453   6.918 -0.3293 -0.1732  0.4412
   66SAPC   H5X 5503   5.422  -0.394   6.897 -0.8113  0.6063  0.4977
   66SAPC   H5Y 5504   5.355  -0.556   6.884  1.3964 -0.5686  2.5906
   66SAPC   C36 5505   5.311  -0.443   7.066 -0.3082  0.9860 -0.0645
   66SAPC   H6X 5506   5.241  -0.520   7.106  1.6076 -0.6393  0.3194
   66SAPC   H6Y 5507   5.270  -0.345   7.099 -1.8098  0.3284  0.0952
   66SAPC   C37 5508   5.438  -0.485   7.145 -0.4057 -0.4745  0.4430
   66SAPC   H7X 5509   5.520  -0.420   7.107 -1.2567  1.2537  1.3907
   66SAPC   H7Y 5510   5.474  -0.587   7.124 -0.6958 -0.3167 -0.8940
   66SAPC   C38 5511   5.418  -0.464   7.299  0.0984  0.0163 -0.0991
   66SAPC   H8X 5512   5.343  -0.539   7.332 -0.3024  0.2590 -0.4544
   66SAPC   H8Y 5513   5.391  -0.357   7.313  1.4389  0.2452  0.8963
   66SAPC   C39 5514   5.550  -0.491   7.377  0.7498 -0.1892  0.5227
   66SAPC   H9X 5515   5.631  -0.444   7.317 -0.8491  1.3277 -0.5674
   66SAPC   H9Y 5516   5.570  -0.600   7.384 -0.3299 -0.3250  1.7747
   66SAPC  C310 5517   5.540  -0.449   7.521 -0.0598  0.1001  0.0120
   66SAPC  H10X 5518   5.505  -0.345   7.538 -0.9955  0.1859 -2.0876
   66SAPC  H10Y 5519   5.639  -0.453   7.572  0.0439  0.2339 -0.1782
   66SAPC  C311 5520   5.450  -0.540   7.599  0.4165 -0.3141 -0.3075
   66SAPC  H11X 5521   5.491  -0.643   7.599  0.4893 -0.3088  1.0047
   66SAPC  H11Y 5522   5.350  -0.542   7.551  0.3175  1.0374 -0.1787
   66SAPC  C312 5523   5.444  -0.503   7.748 -0.5422  0.1420  0.1260
   66SAPC  H12X 5524   5.416  -0.396   7.762  3.0769  1.2670 -0.1033
   66SAPC  H12Y 5525   5.546  -0.515   7.791  0.0348 -1.1423 -1.4848
   66SAPC  C313 5526   5.354  -0.598   7.819  0.1805  0.0043 -0.9665
   66SAPC  H13X 5527   5.375  -0.705   7.794 -2.5870 -0.7365 -0.4071
   66SAPC  H13Y 5528   5.256  -0.604   7.767 -0.5781 -1.2724  0.5235
   66SAPC  C314 5529   5.343  -0.578   7.968  0.1604 -0.0954 -0.3289
   66SAPC  H14X 5530   5.318  -0.473   7.994 -0.8169 -0.4898  0.3964
   66SAPC  H14Y 5531   5.444  -0.593   8.010 -1.1763 -0.1852  3.1624
   66SAPC  C315 5532   5.247  -0.677   8.036 -0.7599  0.2707  0.4599
   66SAPC  H15X 5533   5.281  -0.780   8.010  1.1092  0.1281  3.0570
   66SAPC  H15Y 5534   5.143  -0.659   8.001 -1.2195 -2.3905  0.1874
   66SAPC  C316 5535   5.242  -0.637   8.183  0.0771 -0.3991 -0.2911
   66SAPC  H16X 5536   5.195  -0.539   8.204  0.3680 -0.2660 -0.2552
   66SAPC  H16Y 5537   5.348  -0.631   8.217 -0.0939 -1.7081  0.5615
   66SAPC  C317 5538   5.171  -0.747   8.271 -0.4682  0.0288 -0.4938
   66SAPC  H17X 5539   5.228  -0.752   8.366 -0.3274  0.5491 -0.5464
   66SAPC  H17Y 5540   5.180  -0.848   8.225 -1.0561 -0.0750 -0.3868
   66SAPC  C318 5541   5.021  -0.735   8.295  0.3328 -0.2282  0.0191
   66SAPC  H18X 5542   4.964  -0.781   8.212  0.3832  0.8057 -0.6085
   66SAPC  H18Y 5543   4.997  -0.627   8.310  0.2524  0.0433 -1.8181
   66SAPC  H18Z 5544   4.999  -0.792   8.388  0.9308 -1.3576 -0.5142
   67SAPC     N 5545   1.012   2.118   6.165  0.2010 -0.2210 -0.1250
   67SAPC   C12 5546   1.081   1.996   6.223 -0.0601  0.5282  0.2177
   67SAPC  H12A 5547   1.052   2.005   6.327  0.3793  0.4957  0.3465
   67SAPC  H12B 5548   1.188   2.010   6.217  0.5832 -3.5687 -2.6007
   67SAPC   C13 5549   1.018   2.117   6.016  0.4556 -0.0657 -0.4622
   67SAPC  H13A 5550   0.985   2.211   5.974 -1.5839 -0.0435  1.0418
   67SAPC  H13B 5551   1.118   2.080   5.994 -1.0614 -4.0431 -1.4605
   67SAPC  H13C 5552   0.943   2.049   5.980  0.7387 -0.2313 -0.7380
   67SAPC   C14 5553   0.869   2.116   6.203 -0.2027 -0.4595  0.1868
   67SAPC  H14A 5554   0.809   2.186   6.147 -0.1392 -0.3158  0.2981
   67SAPC  H14B 5555   0.835   2.018   6.173  1.3082 -0.7354 -0.7626
   67SAPC  H14C 5556   0.861   2.130   6.310  1.6350  1.5802  0.1308
   67SAPC   C15 5557   1.085   2.243   6.210  0.1542 -0.2672 -0.1645
   67SAPC  H15A 5558   1.186   2.238   6.171 -0.5808 -0.8944 -2.0963
   67SAPC  H15B 5559   1.039   2.331   6.168 -1.0948 -0.6523  0.3665
   67SAPC  H15C 5560   1.087   2.239   6.318 -1.7534  0.8839 -0.0405
   67SAPC   C11 5561   1.043   1.846   6.187 -0.0925 -0.0650  0.6402
   67SAPC  H11A 5562   1.120   1.776   6.226  0.0388 -0.6140 -0.5435
   67SAPC  H11B 5563   1.045   1.845   6.075 -0.6408  1.3622  0.5962
   67SAPC     P 5564   0.880   1.771   6.368  0.5449  0.0572 -0.1818
   67SAPC   O13 5565   0.746   1.823   6.400  0.3190 -0.3429  0.2159
   67SAPC   O14 5566   0.897   1.623   6.386  0.3835  0.8022  0.4028
   67SAPC   O12 5567   0.913   1.818   6.227  0.5335 -0.4189  0.8620
   67SAPC   O11 5568   0.977   1.850   6.466  0.1770  0.4603  0.1817
   67SAPC    C1 5569   1.049   1.774   6.565  0.0160  0.0634  0.0789
   67SAPC    HA 5570   1.038   1.663   6.563  2.5239 -0.2543  0.0878
   67SAPC    HB 5571   1.156   1.802   6.553 -0.5512  1.7570 -1.3353
   67SAPC    C2 5572   1.011   1.816   6.709 -1.0205  0.2708 -0.1040
   67SAPC    HS 5573   1.068   1.748   6.777 -0.4693 -0.3249 -1.1351
   67SAPC   O21 5574   0.872   1.811   6.743 -0.1403  0.0393 -0.0573
   67SAPC   C21 5575   0.822   1.690   6.753 -0.0740 -0.6992 -0.3322
   67SAPC   O22 5576   0.876   1.582   6.738 -0.4456  0.8795  0.4681
   67SAPC   C22 5577   0.672   1.697   6.760 -0.6812 -0.4673  0.4408
   67SAPC   H2R 5578   0.641   1.803   6.746  0.9235 -0.2033 -1.5346
   67SAPC   H2S 5579   0.646   1.636   6.671  2.0301  0.6147 -1.2143
   67SAPC    C3 5580   1.063   1.958   6.723 -0.5257 -0.0377  0.1514
   67SAPC    HX 5581   1.006   2.022   6.653 -0.2312 -0.6029 -0.6229
   67SAPC    HY 5582   1.170   1.952   6.693 -0.9659 -0.0450 -1.5080
   67SAPC   O31 5583   1.050   1.982   6.865 -0.2977 -0.3551 -0.2531
   67SAPC   C31 5584   0.977   2.092   6.896 -0.0464  0.5470  0.1009
   67SAPC   O32 5585   0.933   2.169   6.818  0.1144 -1.0271  0.1890
   67SAPC   C32 5586   0.975   2.108   7.044 -0.3457  0.8241  0.2040
   67SAPC   H2X 5587   1.072   2.154   7.074 -0.8703  0.2399  3.0598
   67SAPC   H2Y 5588   0.972   2.006   7.087  1.0541  0.0846 -1.2949
   67SAPC   C23 5589   0.624   1.624   6.885  0.7751  0.1053  0.6567
   67SAPC   H3R 5590   0.657   1.519   6.899  1.7859  0.3525  0.2005
   67SAPC   H3S 5591   0.519   1.604   6.851  1.3665  1.3548 -2.2287
   67SAPC   C24 5592   0.637   1.702   7.009 -0.0578  0.1534  0.0848
   67SAPC   H4R 5593   0.743   1.735   7.016 -0.8553  2.9044  0.4161
   67SAPC   H4S 5594   0.621   1.630   7.093 -1.6586  0.6518  0.2481
   67SAPC   C25 5595   0.545   1.819   7.027  0.2125  0.0888 -0.0584
   67SAPC   H5R 5596   0.477   1.841   6.943 -1.2286  1.0506  1.2987
   67SAPC   C26 5597   0.553   1.908   7.124 -0.3408 -0.6842  0.3031
   67SAPC   H6R 5598   0.483   1.993   7.118 -1.6619 -1.8416 -3.1312
   67SAPC   C27 5599   0.649   1.906   7.247  0.2636  0.1157  0.5196
   67SAPC   H7R 5600   0.671   2.012   7.275  1.8365 -0.2677  0.8747
   67SAPC   H7S 5601   0.741   1.845   7.233 -0.8765 -1.7497  0.8914
   67SAPC   C28 5602   0.577   1.849   7.366 -0.3019  0.1141 -0.2971
   67SAPC   H8R 5603   0.511   1.765   7.340 -0.7662  0.6018 -0.7146
   67SAPC   C29 5604   0.598   1.880   7.497 -0.0998 -0.3116 -0.1087
   67SAPC   H9R 5605   0.549   1.824   7.578 -0.4712  0.9711  0.5838
   67SAPC  C210 5606   0.707   1.976   7.549 -0.3380  0.0110  0.3606
   67SAPC  H10R 5607   0.670   2.080   7.563  1.0585  0.6191 -0.3101
   67SAPC  H10S 5608   0.787   1.981   7.472 -0.7605  3.0137 -0.0087
   67SAPC  C211 5609   0.773   1.924   7.668 -0.0463  1.2574  0.0545
   67SAPC  H11R 5610   0.853   1.849   7.657 -0.7799  0.6037 -0.8669
   67SAPC  C212 5611   0.744   1.969   7.794  0.2270 -0.1965 -0.1604
   67SAPC  H12R 5612   0.792   1.912   7.876  0.2524  1.5834  1.1267
   67SAPC  C213 5613   0.647   2.071   7.832  0.1104 -0.3715 -0.2615
   67SAPC  H13R 5614   0.597   2.043   7.927  1.9632  0.6627  1.0833
   67SAPC  H13S 5615   0.565   2.082   7.759 -0.4113 -0.4072  0.3129
   67SAPC  C214 5616   0.702   2.212   7.851  0.2363 -0.0546  0.2092
   67SAPC  H14R 5617   0.806   2.234   7.822 -1.1122  3.2944 -2.8289
   67SAPC  C215 5618   0.649   2.315   7.919 -0.0753  0.0051 -0.3989
   67SAPC  H15R 5619   0.707   2.408   7.908  1.6556 -0.8758  0.9194
   67SAPC  C216 5620   0.521   2.314   7.996 -0.7797  0.4661  0.3290
   67SAPC  H16R 5621   0.446   2.248   7.946  0.7637 -1.3333  0.2499
   67SAPC  H16S 5622   0.463   2.408   7.991 -1.8724 -0.2425 -1.4380
   67SAPC  C217 5623   0.543   2.268   8.139 -0.1396 -0.5007 -0.0990
   67SAPC  H17R 5624   0.608   2.341   8.193  1.6325  0.3775 -3.1816
   67SAPC  H17S 5625   0.602   2.174   8.132  2.0407  0.9048 -2.0441
   67SAPC  C218 5626   0.409   2.253   8.205 -0.4860 -0.0636  0.0536
   67SAPC  H18R 5627   0.349   2.186   8.141 -0.7294 -0.7212  0.9423
   67SAPC  H18S 5628   0.368   2.356   8.205 -1.8403 -0.5703 -1.7056
   67SAPC  C219 5629   0.417   2.189   8.349  0.0527  0.3693  0.4611
   67SAPC  H19R 5630   0.478   2.096   8.350 -1.8870 -0.9757  1.6571
   67SAPC  H19S 5631   0.318   2.157   8.390  0.1306  0.3929  0.6685
   67SAPC  C220 5632   0.464   2.292   8.452 -0.2884  0.3696  0.3405
   67SAPC  H20R 5633   0.495   2.254   8.551 -3.6470  2.4948  2.3855
   67SAPC  H20S 5634   0.385   2.365   8.478  0.4755  1.3890 -0.1351
   67SAPC  H20T 5635   0.545   2.352   8.405  1.5554 -0.5841  2.1669
   67SAPC   C33 5636   0.856   2.183   7.099  0.0586  0.1801  0.4133
   67SAPC   H3X 5637   0.761   2.134   7.068  0.8374 -1.5331  0.6094
   67SAPC   H3Y 5638   0.859   2.283   7.051  1.6325  0.3170  0.7488
   67SAPC   C34 5639   0.872   2.204   7.249 -0.4234 -0.3078  0.3463
   67SAPC   H4X 5640   0.901   2.116   7.311  2.6555  0.1431 -0.2893
   67SAPC   H4Y 5641   0.776   2.245   7.287  1.0301  1.6325  2.2047
   67SAPC   C35 5642   0.973   2.315   7.282  0.2123  0.4603  0.1975
   67SAPC   H5X 5643   0.940   2.396   7.213  2.2743 -0.6506 -2.2684
   67SAPC   H5Y 5644   1.072   2.280   7.247 -0.3947 -1.0877 -0.0606
   67SAPC   C36 5645   0.973   2.363   7.428  0.1006  0.3184  0.2737
   67SAPC   H6X 5646   1.011   2.282   7.493 -2.6117 -0.7657  0.6694
   67SAPC   H6Y 5647   0.866   2.375   7.457  0.7283  3.7648  1.7168
   67SAPC   C37 5648   1.072   2.482   7.446 -0.2371  0.3066 -0.1477
   67SAPC   H7X 5649   1.050   2.546   7.358  2.2930 -0.1086 -1.1581
   67SAPC   H7Y 5650   1.174   2.440   7.429  0.6910  1.5417  1.9092
   67SAPC   C38 5651   1.060   2.561   7.579  0.2277 -0.0001 -0.0190
   67SAPC   H8X 5652   1.104   2.662   7.565 -0.9866  0.5646  0.0770
   67SAPC   H8Y 5653   1.124   2.512   7.656  0.7069 -0.0506 -0.4457
   67SAPC   C39 5654   0.916   2.574   7.639  1.1463 -0.7912 -0.9834
   67SAPC   H9X 5655   0.873   2.473   7.655 -0.7504  0.0686 -0.3697
   67SAPC   H9Y 5656   0.851   2.625   7.565 -0.3482 -1.1562  0.0395
   67SAPC  C310 5657   0.900   2.663   7.760 -0.2778 -0.5163  0.9619
   67SAPC  H10X 5658   0.790   2.661   7.777 -0.2930 -1.6359  0.7895
   67SAPC  H10Y 5659   0.931   2.768   7.738  0.0211 -0.8454 -0.2380
   67SAPC  C311 5660   0.969   2.606   7.884 -0.4581 -0.4918  0.1063
   67SAPC  H11X 5661   1.080   2.607   7.874 -0.4881 -2.2358 -0.8131
   67SAPC  H11Y 5662   0.938   2.500   7.899 -1.5420 -0.2956 -0.6479
   67SAPC  C312 5663   0.930   2.685   8.016 -0.2628  0.1264  0.1549
   67SAPC  H12X 5664   0.843   2.751   7.994  1.1029  1.9121 -0.0634
   67SAPC  H12Y 5665   1.008   2.759   8.042  0.7991 -0.9995  0.2637
   67SAPC  C313 5666   0.907   2.604   8.137 -0.2523  0.1188  0.2303
   67SAPC  H13X 5667   1.009   2.574   8.169  0.6168  2.5779 -0.0253
   67SAPC  H13Y 5668   0.856   2.508   8.114 -0.5164  0.0490  1.0696
   67SAPC  C314 5669   0.839   2.689   8.249 -0.1632  0.3563 -0.4590
   67SAPC  H14X 5670   0.732   2.703   8.223 -0.1467  1.2856 -0.0432
   67SAPC  H14Y 5671   0.880   2.790   8.268 -0.8017  0.0914  2.9986
   67SAPC  C315 5672   0.851   2.621   8.385 -0.0366 -0.1201  0.1323
   67SAPC  H15X 5673   0.808   2.684   8.466  0.9004 -1.7781  2.0011
   67SAPC  H15Y 5674   0.961   2.622   8.399 -0.1013 -1.0352  0.8177
   67SAPC  C316 5675   0.802   2.479   8.394  0.3285 -0.2549 -0.7084
   67SAPC  H16X 5676   0.801   2.416   8.303 -2.8685 -0.6867 -0.5042
   67SAPC  H16Y 5677   0.695   2.486   8.424 -0.2629 -0.8795 -2.5264
   67SAPC  C317 5678   0.882   2.405   8.502 -0.5121 -0.5954  0.8317
   67SAPC  H17X 5679   0.915   2.465   8.590  1.9249 -1.9191  0.9144
   67SAPC  H17Y 5680   0.979   2.384   8.451 -0.2114  0.7651  0.7948
   67SAPC  C318 5681   0.821   2.271   8.545 -0.3259  0.2107 -0.7757
   67SAPC  H18X 5682   0.900   2.222   8.607 -1.8704  0.9042  1.9068
   67SAPC  H18Y 5683   0.792   2.199   8.465 -0.5993 -0.5748  0.0111
   67SAPC  H18Z 5684   0.733   2.290   8.611 -0.0957 -1.3460  0.0360
   68SAPC     N 5685   5.441   6.453   5.796  0.3546  0.1758  0.1616
   68SAPC   C12 5686   5.433   6.581   5.886 -0.8312  0.4014  0.2629
   68SAPC  H12A 5687   5.332   6.597   5.920 -1.9777 -2.2960 -1.4938
   68SAPC  H12B 5688   5.440   6.667   5.820  1.4253  1.8557  2.2461
   68SAPC   C13 5689   5.591   6.409   5.768  0.3224  0.8942 -0.6511
   68SAPC  H13A 5690   5.638   6.497   5.729 -0.1176  1.0680 -0.7997
   68SAPC  H13B 5691   5.638   6.380   5.861 -0.4005  0.8537 -0.2879
   68SAPC  H13C 5692   5.597   6.337   5.687 -2.0853 -1.9298  1.4354
   68SAPC   C14 5693   5.377   6.341   5.871 -0.4565  0.2397  0.2183
   68SAPC  H14A 5694   5.375   6.250   5.812 -0.4569  0.3114  0.1064
   68SAPC  H14B 5695   5.425   6.319   5.965  0.1899  0.0487 -0.1475
   68SAPC  H14C 5696   5.273   6.360   5.890 -0.4873 -1.5489  2.1694
   68SAPC   C15 5697   5.372   6.476   5.667 -0.5219 -0.0104 -0.2071
   68SAPC  H15A 5698   5.357   6.392   5.602  1.1319 -1.3601  1.0752
   68SAPC  H15B 5699   5.271   6.511   5.683 -1.0926 -1.4942 -0.4169
   68SAPC  H15C 5700   5.417   6.558   5.613  2.6663 -1.4073  0.1236
   68SAPC   C11 5701   5.537   6.599   5.994  0.1914 -0.0297 -0.3076
   68SAPC  H11A 5702   5.523   6.704   6.027 -1.1260 -0.2430 -0.1213
   68SAPC  H11B 5703   5.640   6.592   5.952  0.6520 -2.0284  1.0384
   68SAPC     P 5704   5.628   6.420   6.160 -0.1322  0.1616 -0.2185
   68SAPC   O13 5705   5.606   6.285   6.101 -0.2733 -0.4080 -0.1859
   68SAPC   O14 5706   5.762   6.479   6.148 -0.2393 -0.0792  0.0505
   68SAPC   O12 5707   5.517   6.518   6.102  0.5767  0.1040 -0.0477
   68SAPC   O11 5708   5.583   6.417   6.307 -0.1013 -0.7725 -0.4799
   68SAPC    C1 5709   5.580   6.528   6.391  0.2893 -0.2014 -0.2928
   68SAPC    HA 5710   5.574   6.627   6.340 -3.4615 -0.4351 -0.5685
   68SAPC    HB 5711   5.486   6.514   6.450 -1.3483  2.6772 -1.9541
   68SAPC    C2 5712   5.691   6.529   6.499  0.1056 -0.5599  0.3720
   68SAPC    HS 5713   5.784   6.541   6.439 -0.2704 -2.0393 -0.5505
   68SAPC   O21 5714   5.699   6.399   6.563  0.4849  0.0138 -0.1577
   68SAPC   C21 5715   5.814   6.374   6.625 -0.4829  0.3884 -0.6209
   68SAPC   O22 5716   5.901   6.459   6.646  0.0839 -0.1882  0.4102
   68SAPC   C22 5717   5.826   6.223   6.642 -0.3389  0.0035 -0.4980
   68SAPC   H2R 5718   5.849   6.186   6.540  0.6789 -0.8701  0.0311
   68SAPC   H2S 5719   5.902   6.212   6.722 -1.4014  0.6287  0.6484
   68SAPC    C3 5720   5.671   6.650   6.604 -0.1691  0.1351 -0.2164
   68SAPC    HX 5721   5.671   6.749   6.554 -0.3296  0.1464 -0.1965
   68SAPC    HY 5722   5.750   6.637   6.681 -1.0917  0.1430  0.7505
   68SAPC   O31 5723   5.545   6.632   6.673 -0.1003  0.6011  0.5082
   68SAPC   C31 5724   5.531   6.735   6.759 -0.1331  0.1294  0.0296
   68SAPC   O32 5725   5.606   6.833   6.757  0.0944  0.0703 -0.8656
   68SAPC   C32 5726   5.408   6.727   6.855  0.6801  0.5358  0.0313
   68SAPC   H2X 5727   5.329   6.671   6.801  0.8187  0.9986 -0.6574
   68SAPC   H2Y 5728   5.369   6.830   6.863  1.7298  0.9416  0.0939
   68SAPC   C23 5729   5.690   6.147   6.700 -0.4862  0.0662  0.1131
   68SAPC   H3R 5730   5.716   6.040   6.687  1.2385  0.4865 -0.1425
   68SAPC   H3S 5731   5.601   6.162   6.636 -1.4510  1.1289  1.6296
   68SAPC   C24 5732   5.647   6.190   6.841 -0.6883 -0.7419 -0.4787
   68SAPC   H4R 5733   5.562   6.124   6.870 -0.4466 -0.9585 -0.2575
   68SAPC   H4S 5734   5.601   6.289   6.821 -1.3374 -1.1822 -1.2510
   68SAPC   C25 5735   5.755   6.183   6.946  0.2131  0.0185  0.5046
   68SAPC   H5R 5736   5.797   6.278   6.981 -1.0923  1.1702 -0.9514
   68SAPC   C26 5737   5.808   6.072   6.992  0.3396 -0.6450  0.1610
   68SAPC   H6R 5738   5.897   6.079   7.055  0.5646  0.4092 -0.2507
   68SAPC   C27 5739   5.764   5.932   6.955  0.7978 -0.5578  0.3129
   68SAPC   H7R 5740   5.682   5.929   6.880  0.4164 -0.6319  0.7262
   68SAPC   H7S 5741   5.726   5.874   7.042  1.0005 -0.7016  0.3026
   68SAPC   C28 5742   5.886   5.864   6.902  0.0599 -1.1415 -0.2380
   68SAPC   H8R 5743   5.909   5.889   6.797 -0.4001 -0.9680 -0.3024
   68SAPC   C29 5744   5.963   5.782   6.971 -0.3428  0.2845  0.0669
   68SAPC   H9R 5745   6.052   5.738   6.924 -0.8400  0.9855 -1.6187
   68SAPC  C210 5746   5.951   5.744   7.114 -0.4897  0.1341  0.3696
   68SAPC  H10R 5747   5.888   5.653   7.112 -0.8560  0.3876 -0.0910
   68SAPC  H10S 5748   5.888   5.814   7.172 -0.7836  0.6721 -0.5702
   68SAPC  C211 5749   6.080   5.736   7.189  0.0362 -0.1663  0.3070
   68SAPC  H11R 5750   6.171   5.767   7.135  0.4376 -1.1282  0.4056
   68SAPC  C212 5751   6.096   5.690   7.315  0.1069  0.1049  0.6281
   68SAPC  H12R 5752   6.194   5.670   7.361  0.5351 -0.0444 -0.3250
   68SAPC  C213 5753   5.978   5.642   7.391  0.7931 -0.4376  0.1630
   68SAPC  H13R 5754   5.971   5.531   7.388  0.2622 -0.3887 -1.2558
   68SAPC  H13S 5755   5.883   5.681   7.348 -1.2009 -0.8033  3.8652
   68SAPC  C214 5756   5.963   5.694   7.529  0.6537 -0.2728 -0.5135
   68SAPC  H14R 5757   5.939   5.802   7.535 -1.1899 -0.5191 -2.3796
   68SAPC  C215 5758   5.972   5.630   7.646  0.0371 -0.1260  0.6396
   68SAPC  H15R 5759   5.962   5.680   7.743 -3.4967 -0.8633  0.7962
   68SAPC  C216 5760   6.004   5.481   7.656  0.0062  0.5253  0.9042
   68SAPC  H16R 5761   6.092   5.460   7.591  1.9285 -2.5338  4.1367
   68SAPC  H16S 5762   5.919   5.420   7.619 -0.2421  1.3537  0.0622
   68SAPC  C217 5763   6.030   5.439   7.797  0.6310 -0.4634 -0.7675
   68SAPC  H17R 5764   6.108   5.510   7.832  1.9331 -1.9003 -0.6095
   68SAPC  H17S 5765   6.082   5.341   7.811 -1.2198 -1.2880  0.8349
   68SAPC  C218 5766   5.903   5.444   7.885  0.0218  0.1683  1.2199
   68SAPC  H18R 5767   5.834   5.366   7.846  1.1342  0.8540 -2.5297
   68SAPC  H18S 5768   5.842   5.538   7.885  0.5037  0.4815  0.8027
   68SAPC  C219 5769   5.931   5.407   8.031  0.5815  0.1782  0.2969
   68SAPC  H19R 5770   5.987   5.496   8.066  3.0306 -0.6679 -1.2293
   68SAPC  H19S 5771   6.005   5.324   8.031  1.1983  0.7119  0.6970
   68SAPC  C220 5772   5.807   5.372   8.113 -0.5744  0.3392 -0.8037
   68SAPC  H20R 5773   5.844   5.344   8.215 -0.1695 -1.3305 -1.3633
   68SAPC  H20S 5774   5.763   5.277   8.075 -2.1744 -0.2203  2.0868
   68SAPC  H20T 5775   5.731   5.452   8.103 -4.6530 -2.7889  1.8736
   68SAPC   C33 5776   5.445   6.651   6.985  0.1643 -0.6952 -0.5633
   68SAPC   H3X 5777   5.521   6.572   6.967  1.3179 -0.3891  2.4068
   68SAPC   H3Y 5778   5.347   6.615   7.022  0.3843 -1.8533 -1.0724
   68SAPC   C34 5779   5.506   6.751   7.086  0.6378 -0.6503  0.0041
   68SAPC   H4X 5780   5.441   6.832   7.124  1.3183 -0.5199  0.9405
   68SAPC   H4Y 5781   5.588   6.802   7.030  1.0602 -2.7247 -1.3973
   68SAPC   C35 5782   5.568   6.666   7.195 -0.4442  0.2236 -0.2305
   68SAPC   H5X 5783   5.638   6.590   7.156 -0.0723  0.6458 -0.3862
   68SAPC   H5Y 5784   5.487   6.611   7.249  0.1697  0.6277  1.1623
   68SAPC   C36 5785   5.652   6.754   7.296 -0.5721  0.7198 -0.0174
   68SAPC   H6X 5786   5.575   6.821   7.340 -1.2171 -0.3394  0.5132
   68SAPC   H6Y 5787   5.729   6.814   7.242 -1.4468  0.5148 -1.5417
   68SAPC   C37 5788   5.722   6.677   7.409  0.3889  0.1088 -0.1566
   68SAPC   H7X 5789   5.771   6.589   7.361 -0.1691 -0.1634 -0.2341
   68SAPC   H7Y 5790   5.631   6.637   7.458  0.5126 -0.5898 -0.4825
   68SAPC   C38 5791   5.799   6.775   7.493 -0.0668 -0.3413 -0.5421
   68SAPC   H8X 5792   5.737   6.861   7.526  1.2988  0.6812 -0.5308
   68SAPC   H8Y 5793   5.881   6.817   7.431 -2.4573  0.4988 -3.3233
   68SAPC   C39 5794   5.861   6.701   7.610 -0.3274 -0.4028  0.0295
   68SAPC   H9X 5795   5.930   6.630   7.559  0.1591 -1.6886  2.3243
   68SAPC   H9Y 5796   5.789   6.633   7.660 -1.1471 -0.6167 -1.3766
   68SAPC  C310 5797   5.941   6.808   7.696  0.7024  0.2386  0.4766
   68SAPC  H10X 5798   5.863   6.852   7.763 -1.5689 -1.8606 -0.6158
   68SAPC  H10Y 5799   5.984   6.884   7.627 -1.3717 -0.3789 -1.6222
   68SAPC  C311 5800   6.052   6.745   7.777  1.1773 -0.0717 -0.4569
   68SAPC  H11X 5801   6.120   6.688   7.710  2.4032 -2.0232  2.2871
   68SAPC  H11Y 5802   6.013   6.680   7.858  1.1046 -1.3686 -1.5014
   68SAPC  C312 5803   6.149   6.849   7.833 -0.9107 -0.8513 -0.1601
   68SAPC  H12X 5804   6.095   6.902   7.914 -1.6408 -0.4492 -0.9017
   68SAPC  H12Y 5805   6.172   6.921   7.752 -0.2656 -0.8051  0.0569
   68SAPC  C313 5806   6.272   6.787   7.904  0.5688 -1.1385 -0.6259
   68SAPC  H13X 5807   6.339   6.733   7.834  0.9191  0.8600 -1.9067
   68SAPC  H13Y 5808   6.241   6.713   7.981 -1.0258  0.5604  0.4430
   68SAPC  C314 5809   6.334   6.894   7.993  0.4123 -0.2860 -0.1828
   68SAPC  H14X 5810   6.264   6.976   8.018 -1.3875 -1.8719  0.2119
   68SAPC  H14Y 5811   6.414   6.939   7.931 -0.4081  1.4798 -0.0071
   68SAPC  C315 5812   6.410   6.843   8.119 -0.1022 -0.0283 -0.6105
   68SAPC  H15X 5813   6.341   6.806   8.198  0.7988  2.7817  1.6500
   68SAPC  H15Y 5814   6.464   6.930   8.161 -1.6897 -0.4717  2.6428
   68SAPC  C316 5815   6.514   6.725   8.100  0.3636 -0.5014 -0.3653
   68SAPC  H16X 5816   6.466   6.651   8.033 -2.0157  0.2383  0.4325
   68SAPC  H16Y 5817   6.539   6.677   8.197  2.6964  0.4539 -0.4399
   68SAPC  C317 5818   6.642   6.761   8.024 -0.3334  0.3354 -0.0017
   68SAPC  H17X 5819   6.682   6.858   8.059  1.3453 -0.0252 -0.8337
   68SAPC  H17Y 5820   6.621   6.772   7.916 -0.1276 -1.2571 -0.2295
   68SAPC  C318 5821   6.749   6.660   8.040 -0.2652  0.4116 -0.7211
   68SAPC  H18X 5822   6.716   6.559   8.008 -2.6125  0.4883  1.1880
   68SAPC  H18Y 5823   6.786   6.649   8.145  0.7784 -2.1525 -1.2716
   68SAPC  H18Z 5824   6.844   6.676   7.985  1.8120  0.9911  2.7023
   69SLPC     N 5825   2.070   6.194  11.484  0.5160 -0.3350 -0.2741
   69SLPC   C13 5826   2.191   6.284  11.499  0.0757 -0.7463 -0.0319
   69SLPC  H13A 5827   2.238   6.268  11.594 -0.6883  0.9687  0.6724
   69SLPC  H13B 5828   2.258   6.275  11.414 -2.3713  0.9050 -2.3200
   69SLPC  H13C 5829   2.163   6.388  11.496  0.2241 -0.6898  0.4934
   69SLPC   C14 5830   1.963   6.209  11.595  0.6515 -0.0218  0.7289
   69SLPC  H14A 5831   2.004   6.171  11.687 -0.5150  0.9306  1.6727
   69SLPC  H14B 5832   1.954   6.315  11.613  2.9963  0.2311  0.7211
   69SLPC  H14C 5833   1.879   6.153  11.556  0.4079  1.0075 -0.2698
   69SLPC   C15 5834   2.110   6.054  11.457 -0.2373 -0.2046 -0.0120
   69SLPC  H15A 5835   2.037   5.990  11.411  0.2921 -1.4376  0.8395
   69SLPC  H15B 5836   2.190   6.057  11.383  0.1779 -0.2971  0.4308
   69SLPC  H15C 5837   2.145   6.008  11.548 -0.2060 -1.4094 -0.6248
   69SLPC   C12 5838   1.999   6.249  11.358 -0.0014  0.1408 -0.5097
   69SLPC  H12A 5839   1.986   6.356  11.363 -0.4822  0.0618  0.0466
   69SLPC  H12B 5840   1.905   6.196  11.360 -0.2984  0.6814  0.1952
   69SLPC   C11 5841   2.064   6.219  11.218  0.3191  0.2055  0.4982
   69SLPC  H11A 5842   2.173   6.236  11.231  0.1361  0.6193  1.5841
   69SLPC  H11B 5843   2.050   6.307  11.151  0.7327  0.7113  1.0596
   69SLPC     P 5844   1.895   6.071  11.094  0.6856  0.9873  0.0847
   69SLPC   O13 5845   1.832   5.953  11.155  0.2435 -0.1174 -0.1339
   69SLPC   O14 5846   1.817   6.201  11.080 -0.1942  0.3228 -0.5310
   69SLPC   O12 5847   2.031   6.097  11.169 -0.1672  0.2131  0.2798
   69SLPC   O11 5848   1.953   6.032  10.954 -0.8392 -0.1569  0.4328
   69SLPC    C1 5849   1.870   5.984  10.847 -0.8340 -0.0779 -0.0382
   69SLPC    HA 5850   1.897   5.878  10.829  1.2567  0.7691 -2.4443
   69SLPC    HB 5851   1.761   5.986  10.870 -0.2559  1.8783  3.2393
   69SLPC    C2 5852   1.904   6.059  10.712 -0.1961 -0.0484  0.0384
   69SLPC    HS 5853   1.845   6.013  10.630  0.1704 -1.6627  0.6454
   69SLPC   O21 5854   2.042   6.066  10.679  0.1959  0.2675 -0.5369
   69SLPC   C21 5855   2.097   5.961  10.627  0.0514  0.6037 -0.1216
   69SLPC   O22 5856   2.046   5.854  10.606 -0.0603 -0.1708 -0.0587
   69SLPC   C22 5857   2.247   5.998  10.594  0.2016  0.4864  0.0078
   69SLPC   H2R 5858   2.292   6.054  10.679  1.8810 -0.3717 -0.2679
   69SLPC   H2S 5859   2.316   5.911  10.583  1.1887  0.9005  2.3389
   69SLPC    C3 5860   1.854   6.208  10.724 -0.1623  0.4905 -0.3805
   69SLPC    HX 5861   1.896   6.244  10.820 -0.1182 -1.9410  0.5712
   69SLPC    HY 5862   1.744   6.214  10.736 -0.1624  0.2225 -0.2433
   69SLPC   O31 5863   1.894   6.292  10.616  0.0789  0.8365 -0.1152
   69SLPC   C31 5864   1.817   6.281  10.511  0.4941  0.5527 -1.3569
   69SLPC   O32 5865   1.715   6.219  10.502  0.2486 -0.5668 -0.2832
   69SLPC   C32 5866   1.884   6.361  10.397  0.6076 -0.1228 -0.1571
   69SLPC   H2X 5867   1.979   6.417  10.412  1.1504 -0.0993 -3.1587
   69SLPC   H2Y 5868   1.804   6.436  10.378 -0.2709 -0.2514  2.5692
   69SLPC   C23 5869   2.265   6.068  10.459 -0.1407 -0.7699  0.6193
   69SLPC   H3R 5870   2.354   6.133  10.472 -0.4786  0.1377 -1.2751
   69SLPC   H3S 5871   2.181   6.133  10.425  0.6748 -0.2848 -0.5387
   69SLPC   C24 5872   2.305   5.975  10.338  0.4680  0.0619 -0.3716
   69SLPC   H4R 5873   2.209   5.928  10.306  1.4327 -3.0712  0.9064
   69SLPC   H4S 5874   2.353   5.884  10.381 -3.3330 -1.0563  1.9820
   69SLPC   C25 5875   2.377   6.043  10.223  0.0989 -0.2037 -0.4284
   69SLPC   H5R 5876   2.477   6.070  10.263  0.0940  1.1306 -1.2637
   69SLPC   H5S 5877   2.323   6.138  10.204 -1.2593 -1.0384 -0.8495
   69SLPC   C26 5878   2.382   5.963  10.097  0.5360  0.4246  1.1590
   69SLPC   H6R 5879   2.288   5.906  10.083 -0.2115  1.5145  1.5990
   69SLPC   H6S 5880   2.468   5.893  10.101 -0.5595 -0.9471  1.3465
   69SLPC   C27 5881   2.403   6.061   9.971 -0.3363  0.1892 -0.7149
   69SLPC   H7R 5882   2.488   6.131   9.984 -0.9648  0.8470 -0.0799
   69SLPC   H7S 5883   2.306   6.114   9.959 -0.6155 -0.2208 -0.3165
   69SLPC   C28 5884   2.434   5.996   9.836  0.0864 -0.0889  0.0368
   69SLPC   H8R 5885   2.533   5.946   9.833  0.9384  1.4513  0.8745
   69SLPC   H8S 5886   2.437   6.077   9.760 -1.2317 -0.6385 -0.6430
   69SLPC   C29 5887   2.331   5.895   9.783  0.1211 -0.0439 -0.8557
   69SLPC   H9R 5888   2.294   5.820   9.854 -1.2601 -0.0973 -1.5998
   69SLPC  C210 5889   2.308   5.877   9.646 -0.5769  0.3874  0.1923
   69SLPC  H10R 5890   2.229   5.807   9.614 -1.2482  1.6045 -0.8936
   69SLPC  C211 5891   2.374   5.953   9.529  0.5445  0.1245  0.5090
   69SLPC  H11R 5892   2.386   6.062   9.548  0.8109  0.3831 -1.0788
   69SLPC  H11S 5893   2.297   5.949   9.450  1.7161  0.5199 -0.6827
   69SLPC  C212 5894   2.502   5.890   9.480 -0.0700 -0.3234  0.4637
   69SLPC  H12R 5895   2.578   5.904   9.558 -0.0824  0.6158  0.3192
   69SLPC  C213 5896   2.530   5.838   9.351  0.5888 -0.0759  0.3157
   69SLPC  H13R 5897   2.630   5.799   9.327 -0.2758 -2.8577  0.8651
   69SLPC  C214 5898   2.436   5.836   9.238 -0.0157  0.1071 -0.4144
   69SLPC  H14R 5899   2.330   5.805   9.251 -0.8227  1.6344 -2.7136
   69SLPC  H14S 5900   2.479   5.765   9.164  1.5465  1.0806 -0.4702
   69SLPC  C215 5901   2.435   5.977   9.173 -0.1461 -0.1059  0.0659
   69SLPC  H15R 5902   2.541   6.006   9.154 -0.1575 -1.4843 -2.5027
   69SLPC  H15S 5903   2.377   6.043   9.240 -0.1569 -0.7075  0.6564
   69SLPC  C216 5904   2.353   5.981   9.038 -0.3578 -0.2692 -0.6828
   69SLPC  H16R 5905   2.324   6.087   9.024 -1.8271 -0.3713  1.1281
   69SLPC  H16S 5906   2.261   5.920   9.052  0.4527 -1.3011  0.3769
   69SLPC  C217 5907   2.433   5.935   8.924  0.4735  0.2597  0.4843
   69SLPC  H17R 5908   2.395   5.840   8.881 -0.7038  0.8594  0.1551
   69SLPC  H17S 5909   2.538   5.919   8.957  0.8466  2.4466  0.5263
   69SLPC  C218 5910   2.443   6.039   8.812  0.1287 -0.3332  0.7590
   69SLPC  H18R 5911   2.500   5.989   8.731 -0.0300  0.9114 -0.1358
   69SLPC  H18S 5912   2.504   6.126   8.844  3.5535 -2.0729 -0.5387
   69SLPC  H18T 5913   2.352   6.075   8.761  0.2371 -0.2452  0.6276
   69SLPC   C33 5914   1.893   6.271  10.274  0.3316  0.2454 -0.7911
   69SLPC   H3X 5915   1.790   6.248  10.240 -0.2806 -0.4030  1.3285
   69SLPC   H3Y 5916   1.941   6.178  10.311 -2.1355  0.0502  2.4547
   69SLPC   C34 5917   1.974   6.330  10.154 -0.2990  0.2211 -0.3857
   69SLPC   H4X 5918   2.077   6.367  10.174  0.1947 -1.6790  0.8081
   69SLPC   H4Y 5919   1.926   6.425  10.122 -0.5213  0.2831  0.1073
   69SLPC   C35 5920   1.975   6.237  10.031  0.1938 -0.9473  0.1414
   69SLPC   H5X 5921   1.869   6.215  10.008 -0.3340  0.9480  0.6059
   69SLPC   H5Y 5922   2.023   6.142  10.063  0.4702 -0.9423 -0.2497
   69SLPC   C36 5923   2.063   6.299   9.926  0.3308  0.6168  0.4779
   69SLPC   H6X 5924   2.166   6.291   9.967  0.5564 -1.6082 -0.3702
   69SLPC   H6Y 5925   2.041   6.406   9.905  0.7181  1.1033  2.3241
   69SLPC   C37 5926   2.059   6.213   9.794 -0.1129  0.9426 -0.1625
   69SLPC   H7X 5927   1.961   6.206   9.742  0.4618 -2.9504 -1.0075
   69SLPC   H7Y 5928   2.086   6.113   9.835 -3.3820 -0.3199 -0.7638
   69SLPC   C38 5929   2.148   6.266   9.684 -0.6330 -0.0692 -0.2049
   69SLPC   H8X 5930   2.258   6.252   9.694 -0.7546 -1.2929 -0.4636
   69SLPC   H8Y 5931   2.143   6.377   9.678  1.1398  0.1647  1.5554
   69SLPC   C39 5932   2.106   6.221   9.545  0.1129 -0.2978  0.4662
   69SLPC   H9X 5933   2.002   6.254   9.520  1.2203  2.4052 -1.0413
   69SLPC   H9Y 5934   2.097   6.111   9.558 -3.1501 -0.0087  1.7453
   69SLPC  C310 5935   2.190   6.289   9.444 -0.1874 -0.1343  0.7983
   69SLPC  H10X 5936   2.299   6.270   9.445  0.2428  2.0870  1.2039
   69SLPC  H10Y 5937   2.198   6.396   9.472  1.0022  0.1100 -0.3876
   69SLPC  C311 5938   2.134   6.275   9.302  0.6555 -0.5280 -0.6398
   69SLPC  H11X 5939   2.026   6.299   9.290  1.1846  1.6854 -1.4569
   69SLPC  H11Y 5940   2.147   6.166   9.285 -2.1544 -0.8071 -1.5603
   69SLPC  C312 5941   2.210   6.343   9.188 -0.0803  0.0069 -0.3927
   69SLPC  H12X 5942   2.311   6.297   9.187 -0.5739 -1.1101 -0.4691
   69SLPC  H12Y 5943   2.226   6.450   9.210  1.8473 -0.1692 -0.7939
   69SLPC  C313 5944   2.149   6.336   9.046 -0.0164  0.5814 -0.1668
   69SLPC  H13X 5945   2.056   6.395   9.060  0.4898  1.5788 -0.8957
   69SLPC  H13Y 5946   2.118   6.231   9.034 -2.4230  0.9543  1.9429
   69SLPC  C314 5947   2.238   6.371   8.927 -0.4374 -0.2991 -0.1847
   69SLPC  H14X 5948   2.305   6.284   8.911 -0.7728 -0.7753  0.9018
   69SLPC  H14Y 5949   2.288   6.465   8.958 -1.1318  0.0432 -0.0775
   69SLPC  C315 5950   2.166   6.400   8.798  0.3280 -0.0013 -0.0154
   69SLPC  H15X 5951   2.240   6.448   8.731 -0.1178  0.6817 -0.0291
   69SLPC  H15Y 5952   2.089   6.473   8.832  1.2965 -0.2567  3.0962
   69SLPC  C316 5953   2.107   6.280   8.726 -0.2690 -0.1040 -1.0130
   69SLPC  H16X 5954   2.012   6.256   8.779 -0.8359 -0.4182 -2.1471
   69SLPC  H16Y 5955   2.178   6.195   8.718  0.5430  0.3227  1.1028
   69SLPC  C317 5956   2.067   6.326   8.582  0.0180  0.7617 -0.4584
   69SLPC  H17X 5957   2.156   6.357   8.523  0.6079  2.6844  1.3153
   69SLPC  H17Y 5958   1.995   6.410   8.596  0.2460  1.1286 -1.4146
   69SLPC  C318 5959   1.995   6.205   8.512  0.0240  0.6136  0.8430
   69SLPC  H18X 5960   1.922   6.160   8.584  0.9404 -1.5161  0.5178
   69SLPC  H18Y 5961   2.071   6.128   8.488  2.1494  3.0404 -0.6547
   69SLPC  H18Z 5962   1.928   6.245   8.432  0.1639 -0.5692  0.1088
   70SLPC     N 5963   0.665   2.965  11.146  0.0683 -0.0573  0.5072
   70SLPC   C13 5964   0.805   2.972  11.213 -0.5044  0.6081  0.5871
   70SLPC  H13A 5965   0.834   2.868  11.219  1.3423  1.0059 -0.8058
   70SLPC  H13B 5966   0.876   3.006  11.140  0.3610 -2.4302 -0.1452
   70SLPC  H13C 5967   0.798   3.026  11.306  1.4737 -0.3128  1.3177
   70SLPC   C14 5968   0.620   3.104  11.129 -0.1906  1.0454  0.2853
   70SLPC  H14A 5969   0.673   3.154  11.049  1.9765 -0.7508  0.5063
   70SLPC  H14B 5970   0.516   3.116  11.103 -0.5547 -0.5714  0.8417
   70SLPC  H14C 5971   0.620   3.162  11.219  1.1124 -1.3636  1.9583
   70SLPC   C15 5972   0.584   2.887  11.244  0.5582  0.0019 -0.0652
   70SLPC  H15A 5973   0.591   2.930  11.343 -0.1612 -0.5478  0.2415
   70SLPC  H15B 5974   0.479   2.870  11.224  0.3561 -3.8441  3.1041
   70SLPC  H15C 5975   0.628   2.789  11.235 -3.0438 -1.6070 -2.4435
   70SLPC   C12 5976   0.663   2.887  11.017 -0.4999 -0.2649 -0.8522
   70SLPC  H12A 5977   0.560   2.881  10.983 -1.5499 -0.9267  2.1423
   70SLPC  H12B 5978   0.713   2.793  11.036  0.8023  0.4421 -0.6346
   70SLPC   C11 5979   0.739   2.946  10.892  0.1287  0.1669  0.7746
   70SLPC  H11A 5980   0.669   3.026  10.860  0.9332  0.7373  0.4066
   70SLPC  H11B 5981   0.745   2.867  10.815 -1.7687  0.6796  0.0546
   70SLPC     P 5982   0.994   2.884  10.924  0.4673  0.1542  0.4205
   70SLPC   O13 5983   1.111   2.945  10.981  0.1464  0.1258 -0.5095
   70SLPC   O14 5984   0.945   2.760  10.990  0.1854 -0.0105 -0.2383
   70SLPC   O12 5985   0.873   2.990  10.923 -0.5213 -0.4014 -0.2794
   70SLPC   O11 5986   1.007   2.852  10.769 -0.8975  0.0176 -0.0827
   70SLPC    C1 5987   1.085   2.938  10.686  0.3115 -0.5855 -0.3486
   70SLPC    HA 5988   1.173   2.977  10.741 -1.4976 -0.4855  2.6541
   70SLPC    HB 5989   1.126   2.877  10.603  1.6257 -1.8262  1.1556
   70SLPC    C2 5990   0.992   3.053  10.620  0.4391  0.0072  0.0230
   70SLPC    HS 5991   0.953   3.103  10.711  1.5849  1.9090 -0.4754
   70SLPC   O21 5992   0.894   3.006  10.528  0.3025  0.6163  0.3759
   70SLPC   C21 5993   0.774   3.067  10.536  0.6326 -0.1479 -0.2726
   70SLPC   O22 5994   0.759   3.177  10.586  0.3316  0.2841  0.6703
   70SLPC   C22 5995   0.677   2.993  10.449 -0.2803 -0.5746 -0.3168
   70SLPC   H2R 5996   0.628   3.058  10.374 -1.0194 -2.6414 -1.7000
   70SLPC   H2S 5997   0.723   2.912  10.388 -1.9090 -1.6038 -0.2419
   70SLPC    C3 5998   1.083   3.152  10.544 -0.4497 -0.0078  0.0215
   70SLPC    HX 5999   1.159   3.195  10.612  1.5734 -0.6274 -1.7504
   70SLPC    HY 6000   1.031   3.239  10.497  1.2344  2.5256  2.4743
   70SLPC   O31 6001   1.157   3.074  10.441  0.1487  0.3411 -0.2725
   70SLPC   C31 6002   1.116   3.077  10.318  0.6922  0.2266  0.9391
   70SLPC   O32 6003   1.011   3.125  10.276  0.2593 -0.4546 -0.7405
   70SLPC   C32 6004   1.218   3.017  10.225 -0.1465 -0.2420  0.0233
   70SLPC   H2X 6005   1.210   2.908  10.242  0.4124 -0.5082 -1.2466
   70SLPC   H2Y 6006   1.323   3.049  10.239  0.3390 -1.0216 -1.5535
   70SLPC   C23 6007   0.567   2.938  10.531  0.3959  0.5624 -0.1176
   70SLPC   H3R 6008   0.510   3.010  10.595  0.0906 -0.4722  0.8001
   70SLPC   H3S 6009   0.610   2.867  10.605  0.9745 -1.6170 -2.4379
   70SLPC   C24 6010   0.453   2.875  10.456  0.2237  0.2737 -0.0545
   70SLPC   H4R 6011   0.367   2.848  10.522  1.9887 -0.8198  1.9266
   70SLPC   H4S 6012   0.488   2.790  10.395 -1.3522  0.0589 -0.7087
   70SLPC   C25 6013   0.380   2.971  10.356  0.5602 -0.2767 -0.0351
   70SLPC   H5R 6014   0.452   2.993  10.274  0.5319 -1.2197 -0.3178
   70SLPC   H5S 6015   0.343   3.068  10.396  1.1023  0.5018 -1.3436
   70SLPC   C26 6016   0.266   2.895  10.285 -0.4132  0.1095  0.4082
   70SLPC   H6R 6017   0.179   2.863  10.346 -0.8996  2.1220  0.8505
   70SLPC   H6S 6018   0.311   2.813  10.226 -1.7205 -0.4109  0.1019
   70SLPC   C27 6019   0.201   2.982  10.177 -0.2049  0.1688  0.2572
   70SLPC   H7R 6020   0.280   3.027  10.113  0.3732  0.3303  1.0748
   70SLPC   H7S 6021   0.137   3.064  10.216 -0.5844 -0.1841  0.3882
   70SLPC   C28 6022   0.114   2.894  10.094  0.4194  0.2090  0.2667
   70SLPC   H8R 6023   0.027   2.865  10.157 -0.0107 -0.4798 -0.6112
   70SLPC   H8S 6024   0.170   2.798  10.082 -2.1854 -1.4336  0.3903
   70SLPC   C29 6025   0.089   2.949   9.957 -0.5270 -0.0772 -0.1143
   70SLPC   H9R 6026   0.022   3.034   9.941 -1.2709 -0.9935 -2.2103
   70SLPC  C210 6027   0.148   2.902   9.842 -0.2603 -0.6974  0.2278
   70SLPC  H10R 6028   0.129   2.955   9.747 -0.5164 -0.9242  0.1523
   70SLPC  C211 6029   0.250   2.793   9.826 -0.8599  0.0368  0.2703
   70SLPC  H11R 6030   0.194   2.700   9.848 -2.0508  0.4353 -0.9459
   70SLPC  H11S 6031   0.313   2.813   9.915 -1.3512  0.6469  0.4868
   70SLPC  C212 6032   0.340   2.794   9.701  0.3034 -0.0283 -0.0874
   70SLPC  H12R 6033   0.332   2.888   9.644  3.1305 -0.8641 -2.1146
   70SLPC  C213 6034   0.426   2.694   9.663  0.2119  0.4272 -0.2660
   70SLPC  H13R 6035   0.496   2.717   9.581  0.0358 -0.8530 -0.7986
   70SLPC  C214 6036   0.449   2.562   9.728  0.1839 -0.1950 -0.3599
   70SLPC  H14R 6037   0.394   2.566   9.824 -1.2894  0.8988 -1.2141
   70SLPC  H14S 6038   0.557   2.554   9.753 -0.1469 -3.3739  0.3489
   70SLPC  C215 6039   0.420   2.430   9.659 -0.5560  0.1414 -0.0564
   70SLPC  H15R 6040   0.344   2.461   9.584  0.7611  1.9659 -0.7233
   70SLPC  H15S 6041   0.389   2.344   9.722  1.5383  0.4829  1.5633
   70SLPC  C216 6042   0.544   2.362   9.595 -0.0404 -0.4829  0.7511
   70SLPC  H16R 6043   0.539   2.253   9.575 -0.1701 -0.6030  1.3985
   70SLPC  H16S 6044   0.638   2.369   9.653  0.7535  0.7393 -0.6062
   70SLPC  C217 6045   0.592   2.423   9.455  0.5705 -0.0318 -0.1783
   70SLPC  H17R 6046   0.609   2.531   9.474 -3.3186  0.8728 -1.0829
   70SLPC  H17S 6047   0.493   2.411   9.407 -0.7525  1.8631  1.8661
   70SLPC  C218 6048   0.708   2.340   9.400  0.0404  0.2134 -0.4093
   70SLPC  H18R 6049   0.809   2.367   9.437 -0.1833  0.0380  0.3600
   70SLPC  H18S 6050   0.723   2.355   9.291  0.9482  3.1366  0.0402
   70SLPC  H18T 6051   0.694   2.230   9.409 -2.3025  0.5558  1.1566
   70SLPC   C33 6052   1.172   3.038  10.075 -0.3095  0.2015  0.8498
   70SLPC   H3X 6053   1.168   3.142  10.034  1.2292 -0.5729 -1.5191
   70SLPC   H3Y 6054   1.067   3.003  10.066 -0.1221 -0.2161  0.2272
   70SLPC   C34 6055   1.255   2.955   9.976  0.3259 -0.0970  0.3166
   70SLPC   H4X 6056   1.223   2.850   9.990  1.0408 -0.8300 -2.8765
   70SLPC   H4Y 6057   1.365   2.958   9.995  0.3519 -1.4560  0.4791
   70SLPC   C35 6058   1.226   2.969   9.827  0.9934  0.1370  0.4830
   70SLPC   H5X 6059   1.119   2.977   9.801  1.2017  1.9280  0.0194
   70SLPC   H5Y 6060   1.273   2.889   9.766  0.2044  0.6403 -0.8135
   70SLPC   C36 6061   1.302   3.094   9.771 -0.5665 -0.2310  0.1776
   70SLPC   H6X 6062   1.408   3.064   9.781 -0.7400 -0.4792  1.3517
   70SLPC   H6Y 6063   1.277   3.186   9.828 -2.3502 -0.6714  0.1629
   70SLPC   C37 6064   1.271   3.114   9.623  0.1246 -0.3598 -0.7883
   70SLPC   H7X 6065   1.169   3.160   9.619  0.6317  0.7920 -0.7950
   70SLPC   H7Y 6066   1.278   3.022   9.562 -0.8380  0.5568 -2.3588
   70SLPC   C38 6067   1.374   3.213   9.568 -0.0823  0.9315  0.2812
   70SLPC   H8X 6068   1.476   3.203   9.612 -1.2396 -1.0912  2.7598
   70SLPC   H8Y 6069   1.343   3.317   9.591 -1.3353  0.9640 -1.3523
   70SLPC   C39 6070   1.388   3.206   9.414  0.2442  0.2192  0.0609
   70SLPC   H9X 6071   1.429   3.304   9.379 -0.3389  2.3028  4.4783
   70SLPC   H9Y 6072   1.282   3.202   9.383  0.3964 -1.9556 -0.3088
   70SLPC  C310 6073   1.469   3.092   9.368 -0.3175 -0.6100  0.0856
   70SLPC  H10X 6074   1.479   3.013   9.445 -0.6886 -0.5502  0.1979
   70SLPC  H10Y 6075   1.573   3.130   9.366 -0.1808 -0.9774 -1.7277
   70SLPC  C311 6076   1.427   3.035   9.236  0.4869  0.6846  0.2804
   70SLPC  H11X 6077   1.362   3.105   9.178 -0.3159  0.7307  1.2055
   70SLPC  H11Y 6078   1.359   2.955   9.274  1.8146 -0.0583  1.1466
   70SLPC  C312 6079   1.545   2.977   9.155  1.0393 -0.2871 -0.4975
   70SLPC  H12X 6080   1.643   3.024   9.176  1.4171 -0.5413 -1.6353
   70SLPC  H12Y 6081   1.516   2.980   9.048 -1.9863 -3.0821  0.0789
   70SLPC  C313 6082   1.549   2.823   9.187 -0.3032 -0.1563 -0.3756
   70SLPC  H13X 6083   1.448   2.784   9.163 -1.0602  0.7029  1.2650
   70SLPC  H13Y 6084   1.570   2.819   9.296  1.4673 -2.2864 -0.7310
   70SLPC  C314 6085   1.661   2.751   9.113 -0.8063  0.5011  0.6733
   70SLPC  H14X 6086   1.656   2.751   9.002  1.3506  0.3979  0.5314
   70SLPC  H14Y 6087   1.682   2.644   9.134  0.7268  0.5076 -0.6540
   70SLPC  C315 6088   1.805   2.798   9.150  0.3470  0.3565  0.1263
   70SLPC  H15X 6089   1.799   2.824   9.258 -0.7871  0.6677 -0.0044
   70SLPC  H15Y 6090   1.827   2.888   9.088 -0.0610  0.9425  0.8202
   70SLPC  C316 6091   1.915   2.688   9.135  0.4048  0.9245  0.0338
   70SLPC  H16X 6092   1.878   2.605   9.200 -0.8567  1.8172  0.5059
   70SLPC  H16Y 6093   2.007   2.726   9.183  0.5374 -0.5134  0.9773
   70SLPC  C317 6094   1.955   2.657   8.993  0.2267 -0.1181  0.4578
   70SLPC  H17X 6095   1.980   2.756   8.949  1.4154 -0.6126 -0.0286
   70SLPC  H17Y 6096   1.877   2.608   8.932  0.9936 -1.3238  0.4202
   70SLPC  C318 6097   2.083   2.573   8.993  0.4356  0.5034 -0.9754
   70SLPC  H18X 6098   2.057   2.479   9.046  0.8357  0.0875 -1.5021
   70SLPC  H18Y 6099   2.164   2.621   9.050  0.5182  1.0876 -1.5742
   70SLPC  H18Z 6100   2.110   2.542   8.890  1.8846  0.7396 -0.6758
   71SLPC     N 6101   2.350   2.148  10.837 -0.3762 -0.7348  1.0174
   71SLPC   C13 6102   2.234   2.179  10.746  0.5378  0.1687  0.3677
   71SLPC  H13A 6103   2.235   2.278  10.703  1.9807  0.3344  0.7498
   71SLPC  H13B 6104   2.224   2.114  10.659  0.1391  1.6010 -0.6915
   71SLPC  H13C 6105   2.145   2.178  10.806 -0.2004  1.2324 -0.6667
   71SLPC   C14 6106   2.354   2.243  10.956 -0.7361 -0.3875 -0.0483
   71SLPC  H14A 6107   2.277   2.215  11.027 -0.0041  1.2303  1.4599
   71SLPC  H14B 6108   2.441   2.219  11.015  1.2708  3.0695 -1.3190
   71SLPC  H14C 6109   2.363   2.347  10.928  1.4840 -0.2050  1.0648
   71SLPC   C15 6110   2.472   2.170  10.754 -0.1213 -0.2064  0.2365
   71SLPC  H15A 6111   2.485   2.271  10.718  1.4416 -0.2176  0.7091
   71SLPC  H15B 6112   2.557   2.149  10.818 -1.2993 -1.9667  1.3132
   71SLPC  H15C 6113   2.486   2.117  10.662 -2.0334 -0.0802 -0.1605
   71SLPC   C12 6114   2.343   2.002  10.876 -0.2233  0.1771  0.4394
   71SLPC  H12A 6115   2.443   1.963  10.887  0.0002  0.2733 -1.0062
   71SLPC  H12B 6116   2.307   1.942  10.794 -1.0815 -3.6496  3.3574
   71SLPC   C11 6117   2.260   1.964  11.003  0.4737 -0.3932 -0.6308
   71SLPC  H11A 6118   2.300   2.029  11.083  1.0014 -0.7703 -0.5800
   71SLPC  H11B 6119   2.275   1.858  11.033  0.4726 -0.3929 -0.6295
   71SLPC     P 6120   2.024   1.911  10.895  0.1280 -0.3541 -0.1227
   71SLPC   O13 6121   1.992   1.783  10.964 -0.4507  0.1214  0.6035
   71SLPC   O14 6122   1.916   2.005  10.867 -0.5247  0.6121 -0.1721
   71SLPC   O12 6123   2.126   1.994  10.980  0.1537 -0.5076 -0.2278
   71SLPC   O11 6124   2.098   1.892  10.758  0.6053  0.1863  0.7773
   71SLPC    C1 6125   2.101   1.779  10.671  0.1844 -0.4196  0.1955
   71SLPC    HA 6126   2.200   1.731  10.687  0.3483 -0.3007 -0.4333
   71SLPC    HB 6127   2.018   1.709  10.695 -0.6431 -0.2620 -2.0424
   71SLPC    C2 6128   2.084   1.828  10.536 -0.1577 -0.2071  0.3882
   71SLPC    HS 6129   2.148   1.914  10.506 -0.5582 -0.9059 -2.8576
   71SLPC   O21 6130   1.940   1.858  10.523 -0.0817  0.1168  0.4555
   71SLPC   C21 6131   1.911   1.984  10.472 -0.4308 -0.1586 -0.5859
   71SLPC   O22 6132   1.988   2.073  10.447 -0.3907 -0.3601 -0.2309
   71SLPC   C22 6133   1.759   1.991  10.443  0.2951  0.2838  0.1381
   71SLPC   H2R 6134   1.714   1.982  10.544  1.6136  0.0602  0.7284
   71SLPC   H2S 6135   1.729   2.090  10.403 -0.9530  0.2606  0.9461
   71SLPC    C3 6136   2.124   1.722  10.431 -1.2132 -0.3313  0.4176
   71SLPC    HX 6137   2.069   1.631  10.464 -1.3758  0.0253  1.1452
   71SLPC    HY 6138   2.233   1.702  10.439 -0.9567  1.1243  0.8819
   71SLPC   O31 6139   2.084   1.763  10.298  0.0204 -0.3651 -0.5179
   71SLPC   C31 6140   2.170   1.827  10.231 -0.1671  0.4057 -0.2085
   71SLPC   O32 6141   2.279   1.861  10.277 -0.0708 -0.4125 -0.0768
   71SLPC   C32 6142   2.131   1.840  10.086 -0.0690 -0.3147  0.2524
   71SLPC   H2X 6143   2.070   1.932  10.073  0.1081 -0.2367 -0.0557
   71SLPC   H2Y 6144   2.069   1.750  10.067  0.2045 -0.5613  0.5302
   71SLPC   C23 6145   1.724   1.874  10.354 -0.3615  0.6477  0.0299
   71SLPC   H3R 6146   1.613   1.868  10.354 -0.2889 -1.8414  0.9516
   71SLPC   H3S 6147   1.770   1.783  10.398  0.9749  0.6416 -1.3049
   71SLPC   C24 6148   1.763   1.894  10.210  0.0695  0.1056  0.0486
   71SLPC   H4R 6149   1.870   1.909  10.186 -0.1963 -0.1053 -1.4066
   71SLPC   H4S 6150   1.728   1.995  10.182 -0.5965 -0.1799 -0.1876
   71SLPC   C25 6151   1.696   1.799  10.107  0.2832 -0.2290 -0.6738
   71SLPC   H5R 6152   1.588   1.776  10.119  0.3602 -0.1459  0.2331
   71SLPC   H5S 6153   1.758   1.708  10.121  0.9745  0.4008  0.4649
   71SLPC   C26 6154   1.722   1.832   9.959  0.1176  0.1473  0.8471
   71SLPC   H6R 6155   1.832   1.831   9.945 -0.0430 -1.1416 -0.6809
   71SLPC   H6S 6156   1.686   1.934   9.936  1.4011  0.2045 -1.1793
   71SLPC   C27 6157   1.670   1.730   9.854  0.1880  0.0648  0.2317
   71SLPC   H7R 6158   1.560   1.722   9.863  0.0006  1.0101 -0.8265
   71SLPC   H7S 6159   1.717   1.631   9.870  1.3196  0.8325  1.9279
   71SLPC   C28 6160   1.696   1.776   9.705  0.2034 -0.8560 -0.0024
   71SLPC   H8R 6161   1.805   1.793   9.695  0.0657  1.0625  1.2711
   71SLPC   H8S 6162   1.647   1.871   9.676  0.3644 -0.6297  0.4568
   71SLPC   C29 6163   1.653   1.661   9.612 -0.3645  0.0426 -0.2758
   71SLPC   H9R 6164   1.697   1.561   9.625 -0.1721 -0.0181 -1.2786
   71SLPC  C210 6165   1.576   1.667   9.504  0.4432  0.2355 -0.0111
   71SLPC  H10R 6166   1.551   1.571   9.456  3.1686 -0.7263  0.3455
   71SLPC  C211 6167   1.510   1.789   9.450 -0.3148 -0.0807 -0.6187
   71SLPC  H11R 6168   1.454   1.839   9.532 -1.1371 -1.0646 -0.5655
   71SLPC  H11S 6169   1.421   1.763   9.389 -1.8666  0.8650  1.1507
   71SLPC  C212 6170   1.600   1.876   9.363 -0.0541  0.7865 -0.0511
   71SLPC  H12R 6171   1.706   1.845   9.369 -0.7216 -1.4367  1.1905
   71SLPC  C213 6172   1.569   1.974   9.270 -0.5833 -0.6181 -0.3150
   71SLPC  H13R 6173   1.643   2.017   9.201  1.3835 -0.2579  1.8823
   71SLPC  C214 6174   1.429   2.026   9.249 -0.1584 -0.4116 -0.5122
   71SLPC  H14R 6175   1.416   2.137   9.249 -1.6173 -0.5599  0.6679
   71SLPC  H14S 6176   1.357   1.970   9.313  1.6274 -3.1796 -0.7674
   71SLPC  C215 6177   1.384   1.985   9.105 -0.3718  0.0470  0.2007
   71SLPC  H15R 6178   1.276   2.007   9.090 -0.4527  0.3570  1.1736
   71SLPC  H15S 6179   1.398   1.876   9.087 -1.4831 -0.1428  0.4013
   71SLPC  C216 6180   1.457   2.052   8.984  0.0897  0.3078  0.2123
   71SLPC  H16R 6181   1.568   2.052   8.989  0.1077  1.9698  0.2628
   71SLPC  H16S 6182   1.432   2.160   8.986 -0.7470  0.1064  1.0641
   71SLPC  C217 6183   1.408   1.998   8.853  0.0664  0.2226 -0.3583
   71SLPC  H17R 6184   1.299   2.016   8.842 -0.4874 -2.1481  0.7962
   71SLPC  H17S 6185   1.427   1.889   8.842  4.6046  0.5272  2.0822
   71SLPC  C218 6186   1.481   2.078   8.744 -0.5585 -0.2964 -0.3630
   71SLPC  H18R 6187   1.448   2.058   8.640 -0.6010 -0.9891 -0.2200
   71SLPC  H18S 6188   1.591   2.062   8.752 -1.0031 -3.0632  2.3244
   71SLPC  H18T 6189   1.451   2.182   8.766  0.4080 -0.3967  1.5882
   71SLPC   C33 6190   2.245   1.848   9.979 -0.4796 -0.5688 -0.1515
   71SLPC   H3X 6191   2.306   1.755   9.982 -0.4242 -0.5807 -1.2204
   71SLPC   H3Y 6192   2.311   1.936   9.994  0.7839 -1.2096 -1.6597
   71SLPC   C34 6193   2.196   1.844   9.832 -0.6834  0.0761  0.0448
   71SLPC   H4X 6194   2.289   1.871   9.777 -1.8137  2.6007 -0.7294
   71SLPC   H4Y 6195   2.142   1.933   9.796  1.7529  1.0996 -1.3109
   71SLPC   C35 6196   2.142   1.707   9.779  0.4448 -0.2204 -0.2455
   71SLPC   H5X 6197   2.045   1.688   9.831  0.3943  0.9263  0.1084
   71SLPC   H5Y 6198   2.217   1.631   9.808  2.4401  1.8685  0.4011
   71SLPC   C36 6199   2.144   1.706   9.635  0.2306 -0.6755  0.7936
   71SLPC   H6X 6200   2.253   1.725   9.623 -0.1805  1.6948  0.2794
   71SLPC   H6Y 6201   2.102   1.792   9.578 -0.0132 -1.9042 -0.9732
   71SLPC   C37 6202   2.108   1.569   9.577  0.2782 -0.0961  0.1975
   71SLPC   H7X 6203   2.012   1.541   9.626  1.4017 -1.2436  1.8113
   71SLPC   H7Y 6204   2.176   1.487   9.608  0.8500 -0.7282 -2.4535
   71SLPC   C38 6205   2.101   1.559   9.423  1.1452  0.3227 -0.6483
   71SLPC   H8X 6206   2.071   1.454   9.399 -1.4300  0.6873  0.6372
   71SLPC   H8Y 6207   2.200   1.581   9.378  1.2752  1.3575  0.1198
   71SLPC   C39 6208   2.000   1.656   9.353  0.1126  0.1515  0.3994
   71SLPC   H9X 6209   2.045   1.757   9.366  0.9619 -0.1121 -0.3456
   71SLPC   H9Y 6210   1.911   1.653   9.419  0.3557  1.1792  0.7895
   71SLPC  C310 6211   1.999   1.630   9.200  0.2806 -0.0433  0.1002
   71SLPC  H10X 6212   1.935   1.708   9.154  3.2519  1.1411 -2.3270
   71SLPC  H10Y 6213   1.951   1.531   9.183 -0.1812  0.0735  0.6770
   71SLPC  C311 6214   2.126   1.640   9.118 -0.7294  0.2644  0.0872
   71SLPC  H11X 6215   2.193   1.554   9.142 -0.3500 -0.0146 -1.8079
   71SLPC  H11Y 6216   2.186   1.732   9.138  1.3563 -1.4789  2.5417
   71SLPC  C312 6217   2.085   1.622   8.973  0.1096  0.6179  0.3811
   71SLPC  H12X 6218   2.018   1.700   8.930  0.5383  0.5286 -0.4730
   71SLPC  H12Y 6219   2.016   1.536   8.967 -0.4862  1.1949 -2.7029
   71SLPC  C313 6220   2.202   1.601   8.877  0.4693 -0.4160  0.1797
   71SLPC  H13X 6221   2.274   1.523   8.908  1.3430 -0.5582 -2.0690
   71SLPC  H13Y 6222   2.254   1.699   8.891  0.4415 -0.5128  1.0235
   71SLPC  C314 6223   2.163   1.598   8.725 -0.0151 -0.3720  0.6946
   71SLPC  H14X 6224   2.248   1.570   8.660 -1.2187  0.2387 -1.2353
   71SLPC  H14Y 6225   2.118   1.693   8.690  1.6836 -0.6374 -2.6081
   71SLPC  C315 6226   2.066   1.483   8.685 -0.3475  0.5029  0.3550
   71SLPC  H15X 6227   1.973   1.481   8.745 -0.2161  0.7592  0.5696
   71SLPC  H15Y 6228   2.126   1.396   8.719  0.1934  0.3133 -1.0329
   71SLPC  C316 6229   2.040   1.475   8.529 -0.2116 -1.2417 -0.3586
   71SLPC  H16X 6230   2.116   1.529   8.469 -0.3224  1.7318  1.9451
   71SLPC  H16Y 6231   1.963   1.553   8.513  1.4741  1.0065  1.7141
   71SLPC  C317 6232   1.994   1.338   8.491  0.0272 -0.3247  0.0275
   71SLPC  H17X 6233   2.076   1.269   8.520  0.5088 -0.6168 -1.8461
   71SLPC  H17Y 6234   1.990   1.334   8.380 -2.6313  0.9641  0.0026
   71SLPC  C318 6235   1.867   1.302   8.553 -0.1923  0.0148 -0.5735
   71SLPC  H18X 6236   1.809   1.387   8.597 -1.6641 -0.2566 -1.8949
   71SLPC  H18Y 6237   1.890   1.229   8.634  0.9665 -2.0919 -2.6883
   71SLPC  H18Z 6238   1.809   1.250   8.474 -0.3435 -0.6701 -0.0290
   72SLPC     N 6239   2.701   0.897  10.961 -0.0283  0.3948  0.6968
   72SLPC   C13 6240   2.595   0.924  11.064  0.0909 -0.3179 -0.0263
   72SLPC  H13A 6241   2.501   0.949  11.017  0.3489  0.7893  0.0031
   72SLPC  H13B 6242   2.586   0.839  11.129 -0.6996  0.5380  1.0255
   72SLPC  H13C 6243   2.620   1.009  11.127 -0.0099 -0.6897  0.5260
   72SLPC   C14 6244   2.832   0.896  11.040 -0.0536 -0.2259 -0.2052
   72SLPC  H14A 6245   2.845   0.808  11.102  0.6990 -0.5501 -0.8047
   72SLPC  H14B 6246   2.912   0.888  10.968  0.3865  0.2232  0.2188
   72SLPC  H14C 6247   2.841   0.977  11.112 -1.2290 -1.3039  1.2324
   72SLPC   C15 6248   2.705   1.011  10.866 -0.3718  0.1247  0.1273
   72SLPC  H15A 6249   2.727   1.097  10.926 -1.4867 -1.0721  2.3493
   72SLPC  H15B 6250   2.782   0.990  10.792 -0.4379 -0.0504  0.1064
   72SLPC  H15C 6251   2.613   1.023  10.811 -1.0875 -0.5835  1.1270
   72SLPC   C12 6252   2.681   0.770  10.878  0.4529  1.1926 -0.5155
   72SLPC  H12A 6253   2.762   0.750  10.810 -0.5890 -0.8137 -1.2407
   72SLPC  H12B 6254   2.587   0.793  10.830 -0.8706  0.6690  1.6868
   72SLPC   C11 6255   2.669   0.636  10.957 -0.1515  0.4402  0.3362
   72SLPC  H11A 6256   2.632   0.568  10.877 -1.6359  0.5429  0.8907
   72SLPC  H11B 6257   2.586   0.639  11.031  1.0974 -2.5170  2.0204
   72SLPC     P 6258   2.895   0.501  10.945  0.2928 -0.5714 -0.2585
   72SLPC   O13 6259   2.964   0.592  10.852 -0.6277  0.3719  0.8716
   72SLPC   O14 6260   2.960   0.440  11.063 -0.3450 -0.4472  0.1318
   72SLPC   O12 6261   2.784   0.589  11.020 -0.3014  0.2751  0.2927
   72SLPC   O11 6262   2.815   0.387  10.869  0.5412 -0.6890  0.5250
   72SLPC    C1 6263   2.887   0.311  10.773  0.1855 -0.2543  0.0242
   72SLPC    HA 6264   2.989   0.284  10.809  0.6868  0.2864 -0.9486
   72SLPC    HB 6265   2.829   0.217  10.761  0.7289 -0.9882  2.4703
   72SLPC    C2 6266   2.912   0.378  10.636  0.0957  0.3895 -0.0254
   72SLPC    HS 6267   2.964   0.473  10.660  0.4029  0.0028  0.8714
   72SLPC   O21 6268   2.783   0.404  10.572  0.1289  0.1775 -0.3108
   72SLPC   C21 6269   2.774   0.509  10.499  0.6253 -0.0420  0.3273
   72SLPC   O22 6270   2.839   0.610  10.504  0.4013 -0.5656 -0.2014
   72SLPC   C22 6271   2.637   0.507  10.427  0.6492 -0.1916 -0.4244
   72SLPC   H2R 6272   2.593   0.406  10.419  0.0195  0.2526 -4.1823
   72SLPC   H2S 6273   2.569   0.570  10.489  0.7870  0.0415 -0.5090
   72SLPC    C3 6274   3.006   0.296  10.541  0.0086  0.5069  0.0736
   72SLPC    HX 6275   2.973   0.192  10.519  0.7269  0.2506  0.1577
   72SLPC    HY 6276   3.099   0.286  10.601  0.6808  3.2794 -0.3775
   72SLPC   O31 6277   3.048   0.363  10.417  0.4049 -0.8658 -0.3196
   72SLPC   C31 6278   3.126   0.286  10.341  0.2474 -0.3961 -0.4246
   72SLPC   O32 6279   3.147   0.168  10.365 -0.3752  0.2551  0.0709
   72SLPC   C32 6280   3.175   0.364  10.218  0.0202 -0.3799 -0.3791
   72SLPC   H2X 6281   3.218   0.456  10.262 -1.6989  0.2725 -0.0078
   72SLPC   H2Y 6282   3.097   0.395  10.145 -0.6850  2.0012  1.2966
   72SLPC   C23 6283   2.635   0.574  10.292  0.1403  0.2083  0.7847
   72SLPC   H3R 6284   2.693   0.669  10.294 -3.6338  2.8921 -1.4329
   72SLPC   H3S 6285   2.532   0.584  10.251  0.7933  1.7824 -0.6048
   72SLPC   C24 6286   2.703   0.481  10.190  0.3507 -0.3381 -0.3610
   72SLPC   H4R 6287   2.650   0.387  10.163  1.4731 -0.8776 -0.7436
   72SLPC   H4S 6288   2.799   0.443  10.232  0.3534  0.8407  0.7722
   72SLPC   C25 6289   2.724   0.548  10.051  0.0239  0.0567  0.4565
   72SLPC   H5R 6290   2.774   0.646  10.069 -0.8204  0.8962 -1.4135
   72SLPC   H5S 6291   2.624   0.578  10.014 -0.3895  0.7125  2.0262
   72SLPC   C26 6292   2.785   0.461   9.937 -0.0110  0.3256 -0.0273
   72SLPC   H6R 6293   2.707   0.394   9.896 -0.8680 -0.9396  3.3568
   72SLPC   H6S 6294   2.865   0.401   9.985 -0.5505  0.4951  1.1227
   72SLPC   C27 6295   2.861   0.542   9.830 -0.2196  0.3679  0.0323
   72SLPC   H7R 6296   2.894   0.641   9.868 -0.9151  1.0983 -1.2231
   72SLPC   H7S 6297   2.787   0.573   9.754 -1.1577 -0.0531  0.7418
   72SLPC   C28 6298   2.963   0.455   9.756 -0.0008  0.0266  0.1324
   72SLPC   H8R 6299   2.910   0.368   9.712 -0.0410  1.1572 -2.2566
   72SLPC   H8S 6300   3.045   0.417   9.819 -0.1109 -0.6607 -0.1323
   72SLPC   C29 6301   3.028   0.527   9.642  0.9490  0.5940  0.0984
   72SLPC   H9R 6302   3.099   0.606   9.669  0.7403  1.0304 -0.5901
   72SLPC  C210 6303   2.998   0.494   9.516 -1.0173  0.4273  0.2145
   72SLPC  H10R 6304   3.043   0.555   9.436 -2.8416 -1.4443 -2.3965
   72SLPC  C211 6305   2.907   0.391   9.452  0.0813 -0.2897 -1.0739
   72SLPC  H11R 6306   2.860   0.320   9.523  0.5931  1.6237  1.3367
   72SLPC  H11S 6307   2.987   0.338   9.396  0.9740  1.5916 -1.6698
   72SLPC  C212 6308   2.796   0.457   9.370  0.2186 -0.8469 -0.2060
   72SLPC  H12R 6309   2.701   0.474   9.424  1.4925 -0.3861  2.0332
   72SLPC  C213 6310   2.802   0.483   9.235 -0.1852  0.6084 -0.3104
   72SLPC  H13R 6311   2.712   0.523   9.186 -1.0104 -0.3653  0.3378
   72SLPC  C214 6312   2.917   0.447   9.135 -0.1343 -0.3353  0.2433
   72SLPC  H14R 6313   3.013   0.419   9.183  0.3052 -1.6192 -1.3256
   72SLPC  H14S 6314   2.922   0.519   9.051 -0.4860  0.6119  1.0004
   72SLPC  C215 6315   2.886   0.308   9.061  0.1626  0.5259 -0.1548
   72SLPC  H15R 6316   2.854   0.234   9.138  1.7177 -0.8931 -0.8113
   72SLPC  H15S 6317   2.989   0.285   9.026  1.5359  3.2756  1.6554
   72SLPC  C216 6318   2.782   0.305   8.946 -0.2656  0.1834 -0.0284
   72SLPC  H16R 6319   2.804   0.379   8.867  0.5973  0.1907  0.2058
   72SLPC  H16S 6320   2.694   0.339   9.005 -1.4682  0.2475 -1.8013
   72SLPC  C217 6321   2.753   0.175   8.879 -0.2188  0.0878 -0.1351
   72SLPC  H17R 6322   2.718   0.107   8.960  1.2783  1.3953  1.6971
   72SLPC  H17S 6323   2.845   0.129   8.836  0.5933 -0.5264  2.1067
   72SLPC  C218 6324   2.638   0.187   8.786 -0.3200 -0.3678  0.0563
   72SLPC  H18R 6325   2.654   0.277   8.722  0.5544 -0.7792 -0.3284
   72SLPC  H18S 6326   2.545   0.203   8.844  0.5298 -1.9423  1.9291
   72SLPC  H18T 6327   2.633   0.103   8.714  1.4624 -0.4356 -0.0271
   72SLPC   C33 6328   3.288   0.287  10.143  0.0186 -0.7012  0.6284
   72SLPC   H3X 6329   3.242   0.205  10.084  2.4279 -2.0282  0.4577
   72SLPC   H3Y 6330   3.365   0.224  10.193 -1.5729 -2.5470  0.8640
   72SLPC   C34 6331   3.336   0.370  10.034 -0.8229 -0.3324 -0.2171
   72SLPC   H4X 6332   3.389   0.456  10.081  0.8597  0.0438 -2.6083
   72SLPC   H4Y 6333   3.256   0.418   9.974 -1.7843 -0.5178  0.8733
   72SLPC   C35 6334   3.440   0.293   9.947 -0.6998 -0.0318 -0.1274
   72SLPC   H5X 6335   3.401   0.202   9.897 -0.8971  0.1336 -0.2782
   72SLPC   H5Y 6336   3.529   0.269  10.008  0.0246  0.7443 -0.8619
   72SLPC   C36 6337   3.513   0.393   9.855  0.1431  0.5348 -1.3143
   72SLPC   H6X 6338   3.619   0.363   9.840 -0.0828 -1.8076  1.2210
   72SLPC   H6Y 6339   3.510   0.497   9.894 -1.8937 -0.5415  1.7714
   72SLPC   C37 6340   3.446   0.399   9.715 -0.8601  0.4376  0.1334
   72SLPC   H7X 6341   3.336   0.395   9.726 -0.7036 -1.3815  1.5743
   72SLPC   H7Y 6342   3.479   0.308   9.660  1.7965  1.5793 -0.3367
   72SLPC   C38 6343   3.464   0.538   9.644  0.1692 -0.1805  0.2671
   72SLPC   H8X 6344   3.564   0.584   9.658  0.1134 -0.2958  1.1039
   72SLPC   H8Y 6345   3.391   0.609   9.689  0.7489 -0.3104  1.4771
   72SLPC   C39 6346   3.447   0.527   9.496 -0.1977  0.2958 -0.3023
   72SLPC   H9X 6347   3.340   0.524   9.465 -0.6526  0.1992  1.1658
   72SLPC   H9Y 6348   3.500   0.440   9.453  3.0613  2.4610 -1.0104
   72SLPC  C310 6349   3.502   0.658   9.429 -0.0022  0.0638 -0.4340
   72SLPC  H10X 6350   3.608   0.686   9.451  0.4004 -1.6759 -0.0217
   72SLPC  H10Y 6351   3.442   0.747   9.460  0.0914  0.0399 -0.1787
   72SLPC  C311 6352   3.503   0.646   9.273  0.1412  0.6206  0.9515
   72SLPC  H11X 6353   3.397   0.662   9.241  0.0672 -0.0443  0.8488
   72SLPC  H11Y 6354   3.540   0.543   9.251 -0.2786  1.0658 -2.3122
   72SLPC  C312 6355   3.573   0.763   9.205 -0.6111  0.4409 -0.3459
   72SLPC  H12X 6356   3.673   0.770   9.252  0.0256 -0.2861 -1.5486
   72SLPC  H12Y 6357   3.515   0.857   9.216 -0.2496  0.4260  2.1821
   72SLPC  C313 6358   3.589   0.745   9.058  0.3229 -0.0445 -0.4566
   72SLPC  H13X 6359   3.484   0.745   9.021 -0.3307 -2.4077  1.1790
   72SLPC  H13Y 6360   3.625   0.641   9.041 -0.0922 -0.1977 -0.4266
   72SLPC  C314 6361   3.668   0.846   8.980  0.0966  0.2814  0.4067
   72SLPC  H14X 6362   3.737   0.910   9.038 -0.6306  2.0045 -0.5443
   72SLPC  H14Y 6363   3.601   0.916   8.925 -2.4778 -1.6737  0.8461
   72SLPC  C315 6364   3.759   0.765   8.886  0.2583 -0.7214  0.5869
   72SLPC  H15X 6365   3.820   0.687   8.937  1.1807  0.2941  1.0926
   72SLPC  H15Y 6366   3.827   0.833   8.829  0.2189 -1.4446 -0.3474
   72SLPC  C316 6367   3.680   0.701   8.773  1.7457  0.0616  0.1618
   72SLPC  H16X 6368   3.590   0.765   8.780  0.8773 -1.2577  4.1061
   72SLPC  H16Y 6369   3.638   0.603   8.804 -1.2090  1.4232  0.8010
   72SLPC  C317 6370   3.733   0.701   8.634  0.0538  0.3631 -0.1617
   72SLPC  H17X 6371   3.790   0.793   8.608 -0.0854  0.7791  0.9250
   72SLPC  H17Y 6372   3.648   0.685   8.565 -0.0273 -2.9351  0.5182
   72SLPC  C318 6373   3.828   0.590   8.601  0.9341  0.5694 -0.1673
   72SLPC  H18X 6374   3.912   0.595   8.674 -1.3203  0.5201  2.6318
   72SLPC  H18Y 6375   3.859   0.592   8.495  0.9151  2.5173 -0.1805
   72SLPC  H18Z 6376   3.780   0.490   8.604  1.2446  0.2773 -2.8993
   73SLPC     N 6377   3.770   5.608  11.048  0.3409 -0.4591 -0.2598
   73SLPC   C13 6378   3.711   5.711  11.145 -0.4795 -0.6046  0.4925
   73SLPC  H13A 6379   3.605   5.705  11.166 -0.7429  0.6719 -0.3362
   73SLPC  H13B 6380   3.766   5.719  11.238 -0.8451 -0.9038  0.7392
   73SLPC  H13C 6381   3.715   5.806  11.094  0.9342 -1.0544 -0.2603
   73SLPC   C14 6382   3.740   5.470  11.100  0.4451 -0.2162  0.5827
   73SLPC  H14A 6383   3.782   5.473  11.200  2.0588  1.8634 -0.0829
   73SLPC  H14B 6384   3.634   5.453  11.098  0.3684  0.2171 -1.5692
   73SLPC  H14C 6385   3.785   5.391  11.042 -0.4554 -0.5228  0.2866
   73SLPC   C15 6386   3.918   5.631  11.040 -0.1498  0.0449 -0.3180
   73SLPC  H15A 6387   3.958   5.571  10.960  0.4466  1.1181 -0.8504
   73SLPC  H15B 6388   3.946   5.730  11.008 -2.2729  1.1091  0.9309
   73SLPC  H15C 6389   3.959   5.610  11.138 -0.0330  2.5532  0.2481
   73SLPC   C12 6390   3.705   5.605  10.907 -0.2997 -0.0649 -0.0465
   73SLPC  H12A 6391   3.600   5.586  10.920 -0.4240 -3.0099 -3.8619
   73SLPC  H12B 6392   3.741   5.520  10.851 -1.8284  0.3035 -1.6632
   73SLPC   C11 6393   3.716   5.734  10.819 -0.2679  0.1573 -0.0990
   73SLPC  H11A 6394   3.681   5.724  10.714  2.0438  3.1990 -1.3081
   73SLPC  H11B 6395   3.823   5.761  10.814 -0.8322  2.6535  0.0133
   73SLPC     P 6396   3.477   5.836  10.871  0.2603  0.2389  0.1114
   73SLPC   O13 6397   3.429   5.697  10.890  0.4702  0.1392  0.8263
   73SLPC   O14 6398   3.434   5.937  10.969  0.3493 -0.4829  0.4620
   73SLPC   O12 6399   3.641   5.831  10.883  0.1770 -0.2895 -0.4956
   73SLPC   O11 6400   3.461   5.891  10.724 -0.0336  0.2017  0.1140
   73SLPC    C1 6401   3.552   5.980  10.664  0.0954  0.6271  0.2166
   73SLPC    HA 6402   3.546   6.067  10.733 -2.1268 -0.1249  1.0599
   73SLPC    HB 6403   3.655   5.941  10.662 -1.2953 -3.5005 -1.3700
   73SLPC    C2 6404   3.503   6.011  10.516  0.7980 -0.3819 -0.2283
   73SLPC    HS 6405   3.495   5.908  10.476 -1.0845 -0.9836  1.5481
   73SLPC   O21 6406   3.602   6.089  10.452 -0.2609 -0.4102  0.3372
   73SLPC   C21 6407   3.617   6.073  10.328 -0.0162  0.1838  0.2051
   73SLPC   O22 6408   3.572   5.971  10.270  0.0888 -0.0158  0.0055
   73SLPC   C22 6409   3.664   6.201  10.264 -0.8391  0.1378 -0.1231
   73SLPC   H2R 6410   3.597   6.281  10.302 -2.8552 -0.4797 -2.1679
   73SLPC   H2S 6411   3.769   6.218  10.295 -2.0027  2.1360  3.2497
   73SLPC    C3 6412   3.362   6.069  10.513 -0.2376 -0.2939 -0.2118
   73SLPC    HX 6413   3.362   6.155  10.585  2.4479 -0.9732  0.7195
   73SLPC    HY 6414   3.290   6.001  10.563 -1.8100  0.7053 -1.0405
   73SLPC   O31 6415   3.342   6.109  10.376  0.7197  0.4186  0.1030
   73SLPC   C31 6416   3.284   6.010  10.299  0.2232 -0.7508 -0.0005
   73SLPC   O32 6417   3.234   5.906  10.344 -1.0175  0.4286  0.4700
   73SLPC   C32 6418   3.291   6.049  10.150  0.1405  0.4601 -0.4011
   73SLPC   H2X 6419   3.397   6.080  10.136  0.8619 -1.1607  1.1194
   73SLPC   H2Y 6420   3.224   6.135  10.129 -0.0753  0.5473  0.6184
   73SLPC   C23 6421   3.654   6.197  10.110  0.6078  0.1210  0.4754
   73SLPC   H3R 6422   3.545   6.203  10.089  0.9670 -2.0900 -2.7937
   73SLPC   H3S 6423   3.690   6.101  10.067 -0.2878 -0.2315  0.4935
   73SLPC   C24 6424   3.727   6.316  10.052  0.3030  0.5359 -0.3895
   73SLPC   H4R 6425   3.719   6.397  10.128 -1.0634 -0.8862  1.0835
   73SLPC   H4S 6426   3.676   6.337   9.956 -0.7016  0.3873  0.1000
   73SLPC   C25 6427   3.874   6.292  10.015 -0.4675 -0.4749 -0.0471
   73SLPC   H5R 6428   3.932   6.269  10.107  1.5320 -1.1692 -1.4134
   73SLPC   H5S 6429   3.916   6.388   9.978 -2.5779 -0.1918 -1.9299
   73SLPC   C26 6430   3.906   6.185   9.907  0.2477 -0.4591 -0.7039
   73SLPC   H6R 6431   3.847   6.205   9.816  0.1351 -0.7625 -0.7018
   73SLPC   H6S 6432   3.869   6.088   9.948  0.9896  0.1361  1.5440
   73SLPC   C27 6433   4.053   6.160   9.895 -0.4367 -0.0180  0.1564
   73SLPC   H7R 6434   4.064   6.082   9.817  1.2300  0.5801 -0.2557
   73SLPC   H7S 6435   4.105   6.120   9.985 -0.0801 -0.6448 -0.3216
   73SLPC   C28 6436   4.136   6.276   9.850 -0.3268  0.8762 -0.4066
   73SLPC   H8R 6437   4.160   6.336   9.941 -0.2695  1.2697 -0.6775
   73SLPC   H8S 6438   4.079   6.345   9.783  0.1144 -1.2535 -3.1145
   73SLPC   C29 6439   4.269   6.243   9.782  0.5876  0.3902 -0.4510
   73SLPC   H9R 6440   4.351   6.209   9.848  0.0182 -0.1169  0.0106
   73SLPC  C210 6441   4.287   6.219   9.653 -0.6120  0.2883  0.5563
   73SLPC  H10R 6442   4.391   6.203   9.623 -0.4289  1.0836  0.7345
   73SLPC  C211 6443   4.180   6.218   9.543  0.5002  0.2088 -0.3827
   73SLPC  H11R 6444   4.174   6.320   9.498  2.3512 -0.9692 -3.6374
   73SLPC  H11S 6445   4.079   6.209   9.589  0.1650 -0.8040 -1.2809
   73SLPC  C212 6446   4.179   6.114   9.429 -0.9462 -0.7909 -0.8688
   73SLPC  H12R 6447   4.249   6.143   9.349  0.1195  0.4506  0.4533
   73SLPC  C213 6448   4.132   5.991   9.439 -0.1391 -0.3294  0.6447
   73SLPC  H13R 6449   4.150   5.914   9.363  0.7913  0.9762 -0.5213
   73SLPC  C214 6450   4.059   5.933   9.554 -0.1588  0.0894 -0.0542
   73SLPC  H14R 6451   3.974   5.871   9.518 -1.0885  0.9580  0.5874
   73SLPC  H14S 6452   4.011   6.019   9.606 -1.2318  0.5842 -1.7546
   73SLPC  C215 6453   4.148   5.849   9.650 -0.0704 -0.0854  0.2004
   73SLPC  H15R 6454   4.249   5.887   9.675  3.0273 -5.7957 -1.9144
   73SLPC  H15S 6455   4.175   5.751   9.607  2.8158 -0.2685  2.1457
   73SLPC  C216 6456   4.069   5.797   9.773  0.5570 -0.9155 -0.0312
   73SLPC  H16R 6457   3.967   5.764   9.742 -0.2343  1.8663 -0.6526
   73SLPC  H16S 6458   4.056   5.882   9.843  2.5407 -0.3442 -0.3166
   73SLPC  C217 6459   4.131   5.673   9.850 -0.6092 -0.2412  0.4103
   73SLPC  H17R 6460   4.058   5.640   9.927  1.0314  1.7861  3.0390
   73SLPC  H17S 6461   4.214   5.721   9.907 -0.0463 -0.6916 -0.0125
   73SLPC  C218 6462   4.181   5.552   9.775  0.1534 -0.1225 -0.2771
   73SLPC  H18R 6463   4.109   5.496   9.711  0.4496 -0.1568 -0.5833
   73SLPC  H18S 6464   4.238   5.491   9.848 -0.0941  0.9173  0.8284
   73SLPC  H18T 6465   4.258   5.585   9.701  0.5357  0.8155  0.5180
   73SLPC   C33 6466   3.249   5.938  10.047  0.4485  0.5852  0.5972
   73SLPC   H3X 6467   3.141   5.925  10.069 -0.0671  0.6700 -1.6073
   73SLPC   H3Y 6468   3.297   5.842  10.075 -1.2364 -0.5945 -0.3509
   73SLPC   C34 6469   3.265   5.985   9.903  0.2094  0.2596 -0.1354
   73SLPC   H4X 6470   3.266   6.096   9.893 -0.4373  0.3173  0.3974
   73SLPC   H4Y 6471   3.184   5.944   9.839 -1.1775  0.3094  1.5327
   73SLPC   C35 6472   3.407   5.958   9.842 -0.1758 -0.4459  0.0402
   73SLPC   H5X 6473   3.434   5.851   9.834  1.0682 -0.1831  0.5573
   73SLPC   H5Y 6474   3.485   6.003   9.908  1.6122 -0.7480 -1.7783
   73SLPC   C36 6475   3.406   6.026   9.704  0.2988  0.5316  0.0434
   73SLPC   H6X 6476   3.389   6.135   9.722  1.4250  0.5681  0.9900
   73SLPC   H6Y 6477   3.329   5.977   9.641  2.3874 -2.5631 -0.3474
   73SLPC   C37 6478   3.544   6.016   9.627  0.3419  0.3978 -0.4520
   73SLPC   H7X 6479   3.613   5.946   9.678 -0.3177  0.3408  0.3878
   73SLPC   H7Y 6480   3.600   6.111   9.635  0.5422  0.2601 -0.1834
   73SLPC   C38 6481   3.519   5.982   9.483 -0.0932  0.5851 -0.3679
   73SLPC   H8X 6482   3.473   5.881   9.486  1.0642  0.0747  1.5178
   73SLPC   H8Y 6483   3.621   5.965   9.443 -0.5088  1.1846 -1.7517
   73SLPC   C39 6484   3.446   6.093   9.403 -1.3020 -0.1319  0.3741
   73SLPC   H9X 6485   3.505   6.185   9.424 -1.1359 -0.1072 -0.2011
   73SLPC   H9Y 6486   3.345   6.095   9.448 -1.3175  1.7056  0.2991
   73SLPC  C310 6487   3.434   6.051   9.254  0.6091  0.1102 -0.8082
   73SLPC  H10X 6488   3.387   6.130   9.193  0.6597  1.5479  0.9233
   73SLPC  H10Y 6489   3.361   5.967   9.249 -0.2864  0.9013 -1.2417
   73SLPC  C311 6490   3.566   6.003   9.194  0.4674 -0.3579 -0.0872
   73SLPC  H11X 6491   3.546   5.974   9.088 -1.9479 -0.8867  0.4728
   73SLPC  H11Y 6492   3.601   5.913   9.249  1.6954  0.5198  0.6259
   73SLPC  C312 6493   3.675   6.108   9.184  0.1490  0.1681  0.1449
   73SLPC  H12X 6494   3.701   6.140   9.287 -0.8616  1.5315  0.0196
   73SLPC  H12Y 6495   3.635   6.204   9.144 -2.7018 -0.6962  0.6655
   73SLPC  C313 6496   3.800   6.068   9.115 -0.7070 -0.0080  0.6862
   73SLPC  H13X 6497   3.802   5.957   9.113 -0.2219  0.0021 -1.6697
   73SLPC  H13Y 6498   3.892   6.107   9.164  0.8031 -0.8071 -1.4004
   73SLPC  C314 6499   3.800   6.106   8.963  0.0742 -0.2762 -0.1036
   73SLPC  H14X 6500   3.808   6.216   8.954  1.4344 -0.1842  1.6088
   73SLPC  H14Y 6501   3.709   6.066   8.914  0.2904 -1.1709  0.2042
   73SLPC  C315 6502   3.935   6.048   8.902  0.3547 -0.1073  0.4937
   73SLPC  H15X 6503   3.945   5.941   8.933  0.3066 -0.2522  0.0239
   73SLPC  H15Y 6504   4.018   6.120   8.916  0.2768  0.3610 -1.2409
   73SLPC  C316 6505   3.925   6.053   8.745  0.1344 -0.3229  0.2194
   73SLPC  H16X 6506   3.892   6.155   8.716  1.1579  0.1554  0.6866
   73SLPC  H16Y 6507   3.843   5.983   8.717  0.6311 -0.6732 -0.3823
   73SLPC  C317 6508   4.054   6.019   8.664 -0.7265  0.1422  0.5521
   73SLPC  H17X 6509   4.144   6.085   8.667  0.0669 -0.6709 -2.2497
   73SLPC  H17Y 6510   4.042   6.025   8.554 -0.4010 -1.4550  0.4048
   73SLPC  C318 6511   4.088   5.870   8.696  1.0337  0.1163 -0.7036
   73SLPC  H18X 6512   4.178   5.827   8.647  0.8765  0.1510 -1.0298
   73SLPC  H18Y 6513   4.000   5.805   8.673  1.4794 -0.4175 -0.9321
   73SLPC  H18Z 6514   4.102   5.866   8.806  2.8852 -0.1850 -0.9196
   74SLPC     N 6515   3.946   1.036  10.884  0.5634 -0.3843  0.2297
   74SLPC   C13 6516   3.944   1.163  10.950  0.2515  0.0485 -0.8134
   74SLPC  H13A 6517   3.860   1.225  10.923  1.0271  1.8981  0.7904
   74SLPC  H13B 6518   3.942   1.150  11.057  0.7328  2.4046 -0.4739
   74SLPC  H13C 6519   4.034   1.218  10.925  1.2223 -0.3378  1.5187
   74SLPC   C14 6520   3.842   0.954  10.943 -0.1305 -0.3472 -0.1245
   74SLPC  H14A 6521   3.746   0.980  10.902  1.6310  1.7806 -3.2782
   74SLPC  H14B 6522   3.855   0.847  10.931  0.5967 -0.5643  2.0953
   74SLPC  H14C 6523   3.852   0.970  11.049  2.5831  2.1378 -0.6277
   74SLPC   C15 6524   4.078   0.975  10.910 -0.3907 -0.9251 -1.1420
   74SLPC  H15A 6525   4.089   0.880  10.860 -0.6347 -1.2799 -0.5202
   74SLPC  H15B 6526   4.161   1.038  10.879  0.0318 -0.4107  0.8692
   74SLPC  H15C 6527   4.087   0.944  11.013 -2.7558 -2.7083 -1.4003
   74SLPC   C12 6528   3.937   1.053  10.738  0.1366 -0.9292 -0.1232
   74SLPC  H12A 6529   4.022   1.115  10.713 -0.4075 -0.5268 -1.0209
   74SLPC  H12B 6530   3.852   1.112  10.706  2.3272  2.8452  0.3701
   74SLPC   C11 6531   3.934   0.927  10.648  0.2768  0.1830 -0.5405
   74SLPC  H11A 6532   3.906   0.953  10.543 -0.9095 -0.5097 -0.4099
   74SLPC  H11B 6533   3.847   0.866  10.680  1.4114 -1.1419  0.0706
   74SLPC     P 6534   4.182   0.882  10.580  0.0288  0.0456 -0.1570
   74SLPC   O13 6535   4.198   1.029  10.581  0.1048  0.4732 -0.2282
   74SLPC   O14 6536   4.297   0.800  10.629 -0.1040 -0.2802 -0.2505
   74SLPC   O12 6537   4.043   0.838  10.651 -0.2101 -0.4606  0.4809
   74SLPC   O11 6538   4.159   0.838  10.430  0.2997  0.0275 -0.4914
   74SLPC    C1 6539   4.101   0.703  10.417 -0.5789  0.3988  0.0424
   74SLPC    HA 6540   4.113   0.640  10.508  2.2101  1.8325  0.8135
   74SLPC    HB 6541   3.992   0.712  10.399 -0.6042  0.3636  0.1710
   74SLPC    C2 6542   4.156   0.641  10.286 -0.4934 -0.9923 -0.5347
   74SLPC    HS 6543   4.266   0.632  10.302 -0.4191 -0.1495 -0.5120
   74SLPC   O21 6544   4.115   0.725  10.181 -0.0509 -0.6608  0.2999
   74SLPC   C21 6545   4.212   0.789  10.118 -0.2192  0.4371 -0.2910
   74SLPC   O22 6546   4.330   0.798  10.148  0.0781  0.2952 -0.6084
   74SLPC   C22 6547   4.149   0.857   9.993  0.6400  0.6635  0.2844
   74SLPC   H2R 6548   4.139   0.789   9.906 -0.6507  2.6813 -1.2597
   74SLPC   H2S 6549   4.043   0.882  10.015 -0.5888 -2.0349 -1.9142
   74SLPC    C3 6550   4.089   0.501  10.273  0.5087  0.5902  1.0037
   74SLPC    HX 6551   3.986   0.506  10.312 -0.0883 -0.3816 -0.3506
   74SLPC    HY 6552   4.145   0.440  10.347  2.4302  1.4177  0.3089
   74SLPC   O31 6553   4.089   0.454  10.139  0.4289  0.6785  0.1373
   74SLPC   C31 6554   4.195   0.388  10.090 -0.1358 -0.1737 -0.4610
   74SLPC   O32 6555   4.300   0.362  10.149 -0.3573  0.1758  0.2527
   74SLPC   C32 6556   4.169   0.339   9.943 -0.1180 -0.7822  0.0798
   74SLPC   H2X 6557   4.115   0.414   9.881 -0.9535 -1.0243  0.5062
   74SLPC   H2Y 6558   4.121   0.239   9.955 -0.0664 -0.6201  1.9838
   74SLPC   C23 6559   4.228   0.988   9.960 -0.2250  0.1850 -0.3800
   74SLPC   H3R 6560   4.259   1.037  10.055  1.9483  4.2667 -2.9226
   74SLPC   H3S 6561   4.147   1.057   9.926 -0.4299  0.4032  0.5238
   74SLPC   C24 6562   4.343   0.990   9.862  0.6040  0.3653  0.6898
   74SLPC   H4R 6563   4.432   0.937   9.905 -1.0862 -2.3761  1.0536
   74SLPC   H4S 6564   4.360   1.099   9.848  0.7860  0.2314 -0.1891
   74SLPC   C25 6565   4.294   0.937   9.729  0.0854 -0.8270  0.4407
   74SLPC   H5R 6566   4.197   0.987   9.709  0.5762  1.8573  3.8132
   74SLPC   H5S 6567   4.276   0.828   9.732 -2.6376 -0.4499  0.9803
   74SLPC   C26 6568   4.396   0.956   9.621 -0.0334 -0.0883 -0.4260
   74SLPC   H6R 6569   4.484   0.892   9.642 -0.7701 -0.7717  0.6640
   74SLPC   H6S 6570   4.423   1.064   9.619  0.1459 -0.1430 -0.9948
   74SLPC   C27 6571   4.344   0.924   9.478 -0.1198 -0.6543  0.1133
   74SLPC   H7R 6572   4.263   0.994   9.449 -1.1978 -1.4277  1.1402
   74SLPC   H7S 6573   4.310   0.819   9.469  2.6373 -1.5115 -1.7830
   74SLPC   C28 6574   4.463   0.942   9.369 -0.0697 -0.2939  0.9367
   74SLPC   H8R 6575   4.548   0.873   9.390  1.2638  1.1084  0.3121
   74SLPC   H8S 6576   4.521   1.035   9.386  2.5154 -2.2168  3.7110
   74SLPC   C29 6577   4.402   0.923   9.232  0.3512 -0.1658  0.0766
   74SLPC   H9R 6578   4.325   0.994   9.200  0.8092  0.4001  0.2027
   74SLPC  C210 6579   4.438   0.832   9.138  0.3957  0.3056 -0.5798
   74SLPC  H10R 6580   4.394   0.844   9.038 -0.3175 -0.0943 -0.3234
   74SLPC  C211 6581   4.535   0.721   9.160 -0.6345  0.5850 -0.2112
   74SLPC  H11R 6582   4.531   0.689   9.266  0.9334  1.1687  0.0565
   74SLPC  H11S 6583   4.641   0.754   9.153  0.4677 -1.3129  4.1541
   74SLPC  C212 6584   4.514   0.598   9.073  0.1506 -1.0481 -0.2288
   74SLPC  H12R 6585   4.482   0.508   9.127  1.5580 -2.1801 -1.2070
   74SLPC  C213 6586   4.546   0.582   8.941 -0.1332 -0.0497 -0.3002
   74SLPC  H13R 6587   4.528   0.483   8.896 -1.5863  1.2066 -2.6829
   74SLPC  C214 6588   4.607   0.681   8.838 -0.7161  0.4139 -0.0983
   74SLPC  H14R 6589   4.599   0.783   8.882  0.5478  0.2117  0.6901
   74SLPC  H14S 6590   4.542   0.687   8.749 -0.3198  0.6322 -0.3765
   74SLPC  C215 6591   4.749   0.651   8.807 -0.6473  0.0871  0.4209
   74SLPC  H15R 6592   4.752   0.548   8.767 -3.4650  0.7998 -1.9580
   74SLPC  H15S 6593   4.810   0.652   8.900 -0.9364 -0.9008  0.6275
   74SLPC  C216 6594   4.820   0.747   8.715  0.2495 -0.3420  0.6819
   74SLPC  H16R 6595   4.814   0.848   8.762  1.0839 -0.1889  0.4772
   74SLPC  H16S 6596   4.776   0.743   8.614  1.8765 -0.5337 -0.0512
   74SLPC  C217 6597   4.969   0.704   8.707 -0.1507 -0.1061 -0.2047
   74SLPC  H17R 6598   4.989   0.596   8.692 -0.3068 -0.0092 -1.1370
   74SLPC  H17S 6599   5.019   0.716   8.806 -1.1306 -0.5646  0.3681
   74SLPC  C218 6600   5.049   0.775   8.599 -0.4622 -0.0784  0.6613
   74SLPC  H18R 6601   5.145   0.721   8.594 -0.4798 -0.2062  1.5374
   74SLPC  H18S 6602   5.070   0.883   8.617  1.8897 -0.1674 -1.0448
   74SLPC  H18T 6603   5.005   0.762   8.498 -0.7791  1.5455  0.5592
   74SLPC   C33 6604   4.305   0.338   9.864 -0.2192  0.0889 -1.2273
   74SLPC   H3X 6605   4.289   0.273   9.775  3.0033 -0.6829 -1.3771
   74SLPC   H3Y 6606   4.395   0.305   9.921 -1.5296  0.3660  1.1496
   74SLPC   C34 6607   4.347   0.484   9.811  0.6143  0.2782 -0.3846
   74SLPC   H4X 6608   4.414   0.517   9.894 -1.6605  1.8339  0.9332
   74SLPC   H4Y 6609   4.261   0.553   9.799  0.1025 -0.4683 -1.1510
   74SLPC   C35 6610   4.414   0.490   9.670 -0.5267  0.3888 -0.5652
   74SLPC   H5X 6611   4.475   0.400   9.648 -2.3066 -0.7999 -0.9245
   74SLPC   H5Y 6612   4.469   0.586   9.669 -1.1239  0.7432 -2.2105
   74SLPC   C36 6613   4.309   0.500   9.553 -1.0822 -0.1425  0.8559
   74SLPC   H6X 6614   4.369   0.507   9.460 -1.4793  0.5478  0.6447
   74SLPC   H6Y 6615   4.247   0.592   9.561 -0.3956  0.3246  0.8067
   74SLPC   C37 6616   4.222   0.373   9.535  0.1128  0.1962  0.6823
   74SLPC   H7X 6617   4.134   0.374   9.603 -2.3269  0.6128 -2.2755
   74SLPC   H7Y 6618   4.279   0.285   9.571 -0.3768 -0.7916 -0.8698
   74SLPC   C38 6619   4.165   0.341   9.399 -0.0707 -0.1922  0.6679
   74SLPC   H8X 6620   4.097   0.426   9.377 -0.2445 -0.6633 -0.6811
   74SLPC   H8Y 6621   4.099   0.252   9.406  1.0561 -1.3089 -1.7734
   74SLPC   C39 6622   4.256   0.320   9.277  0.7865  0.4199 -0.1828
   74SLPC   H9X 6623   4.303   0.418   9.253 -0.7592  1.5096  0.9522
   74SLPC   H9Y 6624   4.195   0.293   9.188 -2.6950  2.6699  1.2701
   74SLPC  C310 6625   4.374   0.216   9.316 -0.5231  0.2564  0.3455
   74SLPC  H10X 6626   4.323   0.119   9.330 -0.8501  0.3062 -0.4184
   74SLPC  H10Y 6627   4.423   0.239   9.413  1.3948  2.1213 -0.9553
   74SLPC  C311 6628   4.468   0.202   9.199  0.3726 -0.2090  0.4802
   74SLPC  H11X 6629   4.543   0.284   9.207  0.6777 -0.3067 -1.0628
   74SLPC  H11Y 6630   4.413   0.220   9.104  2.8291 -0.9178 -1.1612
   74SLPC  C312 6631   4.552   0.078   9.186 -0.2906  0.1261  0.1430
   74SLPC  H12X 6632   4.487  -0.012   9.194  1.0943 -0.9083  0.3758
   74SLPC  H12Y 6633   4.628   0.078   9.268  0.0988 -1.5763 -0.1698
   74SLPC  C313 6634   4.634   0.074   9.060 -0.1854  0.4471  0.1274
   74SLPC  H13X 6635   4.701   0.162   9.054 -0.6210  0.7761  0.0834
   74SLPC  H13Y 6636   4.574   0.067   8.967  2.6417 -2.4633 -1.7351
   74SLPC  C314 6637   4.727  -0.048   9.057  0.5111 -0.2753  0.3600
   74SLPC  H14X 6638   4.713  -0.109   9.149 -1.1557 -1.6934 -0.7794
   74SLPC  H14Y 6639   4.830  -0.006   9.063  1.5410 -2.0317 -2.9075
   74SLPC  C315 6640   4.690  -0.146   8.942  0.9188  0.6525 -0.4044
   74SLPC  H15X 6641   4.713  -0.104   8.842 -0.5119 -1.7827 -1.8456
   74SLPC  H15Y 6642   4.582  -0.172   8.944  1.4595 -1.7905  0.7063
   74SLPC  C316 6643   4.767  -0.280   8.950  0.2689 -0.3918 -0.1346
   74SLPC  H16X 6644   4.735  -0.332   9.043 -1.2179 -0.3718 -0.6218
   74SLPC  H16Y 6645   4.874  -0.252   8.963  0.7444 -0.9533 -2.3514
   74SLPC  C317 6646   4.752  -0.367   8.823  0.4238 -0.2222 -0.1314
   74SLPC  H17X 6647   4.792  -0.307   8.739  0.1860  1.6994  1.0723
   74SLPC  H17Y 6648   4.645  -0.393   8.810  0.4029 -1.0098  1.4234
   74SLPC  C318 6649   4.827  -0.504   8.828  0.0004 -0.1340  0.1347
   74SLPC  H18X 6650   4.810  -0.565   8.737 -1.4021  1.5821 -0.8195
   74SLPC  H18Y 6651   4.807  -0.558   8.923 -0.5991  0.7321  0.5162
   74SLPC  H18Z 6652   4.936  -0.482   8.821 -0.1214  0.7742  0.8958
   75SLPC     N 6653   4.417   2.386   6.314 -0.8018  0.0435 -0.0767
   75SLPC   C13 6654   4.549   2.332   6.364  0.7337  0.2204 -0.1603
   75SLPC  H13A 6655   4.516   2.263   6.441 -0.5543  0.5836 -0.3539
   75SLPC  H13B 6656   4.609   2.269   6.300  2.9225 -1.3908  3.1527
   75SLPC  H13C 6657   4.619   2.404   6.402  1.2191 -0.8837  1.1305
   75SLPC   C14 6658   4.331   2.282   6.255 -0.0838  0.4183  0.6345
   75SLPC  H14A 6659   4.386   2.235   6.175 -0.2551  2.4032 -0.7243
   75SLPC  H14B 6660   4.312   2.212   6.336  1.9467  0.0876  0.8777
   75SLPC  H14C 6661   4.243   2.333   6.219 -0.6053  0.7489  2.2708
   75SLPC   C15 6662   4.445   2.491   6.207 -0.4141  0.3240 -0.4865
   75SLPC  H15A 6663   4.357   2.526   6.154 -0.9095 -0.7669 -0.4036
   75SLPC  H15B 6664   4.496   2.577   6.247  0.7038  0.2647 -1.7018
   75SLPC  H15C 6665   4.504   2.443   6.130 -0.7022  0.1091 -0.5763
   75SLPC   C12 6666   4.337   2.462   6.419  0.4125 -0.4215  0.0260
   75SLPC  H12A 6667   4.246   2.501   6.374  1.3578  2.0986  0.1114
   75SLPC  H12B 6668   4.395   2.551   6.440 -0.2636 -0.1612  0.8468
   75SLPC   C11 6669   4.301   2.388   6.550 -0.0376 -0.4456  0.0576
   75SLPC  H11A 6670   4.274   2.461   6.629 -0.6678 -0.7640  0.1462
   75SLPC  H11B 6671   4.383   2.326   6.594 -1.7507 -1.4392  2.0686
   75SLPC     P 6672   4.038   2.378   6.531 -0.1978 -0.2049  0.0301
   75SLPC   O13 6673   4.028   2.505   6.451  0.1168 -0.0813 -0.1852
   75SLPC   O14 6674   3.936   2.270   6.500  0.5210 -0.6108 -0.3506
   75SLPC   O12 6675   4.183   2.305   6.521 -0.3387  0.1142 -0.3875
   75SLPC   O11 6676   4.035   2.416   6.684 -0.2864  0.7859 -0.3510
   75SLPC    C1 6677   3.964   2.339   6.784 -0.5107 -0.5238  0.5407
   75SLPC    HA 6678   3.976   2.229   6.768 -1.5948 -0.4279 -1.2024
   75SLPC    HB 6679   4.021   2.357   6.878  2.0835  0.6088 -1.1429
   75SLPC    C2 6680   3.818   2.387   6.808 -0.0912 -0.5554  0.2322
   75SLPC    HS 6681   3.769   2.396   6.709  0.6866  1.2706 -0.0319
   75SLPC   O21 6682   3.822   2.517   6.877  0.0129 -0.0401 -0.3924
   75SLPC   C21 6683   3.805   2.620   6.807 -0.4268 -0.3146  0.9873
   75SLPC   O22 6684   3.769   2.626   6.688 -1.0074 -0.1608 -0.2401
   75SLPC   C22 6685   3.838   2.758   6.879  0.7913  0.4003  0.4612
   75SLPC   H2R 6686   3.949   2.758   6.878  0.8114 -1.0025 -0.0734
   75SLPC   H2S 6687   3.797   2.839   6.814 -1.1555 -0.5354  0.4290
   75SLPC    C3 6688   3.742   2.277   6.887  0.0181 -0.8860 -0.1596
   75SLPC    HX 6689   3.762   2.177   6.843 -0.1930 -1.9628  2.0283
   75SLPC    HY 6690   3.634   2.302   6.878  0.7999  2.7825 -0.8203
   75SLPC   O31 6691   3.787   2.274   7.029 -0.1021 -0.2773 -0.1660
   75SLPC   C31 6692   3.732   2.357   7.113  0.7377 -0.3778  0.1230
   75SLPC   O32 6693   3.614   2.395   7.107  0.0976 -0.3161  0.1730
   75SLPC   C32 6694   3.835   2.410   7.207  0.3104 -0.1034  0.2202
   75SLPC   H2X 6695   3.883   2.500   7.164 -0.4015  1.0722  1.7802
   75SLPC   H2Y 6696   3.904   2.326   7.231 -0.1858 -0.0127  2.1801
   75SLPC   C23 6697   3.765   2.758   7.013  0.7048  0.4184 -0.0237
   75SLPC   H3R 6698   3.808   2.679   7.078  1.0608 -1.3907 -2.3529
   75SLPC   H3S 6699   3.655   2.744   7.000  1.0130 -0.1174 -2.4272
   75SLPC   C24 6700   3.787   2.897   7.070 -0.1182 -0.0427  0.0943
   75SLPC   H4R 6701   3.742   2.973   7.003 -1.5994 -0.1914  0.8876
   75SLPC   H4S 6702   3.894   2.927   7.079  0.0458 -0.4026 -0.6006
   75SLPC   C25 6703   3.727   2.921   7.205  0.3482  0.6904  0.1737
   75SLPC   H5R 6704   3.633   2.864   7.190  1.1642 -0.7164  0.2324
   75SLPC   H5S 6705   3.700   3.028   7.217  0.7260  0.7241  0.8228
   75SLPC   C26 6706   3.802   2.866   7.332 -0.0263 -0.2427 -0.0317
   75SLPC   H6R 6707   3.906   2.905   7.333 -1.1667  3.2250 -1.4124
   75SLPC   H6S 6708   3.798   2.755   7.338  0.6730 -0.3839 -1.5813
   75SLPC   C27 6709   3.741   2.908   7.467 -0.7942  0.4174 -0.3362
   75SLPC   H7R 6710   3.636   2.872   7.459 -0.6661 -0.1735  0.5021
   75SLPC   H7S 6711   3.746   3.019   7.465  0.9586  0.3604 -1.7519
   75SLPC   C28 6712   3.796   2.839   7.598 -0.0437 -0.7500 -0.0067
   75SLPC   H8R 6713   3.808   2.734   7.564 -2.2959 -0.4295 -2.0658
   75SLPC   H8S 6714   3.722   2.837   7.680 -0.8290 -1.9880 -0.7114
   75SLPC   C29 6715   3.934   2.898   7.626  0.2013 -0.4847 -0.2174
   75SLPC   H9R 6716   4.005   2.914   7.544 -0.7763 -0.0227 -0.9947
   75SLPC  C210 6717   3.959   2.947   7.750  0.0768 -0.3667 -0.3347
   75SLPC  H10R 6718   4.062   2.983   7.765  0.0697  1.3461 -3.4549
   75SLPC  C211 6719   3.883   2.961   7.879  0.1829  0.6244 -1.2835
   75SLPC  H11R 6720   3.873   2.859   7.922 -2.4570  0.6148 -1.7572
   75SLPC  H11S 6721   3.782   2.989   7.843 -0.6000 -1.2237 -0.6888
   75SLPC  C212 6722   3.924   3.064   7.981  0.2954 -0.1161  0.8583
   75SLPC  H12R 6723   3.999   3.136   7.944 -1.7177  1.8122  0.2812
   75SLPC  C213 6724   3.907   3.047   8.110 -0.4679 -0.2826 -0.3009
   75SLPC  H13R 6725   3.945   3.124   8.178  1.1045 -0.6434 -0.7182
   75SLPC  C214 6726   3.823   2.943   8.176  0.5250 -0.3187 -0.2913
   75SLPC  H14R 6727   3.884   2.852   8.197 -2.0469 -2.1019 -0.1012
   75SLPC  H14S 6728   3.737   2.917   8.111  0.5156 -0.6693 -0.1401
   75SLPC  C215 6729   3.763   2.996   8.304  0.2252  0.3701 -0.1582
   75SLPC  H15R 6730   3.725   3.100   8.290  2.4919  1.1970 -0.7905
   75SLPC  H15S 6731   3.843   3.022   8.377 -1.1793  2.1860  0.8117
   75SLPC  C216 6732   3.648   2.917   8.359 -0.0139 -0.0701 -0.9820
   75SLPC  H16R 6733   3.699   2.835   8.414 -1.6961  0.4194  1.4516
   75SLPC  H16S 6734   3.598   2.869   8.273  0.0741 -2.1894  0.0789
   75SLPC  C217 6735   3.548   2.989   8.458  0.3055 -0.4855 -0.1370
   75SLPC  H17R 6736   3.518   3.086   8.413  1.5817 -0.0737 -0.1277
   75SLPC  H17S 6737   3.597   3.005   8.556 -0.8092 -1.6017  0.6444
   75SLPC  C218 6738   3.410   2.931   8.479  0.3749  0.0139  0.4836
   75SLPC  H18R 6739   3.324   2.962   8.416 -1.5174 -2.6829  1.5018
   75SLPC  H18S 6740   3.375   2.956   8.582 -1.4472 -0.8037  0.1031
   75SLPC  H18T 6741   3.422   2.821   8.480  0.1804 -0.0091  1.1121
   75SLPC   C33 6742   3.772   2.450   7.344 -0.1248  0.2324 -0.6061
   75SLPC   H3X 6743   3.858   2.485   7.405 -0.5319 -0.6662  0.5072
   75SLPC   H3Y 6744   3.700   2.534   7.331 -1.0127 -0.3200  0.5950
   75SLPC   C34 6745   3.702   2.334   7.427 -0.6034  0.1248  0.3672
   75SLPC   H4X 6746   3.763   2.242   7.418  0.3909  0.7397  0.6683
   75SLPC   H4Y 6747   3.600   2.313   7.388 -0.3597 -0.9889  0.3144
   75SLPC   C35 6748   3.681   2.350   7.578  0.3996 -0.2530  0.5231
   75SLPC   H5X 6749   3.642   2.258   7.626 -1.1596  0.6715  1.0830
   75SLPC   H5Y 6750   3.599   2.423   7.592  0.7974  0.3254 -0.0555
   75SLPC   C36 6751   3.794   2.429   7.658  0.6565  0.3690  0.3776
   75SLPC   H6X 6752   3.823   2.525   7.609  0.7063  0.3452  0.3606
   75SLPC   H6Y 6753   3.885   2.366   7.664 -0.0936 -0.6551  1.3668
   75SLPC   C37 6754   3.754   2.466   7.803 -0.4146 -0.2446 -0.3157
   75SLPC   H7X 6755   3.741   2.367   7.850  2.0406 -3.2349 -5.1164
   75SLPC   H7Y 6756   3.660   2.524   7.816  0.9470  2.2832 -0.8791
   75SLPC   C38 6757   3.864   2.551   7.871 -0.6861 -0.1351 -0.1164
   75SLPC   H8X 6758   3.873   2.651   7.823  2.7219 -0.1809  0.1807
   75SLPC   H8Y 6759   3.962   2.502   7.852  0.1891  1.5572 -0.1634
   75SLPC   C39 6760   3.863   2.572   8.023  0.4856 -0.5768  0.2161
   75SLPC   H9X 6761   3.782   2.646   8.040 -0.5214 -1.2461 -1.4510
   75SLPC   H9Y 6762   3.961   2.619   8.045  1.2709 -0.1392 -3.4253
   75SLPC  C310 6763   3.831   2.443   8.094  0.0757 -0.4721 -0.5255
   75SLPC  H10X 6764   3.921   2.378   8.108  0.6426  0.8583  3.0603
   75SLPC  H10Y 6765   3.753   2.387   8.039  1.2937  0.6476 -3.6405
   75SLPC  C311 6766   3.777   2.490   8.228  0.1959  0.3223  0.7325
   75SLPC  H11X 6767   3.693   2.563   8.222 -1.8692 -1.5678  3.5667
   75SLPC  H11Y 6768   3.859   2.542   8.283  0.8535  1.2352 -1.0549
   75SLPC  C312 6769   3.727   2.367   8.307 -0.6459 -0.6205 -0.3416
   75SLPC  H12X 6770   3.815   2.320   8.355  0.3090  2.1299  0.7984
   75SLPC  H12Y 6771   3.678   2.295   8.238 -1.9143  0.6276 -0.7943
   75SLPC  C313 6772   3.620   2.410   8.403 -0.6094 -0.0911  0.2936
   75SLPC  H13X 6773   3.590   2.315   8.452 -0.5927  0.2930  1.0767
   75SLPC  H13Y 6774   3.534   2.445   8.342 -0.1904 -1.3123 -1.0414
   75SLPC  C314 6775   3.662   2.500   8.518  0.4969 -0.3837  0.6440
   75SLPC  H14X 6776   3.693   2.596   8.473  0.8184 -0.9369 -0.3375
   75SLPC  H14Y 6777   3.748   2.457   8.574 -0.0603  0.8169  2.5167
   75SLPC  C315 6778   3.550   2.541   8.621 -0.5629  0.1789  0.0472
   75SLPC  H15X 6779   3.512   2.444   8.661 -1.5975 -0.2039 -1.7822
   75SLPC  H15Y 6780   3.465   2.581   8.563 -1.0501 -0.8693  0.0095
   75SLPC  C316 6781   3.582   2.638   8.729 -0.4152  0.0809 -0.0467
   75SLPC  H16X 6782   3.598   2.739   8.685 -2.9673  0.1320 -0.9904
   75SLPC  H16Y 6783   3.681   2.613   8.774 -0.7158 -0.9748  0.0507
   75SLPC  C317 6784   3.485   2.645   8.847 -0.2355  0.2830  0.3351
   75SLPC  H17X 6785   3.473   2.540   8.883  0.3339 -0.1746 -0.7426
   75SLPC  H17Y 6786   3.381   2.675   8.820 -0.1727  0.1739 -0.0388
   75SLPC  C318 6787   3.514   2.746   8.961  1.1358 -0.1484 -1.1427
   75SLPC  H18X 6788   3.454   2.711   9.048 -2.5311 -0.8055 -3.7090
   75SLPC  H18Y 6789   3.477   2.847   8.933 -0.6764 -0.2409  0.6783
   75SLPC  H18Z 6790   3.618   2.732   8.998  0.3143  0.1932  1.5137
   76SLPC     N 6791   6.372   0.322   6.038  0.6163 -0.5172 -0.2387
   76SLPC   C13 6792   6.229   0.268   6.013 -0.6366  0.2354  0.0296
   76SLPC  H13A 6793   6.222   0.238   5.909  0.9940  1.2480 -0.4037
   76SLPC  H13B 6794   6.191   0.181   6.064 -3.0120  0.9420 -0.4380
   76SLPC  H13C 6795   6.155   0.346   6.021 -0.8032  0.0240  0.6393
   76SLPC   C14 6796   6.402   0.410   5.922  0.9924  0.0224 -0.7810
   76SLPC  H14A 6797   6.336   0.495   5.927 -1.1395 -1.5844  1.6209
   76SLPC  H14B 6798   6.506   0.436   5.914  0.8015  1.3262  0.6358
   76SLPC  H14C 6799   6.373   0.356   5.833  0.3528 -0.7880 -0.1067
   76SLPC   C15 6800   6.462   0.204   6.028 -0.1115  0.5807 -0.5432
   76SLPC  H15A 6801   6.436   0.147   5.940  1.0190 -0.1816 -0.4043
   76SLPC  H15B 6802   6.562   0.244   6.015  0.6120 -0.5498  1.1619
   76SLPC  H15C 6803   6.457   0.152   6.122 -5.7492  1.1377 -0.2099
   76SLPC   C12 6804   6.373   0.389   6.171 -0.1137  0.3157 -0.1182
   76SLPC  H12A 6805   6.474   0.418   6.194  0.0814 -1.0356  0.8228
   76SLPC  H12B 6806   6.336   0.316   6.241  0.0815 -1.7988 -2.0987
   76SLPC   C11 6807   6.294   0.527   6.182 -1.3571 -0.4065  0.2478
   76SLPC  H11A 6808   6.319   0.580   6.088 -1.4402  1.8433  1.4360
   76SLPC  H11B 6809   6.327   0.605   6.254 -0.6583  0.9289 -1.4358
   76SLPC     P 6810   6.079   0.507   6.319 -0.0578 -0.0067  0.3643
   76SLPC   O13 6811   6.116   0.636   6.398  1.4901 -0.3133 -0.4826
   76SLPC   O14 6812   5.937   0.486   6.297  0.8449 -0.0702 -0.5258
   76SLPC   O12 6813   6.153   0.497   6.185 -0.1506 -0.5591  0.4301
   76SLPC   O11 6814   6.146   0.386   6.398  0.0193  0.0043  0.1000
   76SLPC    C1 6815   6.087   0.257   6.403  0.3261  0.1021 -0.2587
   76SLPC    HA 6816   6.023   0.232   6.316 -0.5061  1.0729  0.0506
   76SLPC    HB 6817   6.168   0.184   6.381 -1.1031 -1.7296  0.2880
   76SLPC    C2 6818   6.033   0.224   6.547  0.2599  1.0185  0.0833
   76SLPC    HS 6819   5.936   0.278   6.555 -1.8309 -1.7188 -3.4978
   76SLPC   O21 6820   6.124   0.265   6.651 -0.1388  0.2335 -0.4451
   76SLPC   C21 6821   6.076   0.332   6.749  0.0451  0.0716  0.0356
   76SLPC   O22 6822   5.959   0.360   6.770 -0.1610 -0.2775 -0.2149
   76SLPC   C22 6823   6.191   0.360   6.851  0.5253  0.0844 -0.2588
   76SLPC   H2R 6824   6.284   0.322   6.805  0.4571 -2.0520  1.2151
   76SLPC   H2S 6825   6.195   0.469   6.874  0.4673 -0.2599  1.5216
   76SLPC    C3 6826   5.995   0.066   6.545 -0.4290 -1.2508 -0.7767
   76SLPC    HX 6827   6.079   0.006   6.506 -0.4898 -1.5120 -0.5084
   76SLPC    HY 6828   5.918   0.050   6.467 -0.7893  0.7830 -0.9041
   76SLPC   O31 6829   5.938   0.020   6.675  0.0005  0.5842 -0.3830
   76SLPC   C31 6830   6.022  -0.038   6.751 -0.7964 -0.1609 -0.5570
   76SLPC   O32 6831   6.144  -0.059   6.727  0.1252  0.5778 -0.0307
   76SLPC   C32 6832   5.957  -0.076   6.889 -0.8637  0.1471  0.2336
   76SLPC   H2X 6833   5.848  -0.085   6.875 -0.8250 -0.7975  0.4547
   76SLPC   H2Y 6834   5.970   0.008   6.960 -1.2126  1.5722 -1.3145
   76SLPC   C23 6835   6.166   0.279   6.983 -0.4247 -0.0080 -0.0048
   76SLPC   H3R 6836   6.269   0.282   7.025  0.8424  0.9630 -2.8602
   76SLPC   H3S 6837   6.139   0.173   6.962  2.3192 -0.5560 -1.1999
   76SLPC   C24 6838   6.085   0.355   7.089 -0.0276 -0.0978  0.1313
   76SLPC   H4R 6839   6.058   0.282   7.168  1.3041  0.0307  0.7239
   76SLPC   H4S 6840   5.993   0.383   7.032  0.0258  2.0232  1.0231
   76SLPC   C25 6841   6.154   0.475   7.160  0.0572 -0.5298 -0.0704
   76SLPC   H5R 6842   6.161   0.558   7.087 -2.1947 -0.2810 -0.0590
   76SLPC   H5S 6843   6.253   0.435   7.191  0.1674 -2.7639 -2.9016
   76SLPC   C26 6844   6.073   0.519   7.286  0.4670 -0.3198 -0.3751
   76SLPC   H6R 6845   6.033   0.427   7.332 -1.0450  0.9536  0.9655
   76SLPC   H6S 6846   5.993   0.580   7.239 -0.3709 -0.3968  0.9276
   76SLPC   C27 6847   6.154   0.591   7.384  0.6834 -0.1561  0.1805
   76SLPC   H7R 6848   6.198   0.685   7.345  1.7738 -1.3081 -1.4949
   76SLPC   H7S 6849   6.248   0.531   7.385  0.2709 -0.8112  0.3481
   76SLPC   C28 6850   6.105   0.628   7.524  0.3167 -0.7824 -0.0287
   76SLPC   H8R 6851   6.199   0.673   7.563 -0.0176  0.3388 -0.5030
   76SLPC   H8S 6852   6.029   0.708   7.515  1.6579  0.6163  0.5912
   76SLPC   C29 6853   6.026   0.528   7.605  0.3860  0.2467 -0.4870
   76SLPC   H9R 6854   5.942   0.497   7.543  1.7410 -0.9337 -1.8178
   76SLPC  C210 6855   6.048   0.466   7.728 -0.4469  0.1289  0.2428
   76SLPC  H10R 6856   5.986   0.380   7.757 -0.2723  0.3248  1.2377
   76SLPC  C211 6857   6.174   0.488   7.814 -0.0208 -0.7907  0.7217
   76SLPC  H11R 6858   6.260   0.467   7.747  0.5926  0.4899  1.0626
   76SLPC  H11S 6859   6.189   0.414   7.895  1.6741 -1.4180 -0.1252
   76SLPC  C212 6860   6.191   0.633   7.863  0.3796 -0.5817 -0.2522
   76SLPC  H12R 6861   6.116   0.700   7.817  0.7848 -1.0983 -1.7117
   76SLPC  C213 6862   6.266   0.680   7.962 -0.0403 -0.7713 -0.5693
   76SLPC  H13R 6863   6.260   0.787   7.987 -0.0018 -0.9956  0.4341
   76SLPC  C214 6864   6.365   0.600   8.044  0.1161  0.2033 -0.1861
   76SLPC  H14R 6865   6.450   0.668   8.065 -1.1879  1.7099  0.4327
   76SLPC  H14S 6866   6.385   0.507   7.986  0.9303  2.3590 -3.6502
   76SLPC  C215 6867   6.304   0.559   8.179  1.1060 -0.2781  0.2639
   76SLPC  H15R 6868   6.357   0.467   8.209 -1.2156 -1.6612  0.3571
   76SLPC  H15S 6869   6.199   0.523   8.178  1.3238 -0.9688  1.5530
   76SLPC  C216 6870   6.331   0.656   8.299 -0.2621  0.1209 -0.4082
   76SLPC  H16R 6871   6.271   0.747   8.277  0.2756  0.6241  0.1830
   76SLPC  H16S 6872   6.438   0.682   8.311  0.3783 -1.9339 -1.1727
   76SLPC  C217 6873   6.280   0.594   8.427 -0.4590 -0.0434 -0.1253
   76SLPC  H17R 6874   6.309   0.487   8.435 -1.8407 -0.4078  0.3353
   76SLPC  H17S 6875   6.169   0.587   8.440 -0.2648  1.6959  4.4122
   76SLPC  C218 6876   6.322   0.680   8.551  0.3541  0.8289 -0.0771
   76SLPC  H18R 6877   6.433   0.686   8.555  0.6989 -2.9458 -0.1303
   76SLPC  H18S 6878   6.275   0.641   8.644  1.0402 -0.2729 -0.1670
   76SLPC  H18T 6879   6.283   0.784   8.546 -0.4637  0.4949 -0.9244
   76SLPC   C33 6880   6.011  -0.211   6.949  0.1286 -0.1243  0.5687
   76SLPC   H3X 6881   6.121  -0.202   6.960  0.1238  1.5882 -0.5198
   76SLPC   H3Y 6882   5.999  -0.291   6.872 -1.4498  0.8913 -0.2981
   76SLPC   C34 6883   5.947  -0.247   7.079 -0.2301 -0.3899 -0.0785
   76SLPC   H4X 6884   5.841  -0.279   7.061  0.0764 -1.8541  0.5576
   76SLPC   H4Y 6885   5.949  -0.160   7.147  1.0894  0.7674 -1.5476
   76SLPC   C35 6886   6.014  -0.377   7.134 -0.2352 -0.8139 -0.2135
   76SLPC   H5X 6887   6.116  -0.354   7.172 -0.0889 -1.3906 -0.2573
   76SLPC   H5Y 6888   6.021  -0.464   7.066 -1.3262 -1.8715  0.9673
   76SLPC   C36 6889   5.927  -0.423   7.252  0.1245  0.5293 -0.1599
   76SLPC   H6X 6890   5.829  -0.472   7.239 -0.3212  0.7452  1.9637
   76SLPC   H6Y 6891   5.904  -0.335   7.316  2.5090  1.4325 -0.4056
   76SLPC   C37 6892   6.002  -0.530   7.342  0.6304  0.1015  0.3422
   76SLPC   H7X 6893   6.100  -0.488   7.374  2.0987 -0.4684 -3.0260
   76SLPC   H7Y 6894   6.015  -0.615   7.272 -1.0571 -1.1339  1.4360
   76SLPC   C38 6895   5.931  -0.591   7.471 -0.5547  0.2878  1.3057
   76SLPC   H8X 6896   5.991  -0.674   7.514 -0.6734 -1.0942 -1.0302
   76SLPC   H8Y 6897   5.836  -0.635   7.434 -0.5270  0.9887  0.3677
   76SLPC   C39 6898   5.937  -0.475   7.565 -0.0317  0.6536  0.4797
   76SLPC   H9X 6899   5.879  -0.389   7.527  2.0181  1.5180 -0.8453
   76SLPC   H9Y 6900   6.041  -0.435   7.557 -0.3102  1.7266  1.8485
   76SLPC  C310 6901   5.900  -0.500   7.714 -0.0592 -0.5560  0.6189
   76SLPC  H10X 6902   5.971  -0.579   7.745 -1.0935 -1.3026  1.1661
   76SLPC  H10Y 6903   5.801  -0.550   7.726  0.4653 -1.6827  0.4161
   76SLPC  C311 6904   5.902  -0.380   7.808 -0.0546 -0.1983  0.1903
   76SLPC  H11X 6905   5.831  -0.310   7.757  1.4041  1.5134  0.4078
   76SLPC  H11Y 6906   6.001  -0.330   7.811 -0.7352  1.1872  0.3874
   76SLPC  C312 6907   5.846  -0.393   7.948  0.5861 -0.5517 -0.6938
   76SLPC  H12X 6908   5.752  -0.452   7.949 -0.3465  0.8870  0.6467
   76SLPC  H12Y 6909   5.817  -0.293   7.988 -1.8848 -1.0261 -1.1434
   76SLPC  C313 6910   5.941  -0.466   8.041  0.0181  0.1803 -0.1607
   76SLPC  H13X 6911   5.960  -0.570   8.005 -0.7445 -0.1028  0.2149
   76SLPC  H13Y 6912   5.875  -0.464   8.131 -2.3029  3.0125 -1.7612
   76SLPC  C314 6913   6.069  -0.399   8.071  0.4614 -0.0205 -0.2309
   76SLPC  H14X 6914   6.041  -0.294   8.093 -2.1475 -1.1514  2.6022
   76SLPC  H14Y 6915   6.138  -0.420   7.986 -2.2099 -1.2334 -2.2627
   76SLPC  C315 6916   6.126  -0.447   8.205  0.1303  0.1025 -0.7867
   76SLPC  H15X 6917   6.103  -0.555   8.216 -0.2614  0.3056  0.4937
   76SLPC  H15Y 6918   6.076  -0.395   8.289 -1.3422  0.1259 -1.6515
   76SLPC  C316 6919   6.280  -0.428   8.205 -0.0048  0.0529  0.6860
   76SLPC  H16X 6920   6.324  -0.420   8.306 -1.2300 -1.7087  1.4021
   76SLPC  H16Y 6921   6.302  -0.326   8.166  1.7432  0.2667  2.0905
   76SLPC  C317 6922   6.355  -0.536   8.125 -0.3064  0.2282  0.0629
   76SLPC  H17X 6923   6.279  -0.588   8.063 -2.8103  0.6214  2.6476
   76SLPC  H17Y 6924   6.397  -0.613   8.193 -1.0135 -1.7660 -1.6425
   76SLPC  C318 6925   6.476  -0.486   8.043  0.8506 -0.4375 -0.1066
   76SLPC  H18X 6926   6.547  -0.570   8.024  0.9534 -0.8169  1.7429
   76SLPC  H18Y 6927   6.532  -0.401   8.090  0.2496  2.6896 -4.4556
   76SLPC  H18Z 6928   6.433  -0.439   7.952 -0.2552  0.1718  0.7144
   77SLPC     N 6929   2.578   6.149   6.448  0.1046 -0.3170 -0.0565
   77SLPC   C13 6930   2.518   6.043   6.539 -0.1813 -0.9446  0.1308
   77SLPC  H13A 6931   2.459   5.967   6.490  1.3162 -0.3656 -2.8117
   77SLPC  H13B 6932   2.598   5.986   6.585  0.8910 -0.6310 -1.2690
   77SLPC  H13C 6933   2.453   6.083   6.616 -0.2043 -1.7917  0.5608
   77SLPC   C14 6934   2.634   6.074   6.329 -0.6441  0.2476 -0.3698
   77SLPC  H14A 6935   2.553   6.022   6.280 -1.2964 -0.0273  0.9555
   77SLPC  H14B 6936   2.677   6.147   6.261  1.8136 -0.6895  0.0652
   77SLPC  H14C 6937   2.714   6.006   6.354  2.3511  3.5966  0.0636
   77SLPC   C15 6938   2.694   6.221   6.520  0.2246  0.5685 -0.4067
   77SLPC  H15A 6939   2.779   6.239   6.456  0.3712  1.3288 -0.0013
   77SLPC  H15B 6940   2.658   6.313   6.562  0.2637  0.6041 -0.4503
   77SLPC  H15C 6941   2.728   6.148   6.592  1.4974 -1.3088 -2.7116
   77SLPC   C12 6942   2.474   6.248   6.407 -0.3816 -0.3616  0.0212
   77SLPC  H12A 6943   2.417   6.193   6.334  0.4996  1.1068 -1.8707
   77SLPC  H12B 6944   2.529   6.321   6.348  0.6310 -0.9184  0.2583
   77SLPC   C11 6945   2.385   6.323   6.515 -0.0407 -0.6234  0.9859
   77SLPC  H11A 6946   2.315   6.251   6.563 -3.0935  1.0697 -0.6376
   77SLPC  H11B 6947   2.314   6.385   6.458  0.6851 -1.1360 -0.5257
   77SLPC     P 6948   2.521   6.537   6.593 -0.0153  0.2411 -0.1509
   77SLPC   O13 6949   2.645   6.530   6.517  0.7743 -0.2217 -0.2492
   77SLPC   O14 6950   2.413   6.623   6.544 -0.4108  0.1652 -0.7389
   77SLPC   O12 6951   2.459   6.399   6.616 -0.1127  0.8565  0.1545
   77SLPC   O11 6952   2.558   6.581   6.738  0.0881 -0.4776 -0.0836
   77SLPC    C1 6953   2.446   6.600   6.830  0.4647 -0.4328 -0.2643
   77SLPC    HA 6954   2.391   6.687   6.789 -1.4066 -2.2902 -1.9202
   77SLPC    HB 6955   2.378   6.513   6.825 -1.0299  0.7221 -0.5998
   77SLPC    C2 6956   2.510   6.627   6.977 -0.0998  0.3665  0.0246
   77SLPC    HS 6957   2.579   6.543   7.000 -0.8836 -0.3840 -0.3141
   77SLPC   O21 6958   2.396   6.629   7.072  0.2556 -0.0253 -0.4757
   77SLPC   C21 6959   2.419   6.609   7.202  0.5270  0.0745  0.8510
   77SLPC   O22 6960   2.524   6.570   7.253  0.1612 -0.2644  0.0810
   77SLPC   C22 6961   2.300   6.669   7.282  0.5509 -0.4861 -0.7002
   77SLPC   H2R 6962   2.230   6.728   7.220 -1.4364 -0.9795  0.9683
   77SLPC   H2S 6963   2.253   6.579   7.329  2.0120 -0.0507  1.7683
   77SLPC    C3 6964   2.593   6.752   6.989 -0.4103 -0.3268 -0.1003
   77SLPC    HX 6965   2.661   6.743   6.902  0.8668 -0.7449  0.9132
   77SLPC    HY 6966   2.664   6.758   7.074  0.2501  1.7606 -0.7370
   77SLPC   O31 6967   2.511   6.877   6.990 -0.5038 -0.4001  0.0580
   77SLPC   C31 6968   2.520   6.953   6.884 -0.2001  0.4622 -0.2472
   77SLPC   O32 6969   2.585   6.932   6.784 -0.5866  0.1669  0.2431
   77SLPC   C32 6970   2.435   7.076   6.922  0.0451  0.7045 -0.3263
   77SLPC   H2X 6971   2.331   7.039   6.931  0.1894  0.0629 -1.1416
   77SLPC   H2Y 6972   2.436   7.149   6.837 -0.8408  0.2262 -0.7662
   77SLPC   C23 6973   2.362   6.769   7.384 -0.1003 -0.0653 -0.3670
   77SLPC   H3R 6974   2.438   6.832   7.333 -0.3576  1.4829  1.0694
   77SLPC   H3S 6975   2.410   6.700   7.456 -1.3688 -1.7594 -1.0732
   77SLPC   C24 6976   2.257   6.859   7.455  0.2186 -0.0604  0.1119
   77SLPC   H4R 6977   2.165   6.802   7.479  0.1906 -0.8345 -1.7078
   77SLPC   H4S 6978   2.226   6.934   7.379 -1.9836 -0.9707  0.0514
   77SLPC   C25 6979   2.309   6.925   7.578  0.1987  0.2056 -0.7156
   77SLPC   H5R 6980   2.364   6.844   7.631 -0.0085 -0.1409 -1.0270
   77SLPC   H5S 6981   2.235   6.973   7.646  1.6101 -0.5113  1.4259
   77SLPC   C26 6982   2.403   7.043   7.559  0.2001  0.2528 -0.3370
   77SLPC   H6R 6983   2.379   7.109   7.473  3.6243  1.4087 -0.5873
   77SLPC   H6S 6984   2.508   7.010   7.542  0.3743  0.7541 -0.2783
   77SLPC   C27 6985   2.389   7.159   7.669 -0.6109 -0.2631  0.1348
   77SLPC   H7R 6986   2.286   7.201   7.671  0.1150  1.5381  1.0951
   77SLPC   H7S 6987   2.463   7.233   7.631 -0.4433 -0.8254 -0.6746
   77SLPC   C28 6988   2.439   7.112   7.805 -0.5166 -0.3865  0.1116
   77SLPC   H8R 6989   2.536   7.060   7.793 -1.0077 -0.8001 -2.5798
   77SLPC   H8S 6990   2.365   7.037   7.841 -1.3433 -0.3198 -1.3563
   77SLPC   C29 6991   2.463   7.227   7.901  0.8427  0.7919  0.0258
   77SLPC   H9R 6992   2.567   7.243   7.934  0.6140 -1.9692  2.4542
   77SLPC  C210 6993   2.372   7.307   7.961 -0.4830 -0.4952 -0.3611
   77SLPC  H10R 6994   2.400   7.390   8.027 -5.5116  0.4668  0.9971
   77SLPC  C211 6995   2.224   7.291   7.943  0.5394 -0.6294 -0.1980
   77SLPC  H11R 6996   2.183   7.248   8.037  2.7495 -2.8023 -0.1607
   77SLPC  H11S 6997   2.198   7.222   7.860 -1.2634  2.7385 -2.6939
   77SLPC  C212 6998   2.164   7.423   7.899  0.2912 -0.6468 -0.4278
   77SLPC  H12R 6999   2.215   7.475   7.817 -1.5129  0.8538 -0.6717
   77SLPC  C213 7000   2.061   7.496   7.955 -0.0986 -0.1813 -0.1463
   77SLPC  H13R 7001   2.045   7.597   7.915  0.7438  0.5148  1.1973
   77SLPC  C214 7002   1.983   7.453   8.076  0.0136  0.5617  0.0135
   77SLPC  H14R 7003   1.973   7.528   8.157  0.4913 -0.8519  1.4410
   77SLPC  H14S 7004   2.027   7.367   8.132 -0.0479  0.4189 -0.1544
   77SLPC  C215 7005   1.835   7.422   8.036 -0.3764 -0.0475 -0.1977
   77SLPC  H15R 7006   1.830   7.320   7.992  1.3747  0.0927 -0.8048
   77SLPC  H15S 7007   1.789   7.500   7.972 -1.3319 -0.3249  0.1329
   77SLPC  C216 7008   1.745   7.409   8.155  0.1221 -0.6092 -0.3498
   77SLPC  H16R 7009   1.754   7.486   8.235  2.5033 -1.8661  0.6845
   77SLPC  H16S 7010   1.768   7.311   8.202  0.1710 -0.9486 -1.0608
   77SLPC  C217 7011   1.596   7.398   8.124  0.2230 -0.3915 -0.5554
   77SLPC  H17R 7012   1.574   7.325   8.043 -3.3014 -0.5068  0.3350
   77SLPC  H17S 7013   1.573   7.500   8.085  3.0055  0.3275 -0.5513
   77SLPC  C218 7014   1.516   7.390   8.245 -0.1813  0.1310  0.3623
   77SLPC  H18R 7015   1.416   7.350   8.221 -0.7834  0.8539  1.5582
   77SLPC  H18S 7016   1.503   7.485   8.301  0.1721 -0.4855  1.5284
   77SLPC  H18T 7017   1.559   7.307   8.306  1.6103  0.2857 -0.6115
   77SLPC   C33 7018   2.490   7.151   7.051  0.1252 -0.2092  0.9845
   77SLPC   H3X 7019   2.597   7.166   7.029  0.0847  0.7817  1.4018
   77SLPC   H3Y 7020   2.476   7.089   7.143 -0.3799 -2.7733 -0.7062
   77SLPC   C34 7021   2.419   7.283   7.080  0.4103 -0.3023  0.0893
   77SLPC   H4X 7022   2.317   7.276   7.124  0.4864 -1.8286  0.0891
   77SLPC   H4Y 7023   2.393   7.320   6.978  2.1584  0.0181 -0.2735
   77SLPC   C35 7024   2.509   7.387   7.139 -0.2069  0.5941  0.2177
   77SLPC   H5X 7025   2.559   7.447   7.060  1.0243  0.1182  0.6157
   77SLPC   H5Y 7026   2.595   7.342   7.193  0.1872  0.6035 -0.3945
   77SLPC   C36 7027   2.427   7.479   7.238  0.0611  0.0555  0.5820
   77SLPC   H6X 7028   2.384   7.413   7.316  0.2831  0.6668  1.2350
   77SLPC   H6Y 7029   2.341   7.529   7.188  0.5437 -0.8167 -1.1940
   77SLPC   C37 7030   2.522   7.587   7.297 -0.4109 -0.6811  0.0910
   77SLPC   H7X 7031   2.534   7.668   7.222  2.1967 -1.4104 -0.4056
   77SLPC   H7Y 7032   2.620   7.534   7.304 -0.1676 -0.0818  1.8233
   77SLPC   C38 7033   2.483   7.632   7.441  0.4764 -0.1380 -0.2878
   77SLPC   H8X 7034   2.473   7.536   7.497  0.4870  0.4125  0.6688
   77SLPC   H8Y 7035   2.384   7.679   7.425  0.9607  1.2211  0.6323
   77SLPC   C39 7036   2.578   7.733   7.514 -0.4592 -0.4626 -0.0254
   77SLPC   H9X 7037   2.549   7.828   7.463 -0.5694 -0.6262 -0.2706
   77SLPC   H9Y 7038   2.679   7.697   7.486  0.0750  0.1468  1.0648
   77SLPC  C310 7039   2.563   7.742   7.669 -0.7030  0.2604 -0.0007
   77SLPC  H10X 7040   2.643   7.808   7.710 -1.9476  3.2049 -1.9654
   77SLPC  H10Y 7041   2.559   7.637   7.704 -0.2073 -0.9680 -3.3245
   77SLPC  C311 7042   2.429   7.805   7.710  0.2345  0.1840 -0.9259
   77SLPC  H11X 7043   2.342   7.749   7.668 -0.7281  2.3572 -2.0024
   77SLPC  H11Y 7044   2.421   7.910   7.674 -2.6711  0.3493 -0.0750
   77SLPC  C312 7045   2.420   7.815   7.866 -0.4369 -0.6967 -0.8319
   77SLPC  H12X 7046   2.501   7.886   7.894  0.2664 -1.9029  0.2795
   77SLPC  H12Y 7047   2.439   7.720   7.919  0.8426  0.9168  1.8550
   77SLPC  C313 7048   2.290   7.871   7.924 -0.1478 -0.4001 -0.4339
   77SLPC  H13X 7049   2.205   7.799   7.921 -0.9621  0.5321 -0.1571
   77SLPC  H13Y 7050   2.255   7.959   7.865  3.1565  1.7852  0.5638
   77SLPC  C314 7051   2.312   7.925   8.069 -0.4215  0.0218  0.2208
   77SLPC  H14X 7052   2.385   8.008   8.080  0.8161 -1.0036 -0.0477
   77SLPC  H14Y 7053   2.332   7.837   8.133  0.7930 -0.8970 -1.3451
   77SLPC  C315 7054   2.167   7.965   8.114 -0.4086  0.8402  0.3670
   77SLPC  H15X 7055   2.132   8.038   8.037  1.7041 -0.1244 -1.6325
   77SLPC  H15Y 7056   2.179   8.017   8.211 -0.6849  2.0300 -0.2060
   77SLPC  C316 7057   2.069   7.844   8.134  0.0088 -1.1336 -0.5856
   77SLPC  H16X 7058   2.128   7.750   8.136  0.8961 -0.7294 -3.4525
   77SLPC  H16Y 7059   2.002   7.836   8.046 -1.1343  1.6237 -0.0680
   77SLPC  C317 7060   1.989   7.859   8.265  0.1904  0.0334  0.3134
   77SLPC  H17X 7061   1.915   7.940   8.249  0.3798  0.0091 -0.7883
   77SLPC  H17Y 7062   2.047   7.904   8.348 -2.6737  2.1974  1.3038
   77SLPC  C318 7063   1.911   7.738   8.322  0.2115 -0.1969  0.5414
   77SLPC  H18X 7064   1.862   7.694   8.232  0.7240  1.0914 -0.3969
   77SLPC  H18Y 7065   1.824   7.772   8.382 -1.3074 -2.1615 -0.4234
   77SLPC  H18Z 7066   1.972   7.663   8.377  1.4660 -0.1004 -0.6585
   78SLPC     N 7067   4.655   1.662   5.878 -0.3776 -0.0000  0.0798
   78SLPC   C13 7068   4.578   1.788   5.845  0.5279 -0.1588  0.2447
   78SLPC  H13A 7069   4.554   1.832   5.941  2.5635  1.8104 -0.0510
   78SLPC  H13B 7070   4.631   1.868   5.795  0.0143 -0.4045 -0.7056
   78SLPC  H13C 7071   4.487   1.768   5.791 -1.4431  2.1875  2.4491
   78SLPC   C14 7072   4.738   1.640   5.758  0.1038  0.7863 -0.9525
   78SLPC  H14A 7073   4.674   1.654   5.671 -0.5597 -0.1111 -0.6116
   78SLPC  H14B 7074   4.828   1.701   5.760 -0.2121  1.2475  1.5870
   78SLPC  H14C 7075   4.773   1.539   5.753 -0.2196  0.6775 -1.0697
   78SLPC   C15 7076   4.551   1.557   5.890  0.2872  0.0862 -0.2199
   78SLPC  H15A 7077   4.593   1.470   5.938 -0.6432  0.5686  1.5634
   78SLPC  H15B 7078   4.473   1.590   5.957  1.9015 -0.3700  2.0143
   78SLPC  H15C 7079   4.508   1.534   5.793 -1.9948  0.9123  0.5340
   78SLPC   C12 7080   4.741   1.670   6.002  0.1992 -0.2500  0.2409
   78SLPC  H12A 7081   4.815   1.749   5.991  0.9819 -0.8829  0.8221
   78SLPC  H12B 7082   4.800   1.581   6.017 -0.4277 -0.6641  0.2681
   78SLPC   C11 7083   4.678   1.707   6.144  0.2372  0.4952  0.2065
   78SLPC  H11A 7084   4.635   1.809   6.143  0.1506  0.4521 -0.4611
   78SLPC  H11B 7085   4.768   1.716   6.210  0.7007  2.1919 -0.6156
   78SLPC     P 7086   4.624   1.483   6.288  0.2232  0.0653  0.2138
   78SLPC   O13 7087   4.501   1.403   6.306 -0.2502 -0.2872 -0.2375
   78SLPC   O14 7088   4.743   1.410   6.224  0.0725  0.0603  0.0080
   78SLPC   O12 7089   4.587   1.605   6.195  0.3430 -0.7425  0.8319
   78SLPC   O11 7090   4.656   1.541   6.420 -0.4100 -0.4645  0.0799
   78SLPC    C1 7091   4.558   1.604   6.501  0.1746 -0.2592 -0.0114
   78SLPC    HA 7092   4.493   1.661   6.432 -0.6497  1.3181  1.9483
   78SLPC    HB 7093   4.503   1.537   6.571  0.8672  2.1179  3.0524
   78SLPC    C2 7094   4.627   1.715   6.589 -0.2907  0.4837 -0.8691
   78SLPC    HS 7095   4.663   1.792   6.518 -0.1484  1.1217 -0.1272
   78SLPC   O21 7096   4.737   1.649   6.655  0.0832  0.6542  0.2048
   78SLPC   C21 7097   4.853   1.707   6.659  0.0769 -0.1901 -0.0488
   78SLPC   O22 7098   4.893   1.810   6.595  0.1047 -0.0450  0.9204
   78SLPC   C22 7099   4.921   1.654   6.788 -0.2189  0.7125 -0.2709
   78SLPC   H2R 7100   4.841   1.623   6.859 -0.2325  1.8639  0.2289
   78SLPC   H2S 7101   4.971   1.560   6.756 -1.7471 -0.4094  0.4628
   78SLPC    C3 7102   4.531   1.767   6.690  0.3092 -0.6780 -0.6876
   78SLPC    HX 7103   4.477   1.685   6.743  0.3410 -0.5290 -0.4248
   78SLPC    HY 7104   4.462   1.846   6.654  0.2365  0.4988  1.8447
   78SLPC   O31 7105   4.607   1.850   6.785 -0.0706  0.6674 -0.9213
   78SLPC   C31 7106   4.536   1.900   6.888  0.1752 -0.8617  0.2024
   78SLPC   O32 7107   4.413   1.880   6.904 -0.1302 -0.0881 -0.0213
   78SLPC   C32 7108   4.631   1.969   6.994 -0.8847  0.1215  0.1380
   78SLPC   H2X 7109   4.645   2.077   6.974 -0.3890 -0.1649 -1.1652
   78SLPC   H2Y 7110   4.735   1.932   6.978 -0.2827  2.2112 -1.2033
   78SLPC   C23 7111   5.002   1.761   6.854  0.2740  0.4797 -0.3855
   78SLPC   H3R 7112   4.937   1.849   6.877 -0.8422 -0.6263  0.9404
   78SLPC   H3S 7113   5.083   1.801   6.790  1.3279  1.0786  1.2640
   78SLPC   C24 7114   5.064   1.694   6.985  0.1414  0.3893  0.7006
   78SLPC   H4R 7115   5.113   1.607   6.937 -0.3893  0.3910  0.1424
   78SLPC   H4S 7116   4.977   1.656   7.042 -1.7114  1.8315 -1.0391
   78SLPC   C25 7117   5.163   1.773   7.073  0.8572 -0.0676  0.5235
   78SLPC   H5R 7118   5.246   1.814   7.011  2.3760 -0.2710  2.3501
   78SLPC   H5S 7119   5.216   1.702   7.140 -1.8937  1.0505  4.1949
   78SLPC   C26 7120   5.095   1.883   7.157 -0.0231 -0.4713 -0.7301
   78SLPC   H6R 7121   4.985   1.865   7.167 -0.2116  0.7084 -0.6182
   78SLPC   H6S 7122   5.090   1.984   7.112 -1.4299  0.5037  1.4430
   78SLPC   C27 7123   5.158   1.909   7.293 -0.3263 -0.0349 -0.4733
   78SLPC   H7R 7124   5.086   1.982   7.337 -0.3531 -0.9212  1.0156
   78SLPC   H7S 7125   5.259   1.956   7.286 -0.4981  0.2020 -1.5328
   78SLPC   C28 7126   5.178   1.787   7.388 -0.5254 -0.1078  1.1750
   78SLPC   H8R 7127   5.249   1.820   7.466 -0.3078 -0.8424  1.2963
   78SLPC   H8S 7128   5.250   1.713   7.345 -1.8304 -0.1163 -1.1895
   78SLPC   C29 7129   5.060   1.714   7.434  0.0720  0.5305  0.2229
   78SLPC   H9R 7130   5.006   1.673   7.347 -2.7213  1.1456  1.5321
   78SLPC  C210 7131   5.023   1.698   7.563  0.2496  0.5299  0.3454
   78SLPC  H10R 7132   4.936   1.634   7.580  0.7782 -0.8113 -1.6434
   78SLPC  C211 7133   5.095   1.748   7.681  0.4713  0.0219 -0.4015
   78SLPC  H11R 7134   5.148   1.843   7.661 -1.2577  0.9674 -0.7548
   78SLPC  H11S 7135   5.174   1.674   7.708 -1.4631 -1.5628  1.2981
   78SLPC  C212 7136   4.992   1.776   7.794 -0.5289 -0.7400  0.3895
   78SLPC  H12R 7137   4.941   1.870   7.767 -2.4899 -1.8970 -0.1441
   78SLPC  C213 7138   4.964   1.708   7.908  0.0363  0.0217 -0.3368
   78SLPC  H13R 7139   4.882   1.740   7.975  0.8656  0.8554  0.3092
   78SLPC  C214 7140   5.023   1.582   7.957  0.1895 -0.4009  0.1765
   78SLPC  H14R 7141   5.092   1.538   7.882  2.9771 -1.6274  3.2010
   78SLPC  H14S 7142   4.941   1.510   7.978 -0.4397  0.1122 -0.4633
   78SLPC  C215 7143   5.116   1.614   8.076  0.4733 -0.5298  0.0825
   78SLPC  H15R 7144   5.171   1.518   8.091 -0.1393 -0.7870  0.7192
   78SLPC  H15S 7145   5.059   1.644   8.166  1.1840  2.1426 -0.2952
   78SLPC  C216 7146   5.228   1.724   8.047 -0.3357  0.2697  0.3118
   78SLPC  H16R 7147   5.188   1.826   8.030  0.7923  0.5355 -0.9113
   78SLPC  H16S 7148   5.277   1.705   7.949 -1.0867  1.1831 -0.2681
   78SLPC  C217 7149   5.332   1.746   8.166  0.7968 -0.3554 -0.2370
   78SLPC  H17R 7150   5.275   1.796   8.247  0.8385  1.3273 -1.2007
   78SLPC  H17S 7151   5.409   1.819   8.133 -0.2769  1.4849  1.1403
   78SLPC  C218 7152   5.393   1.622   8.227 -0.3848 -0.3561 -0.4397
   78SLPC  H18R 7153   5.482   1.589   8.169  0.1894  0.3370  0.0329
   78SLPC  H18S 7154   5.325   1.535   8.241  0.8644 -1.4299 -0.7654
   78SLPC  H18T 7155   5.435   1.655   8.324  2.7121 -0.0791 -1.7515
   78SLPC   C33 7156   4.582   1.949   7.144 -0.1766 -0.5089  0.6455
   78SLPC   H3X 7157   4.472   1.961   7.157 -0.0585 -0.5384  1.7943
   78SLPC   H3Y 7158   4.624   2.038   7.196  0.4758  0.2741 -1.1329
   78SLPC   C34 7159   4.622   1.810   7.197 -0.1445 -0.3950 -0.2077
   78SLPC   H4X 7160   4.720   1.775   7.158 -0.3261 -2.6685  1.1730
   78SLPC   H4Y 7161   4.538   1.750   7.157 -0.8642  0.7352 -0.4370
   78SLPC   C35 7162   4.613   1.826   7.346 -0.1748  0.7265 -0.0877
   78SLPC   H5X 7163   4.527   1.891   7.373  0.7033  1.3404  1.3033
   78SLPC   H5Y 7164   4.707   1.872   7.382  1.5514 -2.8140  0.4444
   78SLPC   C36 7165   4.599   1.697   7.437 -0.0009 -0.5402 -0.4756
   78SLPC   H6X 7166   4.683   1.635   7.400  0.9284  0.2968  0.1984
   78SLPC   H6Y 7167   4.511   1.639   7.401 -1.5941  2.2248 -1.3370
   78SLPC   C37 7168   4.595   1.727   7.585 -0.6338  0.1800 -0.8944
   78SLPC   H7X 7169   4.508   1.795   7.597 -1.4191 -0.5777 -2.1336
   78SLPC   H7Y 7170   4.685   1.791   7.596 -0.3806 -0.6343  3.1807
   78SLPC   C38 7171   4.607   1.612   7.679 -0.3236 -0.3849  0.9163
   78SLPC   H8X 7172   4.711   1.575   7.666 -0.5440 -0.6432 -0.1855
   78SLPC   H8Y 7173   4.533   1.536   7.644  1.0062  0.1614 -3.7143
   78SLPC   C39 7174   4.581   1.644   7.830  0.0540  1.0489  0.7121
   78SLPC   H9X 7175   4.490   1.707   7.844 -1.7590 -1.3284  0.3667
   78SLPC   H9Y 7176   4.654   1.705   7.887 -0.2466  1.0953  1.0474
   78SLPC  C310 7177   4.528   1.508   7.885  0.2986 -0.0930 -0.6251
   78SLPC  H10X 7178   4.585   1.419   7.851  0.1647 -1.7382  3.0203
   78SLPC  H10Y 7179   4.428   1.489   7.840 -0.8334  1.4278  1.1047
   78SLPC  C311 7180   4.530   1.502   8.035  0.0981  0.3535 -0.4276
   78SLPC  H11X 7181   4.625   1.543   8.077  0.5053  0.5463 -1.5153
   78SLPC  H11Y 7182   4.514   1.395   8.057 -2.2168  0.1370 -2.7382
   78SLPC  C312 7183   4.422   1.573   8.114 -0.3776  0.0511  0.7625
   78SLPC  H12X 7184   4.320   1.531   8.100 -0.0607 -0.5621  0.2036
   78SLPC  H12Y 7185   4.415   1.678   8.077 -0.5621 -0.7640 -1.7550
   78SLPC  C313 7186   4.440   1.578   8.271  0.8337  0.5617  0.9502
   78SLPC  H13X 7187   4.356   1.635   8.316  0.0941 -0.2350  0.6147
   78SLPC  H13Y 7188   4.535   1.634   8.287  1.8945 -0.8082 -0.2574
   78SLPC  C314 7189   4.472   1.441   8.326  0.3738  0.9186 -0.1486
   78SLPC  H14X 7190   4.577   1.410   8.309  0.8299 -0.0299  3.5785
   78SLPC  H14Y 7191   4.402   1.361   8.293  2.4489 -0.7645 -0.6488
   78SLPC  C315 7192   4.435   1.433   8.475  0.5963 -0.0922  0.4427
   78SLPC  H15X 7193   4.440   1.329   8.514 -1.8998 -0.3053  0.3762
   78SLPC  H15Y 7194   4.332   1.469   8.497  0.4051 -0.1992 -0.2693
   78SLPC  C316 7195   4.534   1.510   8.562  0.6121 -0.6047 -0.1371
   78SLPC  H16X 7196   4.518   1.617   8.535  1.6183  0.0725  1.8031
   78SLPC  H16Y 7197   4.641   1.496   8.537  0.9599 -0.6489  1.3093
   78SLPC  C317 7198   4.520   1.473   8.711  0.3554  0.7473 -0.1581
   78SLPC  H17X 7199   4.555   1.367   8.718  0.0468  0.7210  1.6395
   78SLPC  H17Y 7200   4.414   1.474   8.743  0.6135  0.8608  0.7173
   78SLPC  C318 7201   4.619   1.544   8.800  0.2186  0.4943  0.0193
   78SLPC  H18X 7202   4.591   1.651   8.812  0.0299  0.4619 -0.1290
   78SLPC  H18Y 7203   4.723   1.539   8.761  1.2971  0.5850  2.6408
   78SLPC  H18Z 7204   4.632   1.491   8.897  1.4935  1.4520  0.4008
   79SLPC     N 7205   1.677   4.145   6.150 -0.6893  0.3531 -0.5326
   79SLPC   C13 7206   1.808   4.215   6.117  0.4472 -0.3450 -0.0325
   79SLPC  H13A 7207   1.816   4.228   6.011 -2.0051 -0.3193 -0.2619
   79SLPC  H13B 7208   1.799   4.315   6.157 -0.3845 -1.4620  2.8917
   79SLPC  H13C 7209   1.897   4.172   6.161 -0.1737 -0.8021  0.8200
   79SLPC   C14 7210   1.679   4.007   6.091  0.5078  0.9358  0.1648
   79SLPC  H14A 7211   1.715   4.008   5.989  1.1386 -0.0079  0.3576
   79SLPC  H14B 7212   1.755   3.947   6.139 -0.5885 -0.4277  0.2680
   79SLPC  H14C 7213   1.589   3.950   6.107  0.8581 -0.2252 -1.6986
   79SLPC   C15 7214   1.573   4.223   6.077 -0.2307  0.3660 -0.4607
   79SLPC  H15A 7215   1.588   4.237   5.971 -0.5722  1.7299 -0.3394
   79SLPC  H15B 7216   1.483   4.163   6.084  1.5228 -2.5657 -1.1595
   79SLPC  H15C 7217   1.554   4.318   6.125 -0.4046  1.1423 -2.0032
   79SLPC   C12 7218   1.661   4.146   6.304  0.3031 -0.2211  0.4269
   79SLPC  H12A 7219   1.736   4.078   6.340 -0.2423 -1.6927 -1.0803
   79SLPC  H12B 7220   1.564   4.107   6.331  1.0481  0.0514  3.9911
   79SLPC   C11 7221   1.661   4.287   6.368 -0.3714 -0.0257  0.5413
   79SLPC  H11A 7222   1.742   4.350   6.326  0.7638 -1.7489  0.0400
   79SLPC  H11B 7223   1.675   4.283   6.479 -1.3434 -0.5089  0.6560
   79SLPC     P 7224   1.412   4.307   6.430 -0.0119  0.3594  0.4794
   79SLPC   O13 7225   1.295   4.394   6.417 -0.1280  0.3109 -0.1420
   79SLPC   O14 7226   1.374   4.165   6.413 -0.2348  0.1914  0.4402
   79SLPC   O12 7227   1.536   4.352   6.339 -0.3452  0.2212  0.0103
   79SLPC   O11 7228   1.468   4.320   6.571  0.2909  0.1446  0.2156
   79SLPC    C1 7229   1.494   4.445   6.632  0.0154  0.0676 -0.1681
   79SLPC    HA 7230   1.531   4.521   6.560  1.6652 -1.4536 -1.0091
   79SLPC    HB 7231   1.398   4.477   6.678  0.3310  1.9172 -0.7017
   79SLPC    C2 7232   1.597   4.426   6.749 -0.2785 -0.3732  0.6532
   79SLPC    HS 7233   1.668   4.347   6.716  1.1811  1.2285 -0.1961
   79SLPC   O21 7234   1.516   4.390   6.863 -0.1704  0.3203 -0.2733
   79SLPC   C21 7235   1.504   4.257   6.883  0.1998 -0.2957  0.1577
   79SLPC   O22 7236   1.569   4.170   6.823 -0.0242  0.0207 -0.0795
   79SLPC   C22 7237   1.424   4.247   7.015  0.4074 -0.3997 -0.5852
   79SLPC   H2R 7238   1.340   4.318   7.002  0.0035 -0.5238  1.1068
   79SLPC   H2S 7239   1.384   4.143   7.016  2.4966 -1.2580  0.1384
   79SLPC    C3 7240   1.686   4.548   6.786 -0.1442 -0.2705 -0.4201
   79SLPC    HX 7241   1.630   4.641   6.761  1.7790  0.3130 -2.9292
   79SLPC    HY 7242   1.764   4.549   6.707 -0.3667 -0.8783 -0.6536
   79SLPC   O31 7243   1.743   4.541   6.918  0.3872  0.3087 -0.0007
   79SLPC   C31 7244   1.663   4.604   7.011 -0.7549  0.4201  0.9076
   79SLPC   O32 7245   1.572   4.677   6.987  0.0352 -0.2311  0.1518
   79SLPC   C32 7246   1.727   4.575   7.142 -0.3350 -0.3989 -0.2667
   79SLPC   H2X 7247   1.828   4.616   7.120 -1.2929  1.4412 -1.5640
   79SLPC   H2Y 7248   1.733   4.464   7.143  0.0387 -0.3935 -1.1753
   79SLPC   C23 7249   1.520   4.260   7.135  0.1844  0.2670  0.3696
   79SLPC   H3R 7250   1.535   4.368   7.157  0.3601  0.2725  0.2286
   79SLPC   H3S 7251   1.622   4.220   7.115  0.4681  1.3101 -0.4036
   79SLPC   C24 7252   1.470   4.200   7.270  0.3697  0.5329  0.2676
   79SLPC   H4R 7253   1.457   4.090   7.268 -0.6735  0.6020  1.5298
   79SLPC   H4S 7254   1.377   4.254   7.299 -0.0800  0.1373 -0.4071
   79SLPC   C25 7255   1.562   4.231   7.396 -0.2609 -0.0393  0.2674
   79SLPC   H5R 7256   1.589   4.337   7.418  0.7956 -0.3918  0.7689
   79SLPC   H5S 7257   1.663   4.189   7.375 -1.4756 -2.4409 -1.1709
   79SLPC   C26 7258   1.486   4.184   7.517 -0.2670  0.0825  0.2687
   79SLPC   H6R 7259   1.445   4.081   7.517 -0.9242  0.3121  1.9732
   79SLPC   H6S 7260   1.395   4.246   7.536  1.0482  2.5367 -0.9397
   79SLPC   C27 7261   1.574   4.202   7.637 -0.9042 -0.3361  0.2638
   79SLPC   H7R 7262   1.612   4.307   7.637 -0.0449 -0.6336 -0.1969
   79SLPC   H7S 7263   1.650   4.121   7.637  2.2124  2.3376  0.4667
   79SLPC   C28 7264   1.495   4.191   7.765  0.7071 -0.5861 -0.4038
   79SLPC   H8R 7265   1.417   4.269   7.762  1.2168  0.2031  2.8589
   79SLPC   H8S 7266   1.567   4.225   7.843  1.0134  0.7733 -1.2677
   79SLPC   C29 7267   1.428   4.060   7.806 -0.2900  0.4014  0.1029
   79SLPC   H9R 7268   1.380   4.008   7.722 -0.3851  0.8846 -0.1456
   79SLPC  C210 7269   1.444   3.987   7.925 -0.0180 -0.1538  0.3123
   79SLPC  H10R 7270   1.373   3.905   7.941 -1.2370  0.9390  0.7058
   79SLPC  C211 7271   1.530   4.030   8.041  0.1523  0.3238 -0.1756
   79SLPC  H11R 7272   1.463   4.054   8.126 -0.6172 -0.7971 -0.4347
   79SLPC  H11S 7273   1.585   4.126   8.033 -0.9951  0.9529 -0.8570
   79SLPC  C212 7274   1.624   3.917   8.075 -0.6008  0.1076 -0.2402
   79SLPC  H12R 7275   1.683   3.891   7.985  1.0927 -0.0471  0.8725
   79SLPC  C213 7276   1.639   3.846   8.189  0.0431 -0.2821  0.2712
   79SLPC  H13R 7277   1.710   3.763   8.184  2.1518  1.4432  0.4028
   79SLPC  C214 7278   1.545   3.861   8.307  0.2741 -0.4664  0.4839
   79SLPC  H14R 7279   1.458   3.795   8.287  0.0325  0.0301 -0.1378
   79SLPC  H14S 7280   1.512   3.967   8.299  3.2511  0.5697  0.2437
   79SLPC  C215 7281   1.596   3.836   8.454 -0.7303 -0.3006  0.1451
   79SLPC  H15R 7282   1.694   3.884   8.475 -0.9151 -0.4626  1.4694
   79SLPC  H15S 7283   1.627   3.730   8.466 -0.1182 -0.2771 -1.0373
   79SLPC  C216 7284   1.499   3.876   8.571 -0.0817 -0.5561  0.1632
   79SLPC  H16R 7285   1.417   3.804   8.595  1.6562 -2.0167  2.0006
   79SLPC  H16S 7286   1.458   3.976   8.545 -0.9650 -0.9623 -0.0729
   79SLPC  C217 7287   1.584   3.893   8.700 -0.1669 -0.3498 -0.9183
   79SLPC  H17R 7288   1.677   3.952   8.687  0.1033 -0.6843 -0.5339
   79SLPC  H17S 7289   1.630   3.794   8.718  1.8718  0.4474 -1.4346
   79SLPC  C218 7290   1.504   3.937   8.826 -0.1793 -0.5908  0.6989
   79SLPC  H18R 7291   1.444   4.021   8.787 -0.7351 -1.0385  0.5810
   79SLPC  H18S 7292   1.568   3.965   8.913 -2.9612  2.2633  2.0422
   79SLPC  H18T 7293   1.436   3.856   8.859 -1.2661 -0.1629 -0.4205
   79SLPC   C33 7294   1.675   4.637   7.269 -0.8377 -0.0962 -0.0949
   79SLPC   H3X 7295   1.628   4.550   7.319 -1.0583  0.7007  1.1368
   79SLPC   H3Y 7296   1.604   4.723   7.259 -1.3922 -0.5894 -0.4625
   79SLPC   C34 7297   1.788   4.661   7.368  0.6585 -0.5113  0.5974
   79SLPC   H4X 7298   1.828   4.765   7.366 -2.7351  0.9633  2.3983
   79SLPC   H4Y 7299   1.868   4.584   7.368  1.0132 -0.2015  2.3733
   79SLPC   C35 7300   1.726   4.653   7.510 -0.5687 -0.8084 -0.1832
   79SLPC   H5X 7301   1.682   4.551   7.520 -1.0360 -0.3842  3.1059
   79SLPC   H5Y 7302   1.671   4.746   7.533  4.0092  1.8097  1.5003
   79SLPC   C36 7303   1.850   4.654   7.605  0.4180  0.1969  0.8141
   79SLPC   H6X 7304   1.902   4.752   7.610  1.1148 -0.1407  0.3532
   79SLPC   H6Y 7305   1.927   4.578   7.580 -1.5763 -1.1961 -1.5229
   79SLPC   C37 7306   1.801   4.611   7.746 -0.0529 -0.3109  0.7934
   79SLPC   H7X 7307   1.901   4.595   7.790  0.3358 -3.5927 -0.9285
   79SLPC   H7Y 7308   1.741   4.518   7.732 -2.3509  1.2212 -0.3436
   79SLPC   C38 7309   1.734   4.722   7.826 -0.3933  0.6167  0.0794
   79SLPC   H8X 7310   1.628   4.741   7.800 -1.2750 -0.3208  2.7178
   79SLPC   H8Y 7311   1.792   4.814   7.806 -0.8223  1.0901  0.9691
   79SLPC   C39 7312   1.751   4.693   7.973  0.1780  0.7017  0.1252
   79SLPC   H9X 7313   1.858   4.662   7.977 -0.2329 -1.1908 -1.7737
   79SLPC   H9Y 7314   1.700   4.600   8.008 -0.0713  0.4505 -0.8698
   79SLPC  C310 7315   1.719   4.821   8.046 -0.1782  0.5261 -0.6288
   79SLPC  H10X 7316   1.610   4.838   8.038 -0.8927 -3.7428 -2.7891
   79SLPC  H10Y 7317   1.760   4.913   7.998 -0.0721  0.7734 -0.0738
   79SLPC  C311 7318   1.756   4.817   8.191 -1.0055 -0.4542 -0.8221
   79SLPC  H11X 7319   1.855   4.768   8.204 -1.2322 -0.4215  1.2694
   79SLPC  H11Y 7320   1.686   4.744   8.237 -1.2996  1.1412  1.4235
   79SLPC  C312 7321   1.768   4.959   8.253 -0.1019  0.0208  0.1237
   79SLPC  H12X 7322   1.666   5.005   8.247  0.4904  1.1641 -2.8645
   79SLPC  H12Y 7323   1.841   5.014   8.190 -0.7279  0.6576 -0.0634
   79SLPC  C313 7324   1.832   4.947   8.390 -0.6429  0.6977  0.3338
   79SLPC  H13X 7325   1.942   4.932   8.388 -0.5527  1.3429 -1.3958
   79SLPC  H13Y 7326   1.787   4.856   8.435 -0.2508  0.5734  0.4753
   79SLPC  C314 7327   1.790   5.074   8.465 -0.7517  0.7010 -0.0550
   79SLPC  H14X 7328   1.680   5.086   8.448 -0.7901 -0.3170 -0.6093
   79SLPC  H14Y 7329   1.828   5.171   8.426  1.0623 -0.0401 -0.2174
   79SLPC  C315 7330   1.829   5.080   8.605  0.0566 -0.5231 -0.5991
   79SLPC  H15X 7331   1.928   5.042   8.640 -0.6106 -0.0653  2.0161
   79SLPC  H15Y 7332   1.753   5.023   8.664 -1.6733  0.1296 -2.1046
   79SLPC  C316 7333   1.839   5.226   8.656 -0.9790  0.2166  0.5669
   79SLPC  H16X 7334   1.746   5.287   8.644 -0.0030  1.8564  1.0872
   79SLPC  H16Y 7335   1.923   5.275   8.603 -0.7558  0.8779  1.5080
   79SLPC  C317 7336   1.888   5.237   8.801  0.5307  0.0717  0.1243
   79SLPC  H17X 7337   1.930   5.336   8.830  1.4308 -0.0557 -0.7076
   79SLPC  H17Y 7338   1.977   5.172   8.816 -0.8931 -1.6929  1.3611
   79SLPC  C318 7339   1.774   5.203   8.899 -0.0333  0.1478 -0.1817
   79SLPC  H18X 7340   1.685   5.265   8.874  1.1415  0.9045 -2.8327
   79SLPC  H18Y 7341   1.815   5.200   9.002  0.9407  1.0894 -0.5191
   79SLPC  H18Z 7342   1.753   5.097   8.878  0.4641  0.0326 -0.1047
   80SLPC     N 7343   2.863   1.579   6.401  0.1099  0.7701 -0.0569
   80SLPC   C13 7344   2.816   1.709   6.360  0.9716  0.1992 -0.3441
   80SLPC  H13A 7345   2.732   1.715   6.292  1.1953  2.3842 -0.5284
   80SLPC  H13B 7346   2.778   1.749   6.453  0.3334  1.0328 -0.9440
   80SLPC  H13C 7347   2.894   1.776   6.325 -1.7211  2.1197 -3.2305
   80SLPC   C14 7348   2.747   1.509   6.460  0.2174  0.7326 -0.3716
   80SLPC  H14A 7349   2.772   1.411   6.496 -2.1478  1.0345  2.4378
   80SLPC  H14B 7350   2.700   1.573   6.533 -0.3663  1.4794 -1.3807
   80SLPC  H14C 7351   2.673   1.491   6.383  0.4583  2.0540 -0.9503
   80SLPC   C15 7352   2.953   1.613   6.512  0.3685  0.0947 -0.4513
   80SLPC  H15A 7353   2.895   1.653   6.594 -0.6028 -0.5767 -0.8054
   80SLPC  H15B 7354   3.003   1.524   6.549 -0.2138 -0.1713 -0.2964
   80SLPC  H15C 7355   3.024   1.684   6.473  1.3375 -2.2221 -3.2185
   80SLPC   C12 7356   2.920   1.495   6.285 -0.2881 -0.2784  0.5975
   80SLPC  H12A 7357   2.998   1.551   6.236  1.7876 -2.2507  1.4934
   80SLPC  H12B 7358   2.845   1.482   6.208  0.3788  1.5940 -0.4202
   80SLPC   C11 7359   2.978   1.355   6.315  0.0911 -0.0663  0.0282
   80SLPC  H11A 7360   2.994   1.309   6.215  0.4421  0.0141  0.0465
   80SLPC  H11B 7361   2.911   1.284   6.367  1.0898  0.1250  1.6239
   80SLPC     P 7362   3.193   1.247   6.434 -0.0417  0.0242 -0.2674
   80SLPC   O13 7363   3.190   1.136   6.335 -0.2634 -0.2072 -0.4461
   80SLPC   O14 7364   3.325   1.307   6.464 -0.3914  0.2836  0.3836
   80SLPC   O12 7365   3.101   1.364   6.380 -0.2000 -0.2881  0.2985
   80SLPC   O11 7366   3.143   1.185   6.569 -0.0680  0.1267  0.4372
   80SLPC    C1 7367   3.059   1.256   6.659  0.3782 -0.1892  0.2738
   80SLPC    HA 7368   3.115   1.339   6.706  0.2188 -0.0957  0.2995
   80SLPC    HB 7369   2.973   1.295   6.600  1.7118 -1.2534 -2.5778
   80SLPC    C2 7370   3.001   1.170   6.778  0.3700  0.1918 -0.0894
   80SLPC    HS 7371   2.924   1.221   6.840  2.3730  1.7953  1.2116
   80SLPC   O21 7372   3.108   1.139   6.862 -0.8794 -0.5714  0.2425
   80SLPC   C21 7373   3.128   1.221   6.959  1.2419 -0.3308 -0.3569
   80SLPC   O22 7374   3.077   1.331   6.967 -0.0214 -0.0984  0.1735
   80SLPC   C22 7375   3.226   1.150   7.055 -0.5901  0.0327  0.0815
   80SLPC   H2R 7376   3.286   1.081   6.992 -1.7787  0.2812 -1.3909
   80SLPC   H2S 7377   3.289   1.224   7.109 -0.5847 -0.9012  1.4136
   80SLPC    C3 7378   2.946   1.032   6.723  0.6300 -0.0727 -0.3927
   80SLPC    HX 7379   3.011   0.983   6.649  0.3313 -0.7264 -0.2260
   80SLPC    HY 7380   2.850   1.056   6.671 -0.5425 -1.5738  0.9659
   80SLPC   O31 7381   2.908   0.943   6.827  0.1311  0.1292  0.7912
   80SLPC   C31 7382   2.998   0.845   6.853  0.1652  0.0302 -0.0912
   80SLPC   O32 7383   3.104   0.830   6.798  0.1192  0.0178 -0.2968
   80SLPC   C32 7384   2.928   0.751   6.953 -0.0030  0.2744 -0.4201
   80SLPC   H2X 7385   2.855   0.700   6.887  0.3964  0.4797 -1.0305
   80SLPC   H2Y 7386   2.870   0.804   7.031 -1.3368  1.4344 -2.1255
   80SLPC   C23 7387   3.163   1.064   7.160 -0.1024  0.3181 -0.6330
   80SLPC   H3R 7388   3.243   0.994   7.194 -1.7367 -1.5385 -0.3956
   80SLPC   H3S 7389   3.084   0.997   7.121 -0.6131  0.4473  0.1596
   80SLPC   C24 7390   3.120   1.142   7.286  0.4489 -0.2998 -0.5163
   80SLPC   H4R 7391   3.048   1.219   7.251 -0.0524 -0.1010  0.8980
   80SLPC   H4S 7392   3.208   1.200   7.321  0.6298  0.2566 -1.8476
   80SLPC   C25 7393   3.070   1.038   7.391 -0.3270  0.6903 -0.3017
   80SLPC   H5R 7394   3.148   0.960   7.398 -0.9892  0.0465  0.0510
   80SLPC   H5S 7395   2.971   0.998   7.360  0.4032 -1.4025 -0.0862
   80SLPC   C26 7396   3.063   1.089   7.538 -0.1862  0.1613 -0.3287
   80SLPC   H6R 7397   2.981   1.165   7.542 -0.1040  0.2077  0.8501
   80SLPC   H6S 7398   3.162   1.131   7.563  0.7071 -0.9143 -1.9363
   80SLPC   C27 7399   3.020   0.981   7.645 -0.8499  1.1789  0.3042
   80SLPC   H7R 7400   3.091   0.902   7.614 -1.6966 -0.1266  1.5726
   80SLPC   H7S 7401   2.913   0.956   7.626 -0.4379 -2.4202  1.9952
   80SLPC   C28 7402   3.034   1.028   7.788 -0.1432  0.1259 -0.0542
   80SLPC   H8R 7403   2.985   1.127   7.802  2.2207  1.0967  2.0791
   80SLPC   H8S 7404   3.140   1.051   7.810  0.0135  0.5555 -1.2229
   80SLPC   C29 7405   2.999   0.908   7.870  0.7983  0.5164 -0.1559
   80SLPC   H9R 7406   3.033   0.809   7.839  0.1659 -0.4485  2.0674
   80SLPC  C210 7407   2.944   0.912   7.989 -0.2089  0.9130  0.1554
   80SLPC  H10R 7408   2.916   0.816   8.033  1.6490  0.4153  0.3441
   80SLPC  C211 7409   2.907   1.030   8.064  0.2371  0.1105 -0.1199
   80SLPC  H11R 7410   2.940   1.108   7.992  1.0270 -1.1619 -1.1807
   80SLPC  H11S 7411   2.964   1.054   8.157 -0.8791  0.0390  0.5982
   80SLPC  C212 7412   2.758   1.018   8.094 -0.5574 -0.4218  0.3449
   80SLPC  H12R 7413   2.699   1.091   8.038  0.0164  0.3518  0.7421
   80SLPC  C213 7414   2.703   0.936   8.179  0.5207  0.2542  0.3473
   80SLPC  H13R 7415   2.593   0.929   8.179  0.5653 -1.6787 -1.9634
   80SLPC  C214 7416   2.760   0.823   8.266  0.0209 -1.0196 -0.2900
   80SLPC  H14R 7417   2.871   0.824   8.275  0.0315 -1.5217 -0.3441
   80SLPC  H14S 7418   2.741   0.723   8.222 -0.1546 -0.8441 -0.6126
   80SLPC  C215 7419   2.695   0.813   8.399  0.0622  0.3303 -0.6837
   80SLPC  H15R 7420   2.716   0.901   8.463 -0.1040 -0.1176 -0.0068
   80SLPC  H15S 7421   2.744   0.723   8.442 -0.6283 -0.3116 -1.2157
   80SLPC  C216 7422   2.545   0.784   8.396  0.4427  0.5006  0.4728
   80SLPC  H16R 7423   2.497   0.879   8.363  0.4542  1.3046  2.6213
   80SLPC  H16S 7424   2.508   0.770   8.500  0.6431 -2.7830  0.2048
   80SLPC  C217 7425   2.504   0.649   8.321 -0.5908  0.4312 -0.3841
   80SLPC  H17R 7426   2.546   0.632   8.220 -1.4472 -2.1218 -0.3980
   80SLPC  H17S 7427   2.395   0.634   8.304 -0.8477 -1.4436  2.3001
   80SLPC  C218 7428   2.547   0.533   8.414 -0.0285  0.1438  0.3604
   80SLPC  H18R 7429   2.492   0.552   8.509 -2.2618 -0.2448 -0.7981
   80SLPC  H18S 7430   2.658   0.535   8.420  0.0305  2.3509 -0.4339
   80SLPC  H18T 7431   2.524   0.435   8.368 -1.3835 -0.1020  1.4830
   80SLPC   C33 7432   3.024   0.644   7.028 -0.2782 -0.8266 -0.4941
   80SLPC   H3X 7433   3.112   0.704   7.061 -1.3534  0.2421  0.5740
   80SLPC   H3Y 7434   3.046   0.566   6.952 -0.3207  1.0070 -2.5037
   80SLPC   C34 7435   2.969   0.561   7.146  0.0290  0.6143  0.2630
   80SLPC   H4X 7436   3.032   0.474   7.171  0.2170  0.2155 -1.5077
   80SLPC   H4Y 7437   2.872   0.514   7.118 -0.0823 -0.6588  2.5822
   80SLPC   C35 7438   2.950   0.633   7.280 -0.4450 -0.1430  0.1184
   80SLPC   H5X 7439   2.893   0.728   7.271 -0.6204 -0.4461 -3.6460
   80SLPC   H5Y 7440   3.041   0.677   7.326 -2.5501  2.2875  2.3090
   80SLPC   C36 7441   2.888   0.539   7.389  0.2435 -0.3740 -0.3963
   80SLPC   H6X 7442   2.952   0.448   7.391  0.5527 -0.1764 -0.9501
   80SLPC   H6Y 7443   2.789   0.504   7.352  0.6587  0.4031 -2.4077
   80SLPC   C37 7444   2.890   0.601   7.533 -0.4286  0.6449  0.0708
   80SLPC   H7X 7445   2.829   0.694   7.530  0.3970  1.3495  2.4148
   80SLPC   H7Y 7446   2.996   0.622   7.562 -0.3519 -1.6546  1.6644
   80SLPC   C38 7447   2.841   0.483   7.632 -0.6490  0.7746  0.2656
   80SLPC   H8X 7448   2.912   0.398   7.623  0.6773  1.8674 -0.0654
   80SLPC   H8Y 7449   2.736   0.462   7.603 -0.6152 -0.6760  1.1428
   80SLPC   C39 7450   2.831   0.526   7.785  0.5680 -0.3060  0.9016
   80SLPC   H9X 7451   2.733   0.578   7.795 -0.2209 -1.6282  0.3137
   80SLPC   H9Y 7452   2.922   0.585   7.808  1.9780 -1.5962 -1.0588
   80SLPC  C310 7453   2.851   0.397   7.869  0.4471 -0.4152 -0.1059
   80SLPC  H10X 7454   2.950   0.349   7.851  0.7590  1.0572 -2.8172
   80SLPC  H10Y 7455   2.770   0.328   7.836 -2.1203  1.8321  1.1463
   80SLPC  C311 7456   2.824   0.412   8.019  0.6594 -0.0881  0.1645
   80SLPC  H11X 7457   2.830   0.316   8.075  1.6499 -0.0790  0.0790
   80SLPC  H11Y 7458   2.735   0.469   8.054  1.1138 -0.0794  1.3481
   80SLPC  C312 7459   2.930   0.501   8.092 -0.4803 -0.2927  0.7153
   80SLPC  H12X 7460   2.911   0.605   8.060  0.7794  0.6702  2.9089
   80SLPC  H12Y 7461   3.032   0.487   8.051 -0.8590  2.0221 -1.1881
   80SLPC  C313 7462   2.930   0.479   8.246  0.1129 -0.1595  0.2586
   80SLPC  H13X 7463   2.915   0.373   8.276  1.5694  0.1675  2.3445
   80SLPC  H13Y 7464   2.840   0.536   8.278 -0.3191 -1.1097  0.7694
   80SLPC  C314 7465   3.055   0.540   8.320  0.3265 -0.1329 -0.4502
   80SLPC  H14X 7466   3.059   0.650   8.301 -2.7863  0.5747  2.0677
   80SLPC  H14Y 7467   3.147   0.485   8.293 -0.3127 -0.7341 -1.4874
   80SLPC  C315 7468   3.027   0.531   8.464  0.3398 -0.1033 -0.3574
   80SLPC  H15X 7469   3.002   0.425   8.484 -3.6864  0.3967 -1.7442
   80SLPC  H15Y 7470   2.935   0.591   8.482 -0.7540 -0.6305 -3.5322
   80SLPC  C316 7471   3.128   0.587   8.565  0.7751  0.0693 -0.2984
   80SLPC  H16X 7472   3.231   0.546   8.555  0.7298 -0.6692  1.7916
   80SLPC  H16Y 7473   3.080   0.561   8.661 -0.2376 -0.4139 -0.9159
   80SLPC  C317 7474   3.131   0.742   8.559 -0.5611 -0.0803  0.5264
   80SLPC  H17X 7475   3.024   0.770   8.552 -0.4757 -0.1156 -1.1468
   80SLPC  H17Y 7476   3.170   0.768   8.459  0.7789  1.2907  1.3805
   80SLPC  C318 7477   3.206   0.821   8.663 -0.2769 -0.6980  0.0276
   80SLPC  H18X 7478   3.132   0.847   8.742 -2.1339 -0.9290 -1.5683
   80SLPC  H18Y 7479   3.245   0.919   8.629 -2.5334  0.6751  1.1195
   80SLPC  H18Z 7480   3.285   0.755   8.707  0.4789 -0.6355 -1.1976
   81SAPS     N 7481   1.609   3.443  11.284 -0.3639 -0.3045  0.6569
   81SAPS   HN1 7482   1.522   3.393  11.258  1.1399 -2.0449 -1.4341
   81SAPS   HN2 7483   1.685   3.391  11.235 -0.9643 -2.7110  2.1470
   81SAPS   HN3 7484   1.628   3.439  11.386  0.0686  2.1734  0.7425
   81SAPS   C12 7485   1.603   3.589  11.260 -0.1773 -0.6476 -0.1694
   81SAPS  H12A 7486   1.524   3.643  11.311 -1.5023 -0.4941 -2.2711
   81SAPS   C13 7487   1.738   3.666  11.294 -0.0912  0.4547 -0.2688
   81SAPS  O13A 7488   1.842   3.594  11.307  0.3781  0.3582 -0.4538
   81SAPS  O13B 7489   1.744   3.792  11.290 -0.0960  0.8246  0.0851
   81SAPS   C11 7490   1.576   3.621  11.105  0.6266 -0.1336  0.5644
   81SAPS  H11A 7491   1.661   3.583  11.045  0.2821  0.3944 -0.2823
   81SAPS  H11B 7492   1.568   3.732  11.093  0.1415 -0.3256 -1.2321
   81SAPS     P 7493   1.365   3.605  10.934 -0.5315  0.1670  0.2277
   81SAPS   O13 7494   1.341   3.488  10.837 -0.0990 -0.5847  0.0033
   81SAPS   O14 7495   1.240   3.668  10.983 -0.3493  0.1763  0.1926
   81SAPS   O12 7496   1.456   3.557  11.056 -0.2476  0.0097 -0.0611
   81SAPS   O11 7497   1.458   3.712  10.875  0.3733  0.0523  0.4243
   81SAPS    C1 7498   1.475   3.743  10.731  0.5352 -0.7395  0.5532
   81SAPS    HA 7499   1.552   3.822  10.717 -1.0866  0.5570 -1.6566
   81SAPS    HB 7500   1.501   3.655  10.668 -1.3225 -1.2784  0.4711
   81SAPS    C2 7501   1.342   3.796  10.675 -0.0403  0.3868 -0.6376
   81SAPS    HS 7502   1.295   3.850  10.761 -0.0085  2.1744 -1.6851
   81SAPS   O21 7503   1.260   3.683  10.631  0.3906 -0.0415 -0.3925
   81SAPS   C21 7504   1.132   3.703  10.606  0.0405 -0.1648 -0.9170
   81SAPS   O22 7505   1.074   3.807  10.609 -0.3808  0.0469 -0.2356
   81SAPS   C22 7506   1.056   3.571  10.588  0.7497  0.1927 -0.0823
   81SAPS   H2R 7507   1.106   3.490  10.646  2.9078  1.3702 -0.2126
   81SAPS   H2S 7508   0.952   3.578  10.627  0.3996 -0.0140 -0.9617
   81SAPS    C3 7509   1.350   3.902  10.560 -0.3849  0.3742 -0.7584
   81SAPS    HX 7510   1.402   3.992  10.599 -0.4243  1.3436 -2.8114
   81SAPS    HY 7511   1.246   3.938  10.548 -0.7249 -0.3077  0.0449
   81SAPS   O31 7512   1.424   3.850  10.445 -0.1919  0.1184  0.2876
   81SAPS   C31 7513   1.557   3.865  10.447  0.3844  0.5319 -0.4363
   81SAPS   O32 7514   1.614   3.936  10.524  0.2785  0.0265 -0.7436
   81SAPS   C32 7515   1.621   3.771  10.344  0.0874 -0.3264 -0.4662
   81SAPS   H2X 7516   1.561   3.681  10.321 -1.7563  1.4127 -3.0621
   81SAPS   H2Y 7517   1.722   3.740  10.379 -0.4702 -2.2636 -0.4736
   81SAPS   C23 7518   1.047   3.528  10.441  0.0425  0.0994  0.0743
   81SAPS   H3R 7519   1.005   3.594  10.363  0.4927 -0.9936 -1.1202
   81SAPS   H3S 7520   0.972   3.445  10.440 -1.2762  1.2467 -0.4531
   81SAPS   C24 7521   1.183   3.467  10.393 -0.4347  0.5122 -0.4000
   81SAPS   H4R 7522   1.219   3.376  10.446  2.0762  1.1408 -0.8745
   81SAPS   H4S 7523   1.268   3.536  10.413  1.9910 -1.1370 -4.0193
   81SAPS   C25 7524   1.168   3.433  10.251 -0.0551 -0.1464  0.2953
   81SAPS   H5R 7525   1.093   3.359  10.221 -0.3492  0.6562 -1.0661
   81SAPS   C26 7526   1.215   3.510  10.151 -0.2274  0.2370 -0.0878
   81SAPS   H6R 7527   1.205   3.457  10.055 -1.7862 -0.3136  0.3574
   81SAPS   C27 7528   1.305   3.634  10.163  0.3621 -0.3112 -0.0625
   81SAPS   H7R 7529   1.383   3.618  10.085  1.0677 -0.7707  0.7279
   81SAPS   H7S 7530   1.365   3.642  10.256 -1.3772  2.7948  0.9335
   81SAPS   C28 7531   1.225   3.758  10.135 -0.6471 -1.2902  0.4576
   81SAPS   H8R 7532   1.177   3.799  10.226 -1.1127  0.3028 -0.4660
   81SAPS   C29 7533   1.195   3.821  10.018  0.2894 -0.0815  0.4592
   81SAPS   H9R 7534   1.137   3.914  10.017  0.2334 -0.1173 -0.4316
   81SAPS  C210 7535   1.238   3.779   9.881  0.4468 -0.4434 -0.4014
   81SAPS  H10R 7536   1.347   3.755   9.880  0.5952  0.1911 -0.0705
   81SAPS  H10S 7537   1.217   3.858   9.806 -0.3272 -1.4819 -1.3160
   81SAPS  C211 7538   1.166   3.656   9.828 -0.3426 -0.0592 -0.3151
   81SAPS  H11R 7539   1.106   3.601   9.902 -1.1776 -0.8971 -1.5773
   81SAPS  C212 7540   1.146   3.628   9.694  0.1240 -0.2977  0.1846
   81SAPS  H12R 7541   1.094   3.535   9.665  1.2263 -0.1408 -2.6205
   81SAPS  C213 7542   1.200   3.705   9.572 -0.5069  0.6240 -0.5384
   81SAPS  H13R 7543   1.244   3.802   9.604  1.1065 -0.4923  0.8315
   81SAPS  H13S 7544   1.111   3.709   9.506 -0.2546 -1.4550 -1.0627
   81SAPS  C214 7545   1.310   3.629   9.498 -0.5198 -0.1881  0.6458
   81SAPS  H14R 7546   1.390   3.590   9.564  1.1730  1.1865 -0.4889
   81SAPS  C215 7547   1.328   3.609   9.368  0.3713 -0.2987 -0.6759
   81SAPS  H15R 7548   1.408   3.539   9.341  0.0654 -0.9587  0.1165
   81SAPS  C216 7549   1.240   3.648   9.255  0.1970  0.3391 -0.0339
   81SAPS  H16R 7550   1.289   3.721   9.186 -0.0460  0.0788 -0.4832
   81SAPS  H16S 7551   1.145   3.689   9.294  0.1732  0.0271  0.2349
   81SAPS  C217 7552   1.200   3.528   9.164 -0.0977  0.5389  0.2960
   81SAPS  H17R 7553   1.102   3.544   9.115 -0.5786 -3.7845 -0.6095
   81SAPS  H17S 7554   1.170   3.443   9.230 -1.3985  0.8400  0.1218
   81SAPS  C218 7555   1.310   3.475   9.067 -0.0390 -0.5650  0.0821
   81SAPS  H18R 7556   1.400   3.453   9.129 -0.8775 -0.7514  1.2849
   81SAPS  H18S 7557   1.336   3.551   8.990  1.3107  1.8543  2.7128
   81SAPS  C219 7558   1.256   3.347   8.999 -0.6511 -0.8666  0.8176
   81SAPS  H19R 7559   1.160   3.372   8.949 -1.3897 -2.7869  1.1732
   81SAPS  H19S 7560   1.230   3.271   9.077  0.2649 -0.7245  1.2672
   81SAPS  C220 7561   1.350   3.279   8.898 -0.2781 -0.4943 -0.4014
   81SAPS  H20R 7562   1.303   3.189   8.854 -2.0216  1.4253 -2.7971
   81SAPS  H20S 7563   1.452   3.266   8.940 -0.8980 -0.3664  1.2102
   81SAPS  H20T 7564   1.352   3.345   8.808 -2.1992 -1.8216 -1.5145
   81SAPS   C33 7565   1.635   3.846  10.214  0.0202  0.3258  0.7123
   81SAPS   H3X 7566   1.689   3.943  10.216  1.5329 -0.5022  1.7897
   81SAPS   H3Y 7567   1.531   3.868  10.180  0.8735  2.1567 -0.9556
   81SAPS   C34 7568   1.707   3.761  10.096  0.4576 -0.0566  0.2085
   81SAPS   H4X 7569   1.632   3.681  10.081  2.9989 -2.1634 -2.4347
   81SAPS   H4Y 7570   1.792   3.708  10.143 -0.7673 -1.2327  1.1460
   81SAPS   C35 7571   1.737   3.850   9.978 -0.0705 -0.5407 -0.9117
   81SAPS   H5X 7572   1.793   3.801   9.895 -0.2803  0.0312 -1.3922
   81SAPS   H5Y 7573   1.796   3.936  10.017 -0.0347 -1.3107  0.8198
   81SAPS   C36 7574   1.604   3.894   9.918 -0.8107 -0.0564 -0.2003
   81SAPS   H6X 7575   1.524   3.932   9.986 -0.4763 -1.6705  1.1782
   81SAPS   H6Y 7576   1.549   3.804   9.884 -0.2671 -0.9270  1.1140
   81SAPS   C37 7577   1.619   4.004   9.811 -0.0819 -0.3396  0.1109
   81SAPS   H7X 7578   1.720   4.046   9.792 -0.7788  1.0512 -0.6711
   81SAPS   H7Y 7579   1.558   4.088   9.852 -0.7479 -1.2106  0.9585
   81SAPS   C38 7580   1.553   3.958   9.684  0.1948 -0.7597  0.3719
   81SAPS   H8X 7581   1.449   3.924   9.706 -0.8959  3.1062  2.0771
   81SAPS   H8Y 7582   1.610   3.875   9.637 -2.3267 -1.0937 -2.4237
   81SAPS   C39 7583   1.529   4.076   9.584 -0.3838 -0.3102  0.2938
   81SAPS   H9X 7584   1.628   4.109   9.546  1.0905 -2.0489  2.3743
   81SAPS   H9Y 7585   1.487   4.167   9.632 -0.2418 -0.0521 -0.0653
   81SAPS  C310 7586   1.430   4.042   9.470  0.2038  0.1452 -0.2578
   81SAPS  H10X 7587   1.329   4.055   9.515 -0.5106 -0.1033 -1.7211
   81SAPS  H10Y 7588   1.422   3.937   9.437 -1.0469  0.2210 -0.2612
   81SAPS  C311 7589   1.420   4.135   9.346  0.3119 -0.4505 -0.3860
   81SAPS  H11X 7590   1.508   4.124   9.279  0.3274  0.5957 -0.5485
   81SAPS  H11Y 7591   1.432   4.236   9.391  1.0534 -0.0017 -1.5395
   81SAPS  C312 7592   1.303   4.096   9.257  0.3335  0.6606 -0.7426
   81SAPS  H12X 7593   1.203   4.106   9.304  0.2391 -0.9723 -0.5214
   81SAPS  H12Y 7594   1.303   3.986   9.239 -0.9877  0.4990  0.1075
   81SAPS  C313 7595   1.314   4.177   9.123  0.0522  0.1306 -0.6170
   81SAPS  H13X 7596   1.391   4.121   9.066  0.9955  0.9429 -0.1598
   81SAPS  H13Y 7597   1.351   4.276   9.158 -2.4156  0.0092  2.8192
   81SAPS  C314 7598   1.177   4.190   9.052 -0.4996  0.2125  0.0289
   81SAPS  H14X 7599   1.104   4.221   9.130 -2.8890 -1.3037 -1.4647
   81SAPS  H14Y 7600   1.149   4.086   9.022  1.1020  0.1142 -1.2459
   81SAPS  C315 7601   1.171   4.289   8.938 -0.4500 -0.3191 -0.7056
   81SAPS  H15X 7602   1.216   4.380   8.982 -1.1268  0.3811 -1.4356
   81SAPS  H15Y 7603   1.070   4.311   8.898 -0.4718 -1.1588 -1.1519
   81SAPS  C316 7604   1.255   4.248   8.820  0.1324 -0.2104 -0.1990
   81SAPS  H16X 7605   1.224   4.147   8.785  1.0536 -0.9210  0.9507
   81SAPS  H16Y 7606   1.363   4.241   8.846  0.3313 -0.9216 -1.1664
   81SAPS  C317 7607   1.263   4.345   8.702 -0.1601 -0.2983 -0.4411
   81SAPS  H17X 7608   1.323   4.299   8.620  1.0850  0.7992 -0.1826
   81SAPS  H17Y 7609   1.320   4.434   8.737  0.4117 -0.2729 -1.3835
   81SAPS  C318 7610   1.130   4.389   8.647 -0.3185  0.0714  0.0479
   81SAPS  H18X 7611   1.152   4.472   8.576 -0.6345  1.1972  1.2275
   81SAPS  H18Y 7612   1.072   4.432   8.731  0.7262  3.0371 -0.6291
   81SAPS  H18Z 7613   1.083   4.302   8.597 -0.2223  0.0138  0.0579
   82SAPS     N 7614   6.556   1.867  11.141 -0.0273 -0.1359  0.0949
   82SAPS   HN1 7615   6.544   1.766  11.119  1.0000 -0.3455  0.4163
   82SAPS   HN2 7616   6.654   1.887  11.110 -0.7586  1.8495 -1.1432
   82SAPS   HN3 7617   6.567   1.887  11.243  0.1773  2.1562 -0.3128
   82SAPS   C12 7618   6.468   1.956  11.066 -0.4908  0.4729 -0.5001
   82SAPS  H12A 7619   6.372   1.950  11.116 -0.6935 -1.3196 -1.0195
   82SAPS   C13 7620   6.508   2.112  11.069  0.1037  0.4740  0.9990
   82SAPS  O13A 7621   6.620   2.150  11.108  0.0578 -0.0222 -0.2626
   82SAPS  O13B 7622   6.433   2.186  10.996 -0.4037  0.2299 -0.1087
   82SAPS   C11 7623   6.463   1.904  10.921  0.5573 -0.3232  0.5449
   82SAPS  H11A 7624   6.554   1.939  10.867 -1.3637  0.7009 -2.2611
   82SAPS  H11B 7625   6.373   1.952  10.878  0.4785  0.2077  1.2675
   82SAPS     P 7626   6.338   1.663  10.884  0.2566  0.7045  0.0329
   82SAPS   O13 7627   6.392   1.558  10.793 -0.1480  0.2527  0.1889
   82SAPS   O14 7628   6.283   1.615  11.013  0.5802  0.0141 -0.1160
   82SAPS   O12 7629   6.452   1.765  10.916 -0.6675  0.1635  0.1214
   82SAPS   O11 7630   6.231   1.758  10.816  0.8731  0.2128  0.1652
   82SAPS    C1 7631   6.240   1.768  10.676 -0.1477  0.0822  0.0379
   82SAPS    HA 7632   6.334   1.818  10.644  0.6458  0.1507  2.2482
   82SAPS    HB 7633   6.232   1.670  10.624  1.6643  0.3766 -0.8737
   82SAPS    C2 7634   6.126   1.857  10.622  0.0998  0.0533  0.0444
   82SAPS    HS 7635   6.027   1.807  10.637  0.7110 -2.3651 -2.9351
   82SAPS   O21 7636   6.155   1.880  10.480  0.0053  0.1814 -0.3819
   82SAPS   C21 7637   6.080   1.818  10.397 -0.3653  0.3798  0.3696
   82SAPS   O22 7638   5.991   1.739  10.418  0.7247 -0.5205 -0.0696
   82SAPS   C22 7639   6.130   1.861  10.266 -0.5222  0.1584  0.5809
   82SAPS   H2R 7640   6.099   1.967  10.255  0.2331  0.2407 -1.1554
   82SAPS   H2S 7641   6.240   1.873  10.269 -0.2625 -1.4511 -0.9521
   82SAPS    C3 7642   6.127   1.995  10.690  0.1758  0.9896  0.1072
   82SAPS    HX 7643   6.231   2.032  10.683  0.6835 -0.5814 -1.0934
   82SAPS    HY 7644   6.088   1.969  10.791  0.8951 -1.2306 -0.1417
   82SAPS   O31 7645   6.036   2.093  10.624 -0.1795 -0.5891 -0.2364
   82SAPS   C31 7646   6.080   2.216  10.624  0.5722 -0.1035 -0.1414
   82SAPS   O32 7647   6.181   2.261  10.675 -0.1753  0.2994  0.6738
   82SAPS   C32 7648   5.990   2.301  10.531 -0.1562 -1.0767  0.7563
   82SAPS   H2X 7649   5.886   2.278  10.566  0.3387 -0.6493  2.6031
   82SAPS   H2Y 7650   5.996   2.271  10.424 -0.8339  0.3209  0.3063
   82SAPS   C23 7651   6.087   1.783  10.140  0.0008 -0.0878 -0.6581
   82SAPS   H3R 7652   6.114   1.676  10.153 -2.2287 -0.6643 -0.3249
   82SAPS   H3S 7653   6.158   1.826  10.067  1.8244 -0.8941  0.5725
   82SAPS   C24 7654   5.943   1.811  10.089  0.4708 -0.5691  0.2380
   82SAPS   H4R 7655   5.937   1.922  10.082  0.5379 -0.5785  0.0191
   82SAPS   H4S 7656   5.876   1.791  10.175 -0.6653  0.3572 -0.4039
   82SAPS   C25 7657   5.905   1.734   9.968 -0.3343 -0.8523  0.4583
   82SAPS   H5R 7658   5.847   1.646   9.998  0.3361 -1.3415  0.3278
   82SAPS   C26 7659   5.923   1.763   9.835 -0.7221 -0.0137  0.0019
   82SAPS   H6R 7660   5.877   1.688   9.768 -0.7500  0.2442 -0.2703
   82SAPS   C27 7661   5.998   1.878   9.757  0.2659 -0.0180 -0.3547
   82SAPS   H7R 7662   6.062   1.830   9.680  0.4491 -0.1199 -0.1403
   82SAPS   H7S 7663   6.056   1.933   9.835 -0.1132 -1.1348  0.7532
   82SAPS   C28 7664   5.903   1.976   9.702  0.0766 -0.5873 -0.0624
   82SAPS   H8R 7665   5.825   2.008   9.774 -0.2740 -2.0301  0.2328
   82SAPS   C29 7666   5.902   2.018   9.574  0.1407  0.3215 -0.5683
   82SAPS   H9R 7667   5.820   2.084   9.542 -0.7069 -0.1390  0.5984
   82SAPS  C210 7668   6.008   1.983   9.466  0.0156 -0.0603 -0.0227
   82SAPS  H10R 7669   5.973   1.888   9.418  1.3620 -0.4539 -0.2571
   82SAPS  H10S 7670   6.104   1.957   9.515  0.6225  1.1754 -0.5340
   82SAPS  C211 7671   6.021   2.094   9.362 -0.1998  0.3829 -0.3355
   82SAPS  H11R 7672   5.988   2.192   9.398  1.6778  0.2510  2.0113
   82SAPS  C212 7673   6.088   2.080   9.248  0.0483  0.0468 -0.1922
   82SAPS  H12R 7674   6.098   2.165   9.178 -0.3919  2.2406  2.2416
   82SAPS  C213 7675   6.165   1.957   9.209  0.5268 -0.1495 -0.1706
   82SAPS  H13R 7676   6.162   1.878   9.286  2.4650  0.5187  0.6378
   82SAPS  H13S 7677   6.271   1.990   9.208  0.5152  0.3455  3.3717
   82SAPS  C214 7678   6.112   1.893   9.080 -0.7375 -0.6023  0.6318
   82SAPS  H14R 7679   6.018   1.837   9.097 -1.4932  0.5693  0.4441
   82SAPS  C215 7680   6.180   1.873   8.964 -0.6505 -1.3389 -0.5054
   82SAPS  H15R 7681   6.132   1.839   8.871  0.9266 -2.1703 -1.0569
   82SAPS  C216 7682   6.320   1.929   8.936  0.1332  0.0831 -0.4344
   82SAPS  H16R 7683   6.394   1.856   8.898 -1.5516 -2.6721  1.2413
   82SAPS  H16S 7684   6.352   1.972   9.033 -0.3013  0.1582 -0.3192
   82SAPS  C217 7685   6.306   2.042   8.837  0.3173 -0.1647  0.4266
   82SAPS  H17R 7686   6.399   2.101   8.855  0.1694 -0.1352  1.1481
   82SAPS  H17S 7687   6.216   2.104   8.855 -0.1661 -0.7752  0.1532
   82SAPS  C218 7688   6.301   2.000   8.690  0.2712  0.5762 -0.8504
   82SAPS  H18R 7689   6.200   1.967   8.661  0.5168  0.4721 -1.6035
   82SAPS  H18S 7690   6.378   1.920   8.677  0.9967  1.4453 -2.1638
   82SAPS  C219 7691   6.358   2.108   8.593 -0.6400 -0.2876 -0.2203
   82SAPS  H19R 7692   6.289   2.192   8.618  1.2206  0.5084  2.6235
   82SAPS  H19S 7693   6.345   2.080   8.486 -1.1038  0.2090 -0.3031
   82SAPS  C220 7694   6.500   2.158   8.621 -0.0783  0.1210 -0.8543
   82SAPS  H20R 7695   6.504   2.209   8.720 -1.9644  2.2942 -1.8116
   82SAPS  H20S 7696   6.533   2.226   8.540  0.4888  1.7818  0.7030
   82SAPS  H20T 7697   6.568   2.070   8.619 -2.6032 -1.9820 -0.7022
   82SAPS   C33 7698   6.011   2.449  10.554 -0.1889 -0.4280 -0.4896
   82SAPS   H3X 7699   6.108   2.480  10.510 -0.4263  1.7797  0.4303
   82SAPS   H3Y 7700   6.000   2.479  10.660  1.5334  1.8855 -0.8779
   82SAPS   C34 7701   5.915   2.539  10.470  0.8933 -0.3144  0.6379
   82SAPS   H4X 7702   5.936   2.648  10.482  1.3723  0.1284 -3.0369
   82SAPS   H4Y 7703   5.815   2.525  10.516  0.2542  0.2257 -0.5315
   82SAPS   C35 7704   5.911   2.522  10.317 -0.1024 -0.6231  0.2746
   82SAPS   H5X 7705   5.912   2.418  10.280 -0.4561 -0.0904 -1.3079
   82SAPS   H5Y 7706   6.010   2.565  10.291 -0.8532 -0.0666 -1.8677
   82SAPS   C36 7707   5.811   2.606  10.240  0.3746 -0.4967  0.0340
   82SAPS   H6X 7708   5.784   2.702  10.289 -2.3681 -0.4244 -1.3871
   82SAPS   H6Y 7709   5.709   2.561  10.237  0.6474 -1.2278  1.2667
   82SAPS   C37 7710   5.845   2.637  10.095  0.4893 -0.1394  0.2591
   82SAPS   H7X 7711   5.944   2.687  10.101  1.3494 -1.5544 -1.1886
   82SAPS   H7Y 7712   5.772   2.703  10.043 -0.7531 -0.8203  1.0844
   82SAPS   C38 7713   5.864   2.517   9.999 -0.4345 -0.1215  1.2598
   82SAPS   H8X 7714   5.780   2.447  10.014  0.5743 -1.2283  1.8748
   82SAPS   H8Y 7715   5.948   2.454  10.034  0.2045  0.9095  1.6314
   82SAPS   C39 7716   5.889   2.572   9.858  0.4965 -0.4436 -0.1536
   82SAPS   H9X 7717   5.984   2.630   9.853 -0.3190  1.1590  1.7205
   82SAPS   H9Y 7718   5.810   2.637   9.816  1.6365  1.1399  0.0856
   82SAPS  C310 7719   5.904   2.458   9.751 -0.6566 -0.5804  0.6179
   82SAPS  H10X 7720   5.803   2.412   9.744  0.0603 -2.3416  1.1343
   82SAPS  H10Y 7721   5.980   2.386   9.789 -0.4916 -0.4743  0.4899
   82SAPS  C311 7722   5.945   2.527   9.612  0.0492  0.5919 -0.3797
   82SAPS  H11X 7723   6.035   2.593   9.614  0.9460 -0.5522 -1.6727
   82SAPS  H11Y 7724   5.860   2.594   9.586 -2.0511 -1.3417  1.1812
   82SAPS  C312 7725   5.968   2.422   9.498  0.4451  0.5480 -0.0482
   82SAPS  H12X 7726   5.867   2.383   9.473  0.1501  1.0355  0.3593
   82SAPS  H12Y 7727   6.029   2.342   9.546 -0.2933 -0.8028 -1.2775
   82SAPS  C313 7728   6.021   2.498   9.375 -0.2640 -0.2080  0.2174
   82SAPS  H13X 7729   6.072   2.431   9.303 -1.9396  1.0784 -2.3328
   82SAPS  H13Y 7730   6.094   2.569   9.419  1.1020 -0.4483 -1.5606
   82SAPS  C314 7731   5.915   2.572   9.292  0.5271  0.4816  0.1688
   82SAPS  H14X 7732   5.962   2.660   9.242 -0.7694  0.6394 -0.8335
   82SAPS  H14Y 7733   5.848   2.618   9.368  0.5080 -0.4763  0.7426
   82SAPS  C315 7734   5.850   2.474   9.199 -0.0515  0.7473  0.3773
   82SAPS  H15X 7735   5.795   2.405   9.267  0.4269  1.0425  1.0769
   82SAPS  H15Y 7736   5.926   2.417   9.142 -1.4864 -0.4687 -0.3967
   82SAPS  C316 7737   5.753   2.552   9.110  0.0227 -0.2290 -0.6654
   82SAPS  H16X 7738   5.831   2.601   9.049  2.7267 -1.9767  1.1524
   82SAPS  H16Y 7739   5.695   2.634   9.158 -1.5126  0.1475 -3.0027
   82SAPS  C317 7740   5.653   2.485   9.023 -0.1363  0.2325 -0.1382
   82SAPS  H17X 7741   5.567   2.461   9.090  0.5975  1.5897  1.3586
   82SAPS  H17Y 7742   5.693   2.382   9.010 -0.1699  0.0509  1.0551
   82SAPS  C318 7743   5.628   2.563   8.895 -0.1107 -0.4651  0.0100
   82SAPS  H18X 7744   5.722   2.571   8.836  0.2676 -1.4112  0.4586
   82SAPS  H18Y 7745   5.610   2.670   8.918  0.5047 -0.7400  1.9364
   82SAPS  H18Z 7746   5.543   2.523   8.835 -0.4608 -0.5771  0.5742
   83SAPS     N 7747   2.308   5.049  11.160  0.2972  0.0979 -0.1996
   83SAPS   HN1 7748   2.404   5.048  11.200  0.6298 -0.3881 -0.9878
   83SAPS   HN2 7749   2.315   5.015  11.062  1.2042 -1.4738  0.3690
   83SAPS   HN3 7750   2.270   5.146  11.164  0.2654  0.0585  0.5763
   83SAPS   C12 7751   2.218   4.956  11.230 -0.1778  0.2282 -0.1836
   83SAPS  H12A 7752   2.287   4.875  11.251 -0.7114 -0.6182 -1.5757
   83SAPS   C13 7753   2.149   5.009  11.359 -0.4404 -0.1189  0.0523
   83SAPS  O13A 7754   2.170   5.131  11.394 -0.1379 -0.1170  0.0131
   83SAPS  O13B 7755   2.070   4.935  11.422  0.5054 -0.4100  0.8034
   83SAPS   C11 7756   2.102   4.910  11.145 -0.7695  0.1764  0.0516
   83SAPS  H11A 7757   2.035   4.990  11.109  0.5380  2.2381  1.9606
   83SAPS  H11B 7758   2.039   4.845  11.210 -1.9896  2.2842  1.0657
   83SAPS     P 7759   2.051   4.728  10.970 -0.2309 -0.3813 -0.1087
   83SAPS   O13 7760   2.047   4.613  11.061  0.6233  0.0205  0.1900
   83SAPS   O14 7761   1.922   4.789  10.934  0.2690  0.0509 -0.3636
   83SAPS   O12 7762   2.150   4.840  11.032  0.2296  0.7747  0.4161
   83SAPS   O11 7763   2.117   4.682  10.836  0.2878 -0.1971  0.0481
   83SAPS    C1 7764   2.204   4.777  10.766  0.9249 -0.4775  1.0190
   83SAPS    HA 7765   2.270   4.836  10.833  1.2320  1.2416 -0.6970
   83SAPS    HB 7766   2.265   4.715  10.697  0.0807 -1.4129  1.0931
   83SAPS    C2 7767   2.128   4.878  10.672 -0.5523  0.0852  0.2800
   83SAPS    HS 7768   2.090   4.953  10.744 -3.3338 -1.2728  0.3441
   83SAPS   O21 7769   2.014   4.815  10.595  0.5967  0.1376  0.2988
   83SAPS   C21 7770   1.915   4.906  10.584  0.1710 -0.2072  0.3628
   83SAPS   O22 7771   1.904   5.011  10.644 -0.2166  0.4145 -0.5526
   83SAPS   C22 7772   1.811   4.851  10.477  0.4805  0.4368 -0.9066
   83SAPS   H2R 7773   1.803   4.741  10.486  0.2805  0.5819  1.4589
   83SAPS   H2S 7774   1.709   4.889  10.500  0.9456  1.4302 -0.3992
   83SAPS    C3 7775   2.221   4.939  10.564 -0.3058 -0.2095 -1.0880
   83SAPS    HX 7776   2.263   4.857  10.501 -0.1975 -0.2933 -0.9080
   83SAPS    HY 7777   2.311   4.980  10.614 -0.9457  0.3472 -0.3665
   83SAPS   O31 7778   2.162   5.040  10.474  0.8243  0.1133 -0.2305
   83SAPS   C31 7779   2.161   5.158  10.531  0.5522 -0.4297  0.4096
   83SAPS   O32 7780   2.191   5.184  10.644 -0.6801 -0.8424 -0.5132
   83SAPS   C32 7781   2.083   5.254  10.438  0.4490 -0.2057 -0.3858
   83SAPS   H2X 7782   1.978   5.218  10.435  0.1835  0.2907  1.5882
   83SAPS   H2Y 7783   2.123   5.252  10.335 -3.2277 -0.2080 -1.9757
   83SAPS   C23 7784   1.837   4.873  10.323 -0.1782  0.6811  0.9842
   83SAPS   H3R 7785   1.877   4.977  10.320  0.8318  0.3015  0.9410
   83SAPS   H3S 7786   1.744   4.875  10.263  0.3884 -2.0624 -0.1063
   83SAPS   C24 7787   1.941   4.781  10.271 -0.0848  0.3124  0.6550
   83SAPS   H4R 7788   1.924   4.680  10.315  0.5098 -0.0224  0.1502
   83SAPS   H4S 7789   2.045   4.809  10.299  0.7533 -1.6636 -0.2969
   83SAPS   C25 7790   1.924   4.769  10.119  0.0840 -0.0185  0.1296
   83SAPS   H5R 7791   1.834   4.714  10.089 -0.0122  0.2170 -0.0211
   83SAPS   C26 7792   1.994   4.821  10.019 -0.0344  0.6369 -0.0256
   83SAPS   H6R 7793   1.964   4.788   9.919  0.7870 -0.4680  0.0764
   83SAPS   C27 7794   2.110   4.915  10.035 -0.0047  0.2105 -0.8502
   83SAPS   H7R 7795   2.205   4.872   9.996  0.0958 -0.3062 -0.0651
   83SAPS   H7S 7796   2.134   4.929  10.143 -0.0978 -2.1307 -0.4800
   83SAPS   C28 7797   2.070   5.049   9.970  0.4392 -0.0351  0.0185
   83SAPS   H8R 7798   2.029   5.123  10.040 -2.3306 -0.1128 -1.3966
   83SAPS   C29 7799   2.088   5.082   9.842  0.0065 -0.6428  0.0642
   83SAPS   H9R 7800   2.074   5.187   9.813  0.4562 -0.1333  1.6115
   83SAPS  C210 7801   2.157   4.992   9.745  0.1180 -0.3903  0.2499
   83SAPS  H10R 7802   2.085   4.910   9.721 -0.1810 -0.4065  1.1419
   83SAPS  H10S 7803   2.252   4.953   9.788  1.2099  1.0505 -0.7679
   83SAPS  C211 7804   2.180   5.065   9.612 -0.8056  0.5581  0.0475
   83SAPS  H11R 7805   2.262   5.139   9.617 -1.4278  1.1944  2.5440
   83SAPS  C212 7806   2.115   5.044   9.496 -0.3969 -0.1612 -0.3798
   83SAPS  H12R 7807   2.132   5.116   9.415 -2.9106 -0.0565 -0.9066
   83SAPS  C213 7808   1.994   4.954   9.478  1.4933  0.6567 -0.4147
   83SAPS  H13R 7809   1.930   4.955   9.568 -2.1958  1.3796 -2.8157
   83SAPS  H13S 7810   2.030   4.849   9.469 -1.5052 -0.6354  1.2824
   83SAPS  C214 7811   1.906   4.989   9.359  0.5785  0.3333  0.2019
   83SAPS  H14R 7812   1.837   5.073   9.374  0.8875  0.3805  1.4302
   83SAPS  C215 7813   1.913   4.929   9.238 -0.2593  0.2032 -0.2118
   83SAPS  H15R 7814   1.835   4.953   9.164 -1.7329  0.4694  1.3864
   83SAPS  C216 7815   2.016   4.821   9.187 -0.4116 -0.5388  0.2219
   83SAPS  H16R 7816   1.956   4.728   9.177 -2.4431  0.6661  0.6886
   83SAPS  H16S 7817   2.089   4.780   9.260  0.9538 -0.9733 -1.3231
   83SAPS  C217 7818   2.095   4.842   9.051  0.0021  0.1009  0.3645
   83SAPS  H17R 7819   2.164   4.755   9.045  0.0478  0.2126 -1.2282
   83SAPS  H17S 7820   2.156   4.934   9.066  1.9319 -0.4211 -3.1085
   83SAPS  C218 7821   2.012   4.843   8.922  0.1702 -0.5067  0.5844
   83SAPS  H18R 7822   2.081   4.843   8.835  0.6188 -0.0578  0.9337
   83SAPS  H18S 7823   1.960   4.942   8.924  1.1873  0.0589 -0.0456
   83SAPS  C219 7824   1.929   4.716   8.907  0.0284  0.9592 -0.1924
   83SAPS  H19R 7825   1.856   4.706   8.990  0.7677  0.7871  0.4510
   83SAPS  H19S 7826   1.989   4.623   8.913 -0.7612  0.4098 -0.7369
   83SAPS  C220 7827   1.848   4.716   8.778 -0.2631 -0.4202 -0.1410
   83SAPS  H20R 7828   1.908   4.753   8.692 -2.3062  1.3956 -0.8813
   83SAPS  H20S 7829   1.768   4.791   8.794 -0.1745 -0.3654  0.0476
   83SAPS  H20T 7830   1.802   4.618   8.755 -1.5373 -0.5960  2.7121
   83SAPS   C33 7831   2.068   5.406  10.482 -0.1101 -0.6403 -0.1785
   83SAPS   H3X 7832   2.013   5.410  10.578 -2.0652 -2.8143 -1.0992
   83SAPS   H3Y 7833   2.002   5.462  10.412 -0.5199  0.8162  1.3248
   83SAPS   C34 7834   2.197   5.482  10.491 -0.3532  0.0101  0.2421
   83SAPS   H4X 7835   2.284   5.420  10.522 -0.5536 -0.6952 -0.5573
   83SAPS   H4Y 7836   2.194   5.566  10.563  2.1755  0.4141 -0.0479
   83SAPS   C35 7837   2.232   5.555  10.355  0.5053 -0.2419  0.2959
   83SAPS   H5X 7838   2.330   5.606  10.366 -0.2225  1.2151  0.2719
   83SAPS   H5Y 7839   2.149   5.625  10.331  0.5024 -0.8772 -1.6844
   83SAPS   C36 7840   2.230   5.458  10.228 -0.1577  0.2567 -0.3525
   83SAPS   H6X 7841   2.130   5.409  10.227 -0.5832  0.6724  3.8106
   83SAPS   H6Y 7842   2.304   5.377  10.243 -1.2132 -0.4560  1.4155
   83SAPS   C37 7843   2.254   5.541  10.100  0.3850  0.4950 -0.6714
   83SAPS   H7X 7844   2.349   5.597  10.092  0.4607  0.3373 -0.8881
   83SAPS   H7Y 7845   2.182   5.625  10.107 -0.4900 -0.3638  1.6179
   83SAPS   C38 7846   2.256   5.456   9.971 -0.3852  0.0843  0.0979
   83SAPS   H8X 7847   2.165   5.393   9.976  0.4730 -1.2080 -0.2479
   83SAPS   H8Y 7848   2.332   5.375   9.967 -1.1501 -0.8830  2.7566
   83SAPS   C39 7849   2.258   5.537   9.847  0.4525 -0.5176 -0.0284
   83SAPS   H9X 7850   2.342   5.610   9.840  0.0515 -0.0029  0.5040
   83SAPS   H9Y 7851   2.163   5.594   9.849  0.5700 -0.3303  0.2180
   83SAPS  C310 7852   2.256   5.454   9.715 -0.4066 -0.2479 -0.1313
   83SAPS  H10X 7853   2.171   5.384   9.730 -1.3409  0.8481 -0.0984
   83SAPS  H10Y 7854   2.353   5.404   9.700 -0.2005  0.5496 -1.5802
   83SAPS  C311 7855   2.217   5.544   9.587 -0.6408  0.5407  0.3052
   83SAPS  H11X 7856   2.315   5.562   9.539  0.0049 -0.3150  1.2548
   83SAPS  H11Y 7857   2.181   5.642   9.625  2.5591  2.1705 -0.5032
   83SAPS  C312 7858   2.137   5.478   9.483  0.2325  0.5723 -0.1235
   83SAPS  H12X 7859   2.030   5.482   9.514  0.4333  1.8397  0.4473
   83SAPS  H12Y 7860   2.175   5.374   9.496 -1.6474 -0.0811  0.4894
   83SAPS  C313 7861   2.167   5.510   9.338  0.0385 -0.6237  0.5235
   83SAPS  H13X 7862   2.265   5.556   9.314  0.7693 -1.1046  2.4096
   83SAPS  H13Y 7863   2.082   5.572   9.302 -0.9475 -2.5268 -0.6023
   83SAPS  C314 7864   2.168   5.384   9.242  0.5254 -0.5975 -0.7831
   83SAPS  H14X 7865   2.071   5.332   9.259  0.0756  0.0763 -1.2706
   83SAPS  H14Y 7866   2.243   5.311   9.279  0.7412  0.4658  0.9820
   83SAPS  C315 7867   2.185   5.414   9.094 -0.4103 -0.3980 -0.1635
   83SAPS  H15X 7868   2.279   5.471   9.078 -0.1870 -0.7652 -0.1654
   83SAPS  H15Y 7869   2.101   5.476   9.056 -0.3666  0.7005  1.4358
   83SAPS  C316 7870   2.201   5.282   9.018  0.6328 -0.4711  0.3504
   83SAPS  H16X 7871   2.108   5.222   9.025 -0.9197  1.4708 -1.7662
   83SAPS  H16Y 7872   2.288   5.233   9.067  0.3846  0.8822  2.2476
   83SAPS  C317 7873   2.218   5.322   8.865  0.0106 -0.3421 -0.1278
   83SAPS  H17X 7874   2.300   5.397   8.872  0.0055 -0.5010  2.7611
   83SAPS  H17Y 7875   2.130   5.380   8.831  0.8496  1.2176  0.2195
   83SAPS  C318 7876   2.249   5.206   8.775  0.1761 -0.1446  0.0816
   83SAPS  H18X 7877   2.353   5.171   8.789 -0.5757 -2.7216 -0.3623
   83SAPS  H18Y 7878   2.236   5.244   8.671 -1.3645 -1.9168 -0.4233
   83SAPS  H18Z 7879   2.185   5.120   8.803 -0.7145  1.1173  2.2370
   84SAPS     N 7880   3.383   4.852  10.998 -0.2258 -0.0971  0.4414
   84SAPS   HN1 7881   3.475   4.878  10.957 -0.4367  0.8618  0.5501
   84SAPS   HN2 7882   3.378   4.751  10.973  1.1314 -0.1863  0.4866
   84SAPS   HN3 7883   3.299   4.897  10.957  1.5655  0.6724 -2.6656
   84SAPS   C12 7884   3.385   4.866  11.145  0.1630  0.5876 -0.2935
   84SAPS  H12A 7885   3.402   4.971  11.166  3.0605  0.2064 -0.2399
   84SAPS   C13 7886   3.262   4.821  11.218 -0.5730 -0.0429 -0.3026
   84SAPS  O13A 7887   3.153   4.810  11.154  0.2879  0.3869  0.0860
   84SAPS  O13B 7888   3.270   4.806  11.342 -0.1413  0.1385 -0.2482
   84SAPS   C11 7889   3.507   4.790  11.197  0.7577  0.0112  0.2597
   84SAPS  H11A 7890   3.484   4.681  11.199 -1.9790  0.5069 -0.2743
   84SAPS  H11B 7891   3.518   4.814  11.305 -0.3615  2.5128 -0.1195
   84SAPS     P 7892   3.777   4.820  11.173 -0.0687 -0.1880  0.1734
   84SAPS   O13 7893   3.842   4.932  11.100 -0.2484  0.2520  0.2545
   84SAPS   O14 7894   3.787   4.826  11.320  0.0457 -0.2563  0.1632
   84SAPS   O12 7895   3.629   4.824  11.129 -0.6679  0.3053 -0.4892
   84SAPS   O11 7896   3.844   4.683  11.126 -0.0635  0.4310  0.3430
   84SAPS    C1 7897   3.805   4.615  11.008 -0.1003  0.1508 -0.4168
   84SAPS    HA 7898   3.816   4.505  11.021 -0.9879  0.1106  0.0724
   84SAPS    HB 7899   3.695   4.630  10.995  0.0708  1.6542 -0.3421
   84SAPS    C2 7900   3.873   4.665  10.882 -1.0319 -1.0018 -0.0003
   84SAPS    HS 7901   3.867   4.776  10.872  1.2563 -0.9624 -1.5716
   84SAPS   O21 7902   3.812   4.610  10.762 -0.2510 -0.1358  0.8776
   84SAPS   C21 7903   3.691   4.651  10.740  0.4921 -0.0989 -0.3997
   84SAPS   O22 7904   3.630   4.745  10.792 -0.4651 -0.3858 -0.8649
   84SAPS   C22 7905   3.632   4.570  10.631 -0.0931 -0.2465  0.3293
   84SAPS   H2R 7906   3.709   4.538  10.557 -0.7821  0.6777 -0.8383
   84SAPS   H2S 7907   3.581   4.482  10.674  1.4847 -1.0369  0.6217
   84SAPS    C3 7908   4.025   4.616  10.882  0.1809  0.7044  0.4931
   84SAPS    HX 7909   4.037   4.509  10.856 -0.4053  1.1355 -1.7212
   84SAPS    HY 7910   4.063   4.633  10.985 -0.0420 -0.2178  0.7427
   84SAPS   O31 7911   4.096   4.695  10.786 -0.1740  0.0957 -0.0226
   84SAPS   C31 7912   4.161   4.621  10.692 -1.2585  0.1621 -1.3686
   84SAPS   O32 7913   4.165   4.501  10.689  0.3514  0.0093  0.5001
   84SAPS   C32 7914   4.238   4.712  10.602 -0.1043 -0.4041 -0.2250
   84SAPS   H2X 7915   4.272   4.806  10.649 -2.4297  0.0117  0.7567
   84SAPS   H2Y 7916   4.162   4.739  10.525 -1.2416 -0.8428  0.7145
   84SAPS   C23 7917   3.532   4.651  10.545  0.4028  0.1281 -0.5914
   84SAPS   H3R 7918   3.563   4.750  10.504 -3.0668  0.4284 -2.9416
   84SAPS   H3S 7919   3.451   4.695  10.607  2.0604  0.8784  1.1384
   84SAPS   C24 7920   3.453   4.570  10.438 -0.3521 -0.6063 -0.2664
   84SAPS   H4R 7921   3.363   4.627  10.408 -0.5771 -0.0670  1.3513
   84SAPS   H4S 7922   3.423   4.476  10.489  0.5245 -0.7508  0.0101
   84SAPS   C25 7923   3.533   4.530  10.317  0.0192 -0.6556 -0.0417
   84SAPS   H5R 7924   3.641   4.539  10.337 -0.0717 -0.0192  0.1770
   84SAPS   C26 7925   3.494   4.488  10.197 -0.2005  0.4118  0.7328
   84SAPS   H6R 7926   3.574   4.465  10.125 -0.4191 -0.7270  0.8297
   84SAPS   C27 7927   3.353   4.464  10.150  0.0676  0.6673 -0.4486
   84SAPS   H7R 7928   3.283   4.421  10.225  1.2211 -2.2293 -0.9156
   84SAPS   H7S 7929   3.358   4.386  10.071  4.2279 -2.1917  2.2050
   84SAPS   C28 7930   3.302   4.594  10.090  0.1527 -0.2520 -0.0309
   84SAPS   H8R 7931   3.301   4.678  10.161  0.8125 -1.5870  1.6236
   84SAPS   C29 7932   3.259   4.616   9.963  0.4222 -0.4528  0.2664
   84SAPS   H9R 7933   3.221   4.712   9.926 -0.1239 -1.1816 -1.1088
   84SAPS  C210 7934   3.259   4.509   9.856  0.6722 -0.1720 -0.3390
   84SAPS  H10R 7935   3.177   4.528   9.783 -0.0706  0.6691  0.6942
   84SAPS  H10S 7936   3.227   4.415   9.906  0.7709 -0.0989 -0.1390
   84SAPS  C211 7937   3.386   4.481   9.785  0.2807 -0.3241  0.6749
   84SAPS  H11R 7938   3.453   4.409   9.833 -1.6829 -4.5857 -2.3963
   84SAPS  C212 7939   3.429   4.530   9.668  0.1583 -0.2751  0.1172
   84SAPS  H12R 7940   3.522   4.494   9.622 -0.8302  0.2863 -2.4977
   84SAPS  C213 7941   3.338   4.611   9.577 -0.1820 -0.4177  0.6876
   84SAPS  H13R 7942   3.282   4.686   9.637 -0.9097 -1.2993  1.1380
   84SAPS  H13S 7943   3.264   4.541   9.533  2.4643 -2.3089 -1.1145
   84SAPS  C214 7944   3.392   4.697   9.467  0.3851  0.4494  0.0367
   84SAPS  H14R 7945   3.473   4.768   9.491  0.5928  0.2104  0.0357
   84SAPS  C215 7946   3.375   4.667   9.337  0.5907 -0.3894  0.1553
   84SAPS  H15R 7947   3.411   4.744   9.267  0.7978 -0.6301 -0.0045
   84SAPS  C216 7948   3.290   4.554   9.278  0.7232  0.0345 -0.0025
   84SAPS  H16R 7949   3.200   4.544   9.343  0.6320  0.8050 -0.0040
   84SAPS  H16S 7950   3.346   4.457   9.280  0.6557  0.0000  1.1934
   84SAPS  C217 7951   3.230   4.551   9.127  1.4009 -0.3427  0.0005
   84SAPS  H17R 7952   3.315   4.532   9.058  2.6178 -0.2488  1.4060
   84SAPS  H17S 7953   3.180   4.648   9.106 -0.9898 -1.6171 -0.5159
   84SAPS  C218 7954   3.131   4.434   9.118 -0.0197 -0.5554  0.2713
   84SAPS  H18R 7955   3.042   4.457   9.180  0.2449  2.1586 -0.2370
   84SAPS  H18S 7956   3.181   4.346   9.164  1.4162  0.6084  1.0099
   84SAPS  C219 7957   3.088   4.415   8.976 -0.5282 -0.8766  0.0079
   84SAPS  H19R 7958   3.183   4.397   8.920  0.5219 -0.9029  1.7356
   84SAPS  H19S 7959   3.033   4.505   8.943 -0.7281 -1.1239 -0.3508
   84SAPS  C220 7960   2.985   4.305   8.958  0.3137  0.3387  0.2004
   84SAPS  H20R 7961   2.935   4.314   8.859  0.3640  1.2984  0.2522
   84SAPS  H20S 7962   2.916   4.302   9.045 -1.4636 -1.3289 -1.1644
   84SAPS  H20T 7963   3.033   4.205   8.963 -4.8291 -2.4712  1.4943
   84SAPS   C33 7964   4.359   4.642  10.541  0.1047 -0.3347 -0.0304
   84SAPS   H3X 7965   4.333   4.558  10.473  3.3478 -0.8810 -0.7561
   84SAPS   H3Y 7966   4.422   4.596  10.620 -2.8623 -2.8596  1.0341
   84SAPS   C34 7967   4.439   4.752  10.472 -0.1446  0.4136 -0.4640
   84SAPS   H4X 7968   4.536   4.704  10.449 -0.7926 -1.4573  0.5420
   84SAPS   H4Y 7969   4.456   4.837  10.542 -1.0468  0.0734  0.1883
   84SAPS   C35 7970   4.377   4.808  10.344 -0.0986  0.2788 -0.6181
   84SAPS   H5X 7971   4.311   4.891  10.377 -0.3953  0.1073 -0.7775
   84SAPS   H5Y 7972   4.307   4.736  10.297  0.1076  0.3767 -1.0766
   84SAPS   C36 7973   4.485   4.867  10.251  0.1507 -0.2678  0.4539
   84SAPS   H6X 7974   4.553   4.789  10.212  1.6297  1.3149 -0.2424
   84SAPS   H6Y 7975   4.545   4.946  10.301 -0.6820  1.4701 -1.1875
   84SAPS   C37 7976   4.437   4.929  10.114 -0.1543  0.0309 -0.2789
   84SAPS   H7X 7977   4.520   4.972  10.054 -0.5039 -1.1026 -1.6453
   84SAPS   H7Y 7978   4.359   5.006  10.129 -0.4147 -0.0266 -1.2285
   84SAPS   C38 7979   4.367   4.827  10.016  0.4415 -0.0704 -0.1528
   84SAPS   H8X 7980   4.278   4.787  10.070  0.8164  0.3128  0.7631
   84SAPS   H8Y 7981   4.439   4.742  10.017 -0.1850 -0.6995 -2.4009
   84SAPS   C39 7982   4.355   4.888   9.872  0.4142  0.3481 -0.2967
   84SAPS   H9X 7983   4.457   4.919   9.841  0.7551  0.6371  1.0701
   84SAPS   H9Y 7984   4.286   4.974   9.886 -1.0100 -1.0090  1.6234
   84SAPS  C310 7985   4.302   4.784   9.769  0.1400  0.1333  0.2519
   84SAPS  H10X 7986   4.194   4.762   9.781  0.3440 -2.5673 -1.9877
   84SAPS  H10Y 7987   4.346   4.687   9.803  1.3299  0.4696 -0.2734
   84SAPS  C311 7988   4.336   4.825   9.628  0.8583  0.1768 -0.3945
   84SAPS  H11X 7989   4.443   4.814   9.603  1.2255  0.7159  0.8500
   84SAPS  H11Y 7990   4.311   4.932   9.613  2.2305  0.8764  1.7991
   84SAPS  C312 7991   4.257   4.747   9.521  0.3441  0.1039  0.3827
   84SAPS  H12X 7992   4.156   4.794   9.526  0.5026  1.1611 -3.2503
   84SAPS  H12Y 7993   4.253   4.639   9.543 -1.4824  0.2605  0.9450
   84SAPS  C313 7994   4.305   4.768   9.374 -0.0219  0.5008  0.3123
   84SAPS  H13X 7995   4.410   4.733   9.379 -0.0980  0.3925  1.4142
   84SAPS  H13Y 7996   4.292   4.875   9.348 -0.2275  0.0644 -1.5324
   84SAPS  C314 7997   4.221   4.694   9.266 -0.2151 -0.3039  0.0245
   84SAPS  H14X 7998   4.117   4.731   9.262  0.8667  2.9170 -1.6170
   84SAPS  H14Y 7999   4.227   4.589   9.302  2.1173  0.0690  0.9523
   84SAPS  C315 8000   4.278   4.697   9.124 -0.7214 -0.4896 -0.1643
   84SAPS  H15X 8001   4.388   4.690   9.138 -0.6140 -4.4289 -1.7149
   84SAPS  H15Y 8002   4.251   4.795   9.081  0.6409  0.5195  1.1925
   84SAPS  C316 8003   4.236   4.574   9.040 -0.1241 -0.0874  0.1952
   84SAPS  H16X 8004   4.285   4.495   9.100  1.1104  1.5532  1.4371
   84SAPS  H16Y 8005   4.289   4.579   8.943 -0.7683 -0.0734 -0.1659
   84SAPS  C317 8006   4.083   4.558   9.018  0.3233 -0.2391 -0.2131
   84SAPS  H17X 8007   4.036   4.659   9.014 -1.5079 -1.0766 -0.8103
   84SAPS  H17Y 8008   4.044   4.505   9.108  2.2714  0.8839  1.3877
   84SAPS  C318 8009   4.039   4.477   8.897 -0.4586 -0.2264 -0.3138
   84SAPS  H18X 8010   4.067   4.542   8.812  1.0730 -1.3065 -0.6959
   84SAPS  H18Y 8011   3.928   4.474   8.901 -0.4336 -0.3535  0.3980
   84SAPS  H18Z 8012   4.086   4.376   8.898  0.9333  0.3833  0.9554
   85SAPS     N 8013   0.486   6.510  10.716  0.1184  0.4570  0.5701
   85SAPS   HN1 8014   0.469   6.484  10.617 -1.3015 -0.4801  1.0310
   85SAPS   HN2 8015   0.537   6.429  10.757  1.4645  1.0701  0.1788
   85SAPS   HN3 8016   0.391   6.520  10.756 -0.4643 -0.7499 -0.4517
   85SAPS   C12 8017   0.572   6.630  10.723  0.6660 -0.3287  0.1537
   85SAPS  H12A 8018   0.677   6.611  10.706  0.2525 -0.3103 -3.1007
   85SAPS   C13 8019   0.535   6.741  10.621 -0.0966 -0.0414  0.2394
   85SAPS  O13A 8020   0.421   6.743  10.572  0.0352 -0.4219  0.4002
   85SAPS  O13B 8021   0.608   6.845  10.621 -0.4769 -0.6264 -0.1964
   85SAPS   C11 8022   0.572   6.689  10.867 -0.2449  0.3358  0.6769
   85SAPS  H11A 8023   0.470   6.709  10.905 -0.5974 -2.7462  1.6283
   85SAPS  H11B 8024   0.619   6.788  10.855 -1.9325  0.8792 -2.2282
   85SAPS     P 8025   0.786   6.642  11.005 -0.4134 -0.1188  0.2723
   85SAPS   O13 8026   0.796   6.788  11.043  0.4136 -0.4004  0.3491
   85SAPS   O14 8027   0.834   6.537  11.102 -0.2512 -0.3170 -0.3143
   85SAPS   O12 8028   0.632   6.600  10.960 -0.1867  0.2475  0.6787
   85SAPS   O11 8029   0.854   6.634  10.869 -0.2574  0.0306 -0.0811
   85SAPS    C1 8030   0.977   6.584  10.827 -0.5509 -0.0510  0.1146
   85SAPS    HA 8031   1.040   6.665  10.784  0.3909 -0.2598  1.0515
   85SAPS    HB 8032   1.035   6.535  10.909  0.7150 -1.4061 -1.5069
   85SAPS    C2 8033   0.964   6.464  10.729  0.5928 -0.1456  0.7948
   85SAPS    HS 8034   1.064   6.418  10.720  1.4190  1.6808 -0.0177
   85SAPS   O21 8035   0.905   6.506  10.606 -0.2354  0.3059 -0.9091
   85SAPS   C21 8036   0.989   6.570  10.525 -0.8440  0.3206 -0.4199
   85SAPS   O22 8037   1.110   6.567  10.529 -0.0496  0.6296  1.2814
   85SAPS   C22 8038   0.905   6.615  10.408 -0.1181  0.7851 -0.2126
   85SAPS   H2R 8039   0.849   6.523  10.380  2.0644 -0.6835  0.0362
   85SAPS   H2S 8040   0.838   6.695  10.445  1.3089  0.9309  2.2746
   85SAPS    C3 8041   0.878   6.348  10.794 -0.4463  0.0004  0.2858
   85SAPS    HX 8042   0.779   6.392  10.816 -0.0435  1.1543 -0.1298
   85SAPS    HY 8043   0.919   6.314  10.891 -1.7556  2.5707  1.8250
   85SAPS   O31 8044   0.871   6.237  10.705 -0.5757  0.2639  0.0073
   85SAPS   C31 8045   0.758   6.233  10.627  0.0877  0.0120 -0.2925
   85SAPS   O32 8046   0.653   6.288  10.653 -0.2331  0.2304 -0.3080
   85SAPS   C32 8047   0.785   6.164  10.494 -0.0660  0.7422 -0.0667
   85SAPS   H2X 8048   0.760   6.059  10.521  2.6604  0.5130  1.9291
   85SAPS   H2Y 8049   0.893   6.163  10.470 -0.3655 -3.2346 -2.0585
   85SAPS   C23 8050   0.996   6.666  10.298  0.2670 -0.4364 -0.1358
   85SAPS   H3R 8051   1.066   6.746  10.330  1.3461 -1.6649  0.6849
   85SAPS   H3S 8052   0.918   6.706  10.229  0.1877 -1.8053 -0.8961
   85SAPS   C24 8053   1.073   6.568  10.215  0.1325  0.0415  0.7790
   85SAPS   H4R 8054   1.138   6.514  10.287 -1.4364  0.3862  2.5340
   85SAPS   H4S 8055   1.145   6.622  10.150 -1.3895  0.8549 -0.2980
   85SAPS   C25 8056   0.985   6.464  10.141 -0.1548 -0.4443  0.3071
   85SAPS   H5R 8057   0.939   6.387  10.205 -0.0854 -1.5766 -0.9674
   85SAPS   C26 8058   0.972   6.470  10.004  0.9316  0.0952 -0.8003
   85SAPS   H6R 8059   0.900   6.400   9.960 -2.0139  1.0102  2.1601
   85SAPS   C27 8060   1.044   6.564   9.906 -0.0969  0.4084 -0.2088
   85SAPS   H7R 8061   1.101   6.643   9.960 -0.5599  1.3219 -1.0279
   85SAPS   H7S 8062   0.974   6.630   9.852  0.9955  2.9094  1.2524
   85SAPS   C28 8063   1.136   6.497   9.805 -0.0008 -0.0838 -0.1072
   85SAPS   H8R 8064   1.233   6.457   9.839  0.4176  1.1295  0.1608
   85SAPS   C29 8065   1.090   6.462   9.684 -0.7407 -0.5279  0.3145
   85SAPS   H9R 8066   1.159   6.415   9.612  0.4734  1.5154  0.0740
   85SAPS  C210 8067   0.957   6.489   9.619  0.1663 -0.1892 -0.3419
   85SAPS  H10R 8068   0.868   6.475   9.683 -0.3640 -1.4162 -1.2976
   85SAPS  H10S 8069   0.952   6.408   9.542 -1.5603 -2.2590  1.7863
   85SAPS  C211 8070   0.946   6.616   9.542 -0.5699  0.3650  0.7463
   85SAPS  H11R 8071   0.907   6.701   9.601 -0.6492  0.2515  0.8573
   85SAPS  C212 8072   0.973   6.639   9.413 -1.2056 -0.3914  0.2153
   85SAPS  H12R 8073   0.951   6.738   9.372  0.2942 -0.2101 -0.1833
   85SAPS  C213 8074   1.031   6.540   9.312 -0.0121  0.2404  0.1761
   85SAPS  H13R 8075   1.086   6.458   9.364 -1.5480 -0.7070  0.3776
   85SAPS  H13S 8076   1.106   6.590   9.248  0.1963 -0.2119  0.0626
   85SAPS  C214 8077   0.942   6.458   9.223  0.4686  0.0368 -0.2365
   85SAPS  H14R 8078   0.846   6.429   9.268  0.7746  0.9297  1.0527
   85SAPS  C215 8079   0.978   6.401   9.106  0.5973 -0.0425  0.4587
   85SAPS  H15R 8080   0.897   6.363   9.042  0.6779  1.1685 -0.3985
   85SAPS  C216 8081   1.112   6.420   9.036  0.2239  0.2950 -0.6943
   85SAPS  H16R 8082   1.180   6.334   9.053  1.1687  1.1648  0.0273
   85SAPS  H16S 8083   1.168   6.511   9.066 -0.7694  0.8212 -0.3912
   85SAPS  C217 8084   1.092   6.438   8.883 -0.4892 -0.6596 -0.3461
   85SAPS  H17R 8085   1.018   6.517   8.861  2.0080  1.7421 -0.6580
   85SAPS  H17S 8086   1.043   6.351   8.834  1.2303 -1.5616 -0.5568
   85SAPS  C218 8087   1.208   6.476   8.803  0.2035 -0.5707  1.0562
   85SAPS  H18R 8088   1.292   6.407   8.821  0.8531 -0.6020 -1.7173
   85SAPS  H18S 8089   1.250   6.574   8.835  0.2518 -0.1440 -0.2535
   85SAPS  C219 8090   1.175   6.489   8.649 -0.4980 -0.7698 -0.2525
   85SAPS  H19R 8091   1.092   6.559   8.627 -0.0115  0.5180  1.7435
   85SAPS  H19S 8092   1.170   6.388   8.603 -0.6002 -0.1865 -1.5685
   85SAPS  C220 8093   1.294   6.569   8.577  0.3085  0.1444  0.7308
   85SAPS  H20R 8094   1.317   6.675   8.604  1.4291  0.0913  0.0514
   85SAPS  H20S 8095   1.261   6.561   8.472 -1.3293 -0.4908  1.2631
   85SAPS  H20T 8096   1.396   6.524   8.579  0.1368 -0.2538  0.4829
   85SAPS   C33 8097   0.696   6.212  10.375 -0.4353  0.0732  0.1415
   85SAPS   H3X 8098   0.687   6.322  10.364  0.5313 -0.0395 -2.2038
   85SAPS   H3Y 8099   0.595   6.168  10.387 -1.2443  1.2235 -1.9963
   85SAPS   C34 8100   0.745   6.157  10.241  0.1966  0.1015 -0.2508
   85SAPS   H4X 8101   0.732   6.047  10.234 -0.1493  0.0051  1.4244
   85SAPS   H4Y 8102   0.855   6.175  10.237  0.6036 -0.4775  3.9958
   85SAPS   C35 8103   0.675   6.227  10.121  0.3953 -0.7427  0.0217
   85SAPS   H5X 8104   0.691   6.337  10.126  2.2193 -1.0301  1.1818
   85SAPS   H5Y 8105   0.565   6.211  10.126 -0.3789  2.4988 -2.8035
   85SAPS   C36 8106   0.732   6.184   9.981 -0.7370 -0.0653 -0.1706
   85SAPS   H6X 8107   0.727   6.073   9.970  1.0816 -0.0694 -1.5303
   85SAPS   H6Y 8108   0.842   6.199   9.984 -0.7827  0.0514  1.5631
   85SAPS   C37 8109   0.660   6.254   9.865 -1.0481  0.0476 -0.1720
   85SAPS   H7X 8110   0.681   6.363   9.864  2.7481 -0.4254  3.4456
   85SAPS   H7Y 8111   0.553   6.223   9.860 -1.0640 -0.1080  0.9017
   85SAPS   C38 8112   0.730   6.212   9.734 -0.0797 -0.2934 -0.4682
   85SAPS   H8X 8113   0.756   6.104   9.725  2.2195  0.1095  0.5624
   85SAPS   H8Y 8114   0.831   6.258   9.737 -0.1988  0.0289 -1.2113
   85SAPS   C39 8115   0.670   6.276   9.604 -0.2130 -0.5163 -0.5515
   85SAPS   H9X 8116   0.699   6.383   9.607  0.0280 -0.5658 -1.0715
   85SAPS   H9Y 8117   0.559   6.273   9.603 -0.3214  0.8717  1.4037
   85SAPS  C310 8118   0.723   6.213   9.479  0.4461  0.1170  0.3377
   85SAPS  H10X 8119   0.705   6.105   9.497 -0.9061  0.8489  4.1797
   85SAPS  H10Y 8120   0.834   6.211   9.470  0.3302  0.7552 -2.1440
   85SAPS  C311 8121   0.650   6.263   9.363  0.0125 -0.7107  0.1162
   85SAPS  H11X 8122   0.656   6.374   9.352 -0.0548 -0.8922 -2.2196
   85SAPS  H11Y 8123   0.546   6.230   9.383 -1.0529  2.2597 -0.0311
   85SAPS  C312 8124   0.684   6.196   9.229  0.6853  0.1683 -0.5601
   85SAPS  H12X 8125   0.705   6.089   9.247  1.5588  0.6769  1.8619
   85SAPS  H12Y 8126   0.782   6.226   9.187  0.3510 -1.5642 -2.7214
   85SAPS  C313 8127   0.578   6.199   9.123  0.6219 -0.2981 -0.0462
   85SAPS  H13X 8128   0.535   6.297   9.093 -0.2221 -1.3977 -2.7507
   85SAPS  H13Y 8129   0.495   6.136   9.161 -0.3108  1.4615  0.9466
   85SAPS  C314 8130   0.619   6.127   8.989 -0.7249  0.0040 -0.8931
   85SAPS  H14X 8131   0.539   6.163   8.922 -1.1894  0.9947  0.1544
   85SAPS  H14Y 8132   0.609   6.017   9.003 -1.6325  0.2151  0.2885
   85SAPS  C315 8133   0.749   6.170   8.920 -0.8310 -0.1481 -0.0426
   85SAPS  H15X 8134   0.832   6.172   8.993  1.4755  4.5774 -2.3030
   85SAPS  H15Y 8135   0.746   6.276   8.886  1.7266  0.4893  1.4966
   85SAPS  C316 8136   0.768   6.081   8.796 -0.9283 -0.3253 -0.1565
   85SAPS  H16X 8137   0.676   6.082   8.734  0.1737 -0.8971 -1.8551
   85SAPS  H16Y 8138   0.779   5.974   8.826 -0.8734 -0.6633 -1.3353
   85SAPS  C317 8139   0.881   6.114   8.695 -0.3579  0.1186  0.5506
   85SAPS  H17X 8140   0.893   6.029   8.624 -2.8899  1.2625 -1.4027
   85SAPS  H17Y 8141   0.974   6.105   8.756 -0.6227  1.5324  1.2153
   85SAPS  C318 8142   0.873   6.235   8.606  0.3937 -0.5643 -1.0271
   85SAPS  H18X 8143   0.767   6.235   8.574  0.1893  0.1948 -0.3919
   85SAPS  H18Y 8144   0.934   6.237   8.513  0.5293 -0.5723 -0.9393
   85SAPS  H18Z 8145   0.881   6.328   8.667 -4.3570 -1.5263  1.5466
   86SAPS     N 8146   2.541   6.671  11.224 -0.6296 -0.0094  0.2045
   86SAPS   HN1 8147   2.502   6.602  11.157 -1.6988 -1.2606  2.0101
   86SAPS   HN2 8148   2.564   6.622  11.313  0.4519 -2.6238 -1.3782
   86SAPS   HN3 8149   2.476   6.746  11.256 -1.7269 -0.2691 -1.3276
   86SAPS   C12 8150   2.670   6.722  11.175 -0.3807 -0.3978  0.6325
   86SAPS  H12A 8151   2.639   6.781  11.090  0.2844 -0.0779  0.6069
   86SAPS   C13 8152   2.750   6.807  11.275  0.0821 -0.9553 -0.2123
   86SAPS  O13A 8153   2.719   6.810  11.400 -0.0844 -0.0121 -0.2817
   86SAPS  O13B 8154   2.853   6.866  11.235  0.3558  0.0684  0.1069
   86SAPS   C11 8155   2.762   6.601  11.134 -0.3652 -0.6018  0.1449
   86SAPS  H11A 8156   2.780   6.539  11.225 -0.2804  0.5556  0.9379
   86SAPS  H11B 8157   2.861   6.637  11.099 -0.7939 -0.6990 -1.2019
   86SAPS     P 8158   2.691   6.363  11.038 -0.0521 -0.2697 -0.0044
   86SAPS   O13 8159   2.699   6.301  11.176 -0.0864 -0.1173  0.3375
   86SAPS   O14 8160   2.574   6.326  10.959 -0.0978  0.2430 -0.0319
   86SAPS   O12 8161   2.690   6.524  11.038 -0.0603 -0.5420  0.4229
   86SAPS   O11 8162   2.822   6.320  10.960  0.0025 -0.5256 -0.0721
   86SAPS    C1 8163   2.915   6.413  10.896 -0.3579 -0.3860 -0.0150
   86SAPS    HA 8164   2.914   6.516  10.936  2.0883 -0.9055  1.6272
   86SAPS    HB 8165   3.015   6.366  10.906 -0.5743 -0.8857 -0.1604
   86SAPS    C2 8166   2.896   6.419  10.746  0.7261  0.2083 -0.2037
   86SAPS    HS 8167   2.985   6.472  10.706  0.9398 -0.7457 -1.0299
   86SAPS   O21 8168   2.769   6.489  10.708  0.7203  0.0394 -0.5254
   86SAPS   C21 8169   2.749   6.614  10.767  0.1260  0.0348  0.4799
   86SAPS   O22 8170   2.843   6.681  10.801 -0.5078 -0.6861 -0.8772
   86SAPS   C22 8171   2.601   6.644  10.747 -0.0443  0.2964  0.4363
   86SAPS   H2R 8172   2.551   6.546  10.731  2.0124 -0.5046 -1.6515
   86SAPS   H2S 8173   2.578   6.686  10.847 -3.4531  2.3402 -1.0447
   86SAPS    C3 8174   2.908   6.273  10.684 -0.5484 -0.1005  0.2967
   86SAPS    HX 8175   2.848   6.204  10.747 -0.6194 -0.0940  0.2367
   86SAPS    HY 8176   3.008   6.226  10.694 -0.6946 -0.1331  1.8789
   86SAPS   O31 8177   2.858   6.253  10.551  0.5502  0.2312  0.1099
   86SAPS   C31 8178   2.949   6.293  10.452 -0.3122  1.0957 -0.1261
   86SAPS   O32 8179   3.065   6.322  10.472 -0.1360 -0.5008 -0.4026
   86SAPS   C32 8180   2.877   6.288  10.319  0.1385  0.7226 -0.2093
   86SAPS   H2X 8181   2.810   6.376  10.325  1.0643  1.4420 -0.1732
   86SAPS   H2Y 8182   2.810   6.199  10.316  0.9519  0.0958 -0.4584
   86SAPS   C23 8183   2.560   6.742  10.635 -0.3927  0.3924 -0.5960
   86SAPS   H3R 8184   2.577   6.844  10.676 -2.1378 -0.3113  2.1805
   86SAPS   H3S 8185   2.450   6.752  10.637 -0.1867  4.0161 -0.5875
   86SAPS   C24 8186   2.606   6.721  10.487  0.0124  0.5145 -0.1052
   86SAPS   H4R 8187   2.537   6.778  10.421 -1.6133  0.0033  1.0759
   86SAPS   H4S 8188   2.574   6.616  10.468  0.7584  0.5817 -1.9118
   86SAPS   C25 8189   2.747   6.733  10.464 -0.4944 -0.3728 -0.0858
   86SAPS   H5R 8190   2.817   6.697  10.542 -0.5968 -0.0495  0.1568
   86SAPS   C26 8191   2.810   6.796  10.367  0.2652 -0.2849  0.3009
   86SAPS   H6R 8192   2.919   6.797  10.351 -0.0113 -1.2332 -2.1319
   86SAPS   C27 8193   2.744   6.860  10.249  0.4841 -0.8030  0.3229
   86SAPS   H7R 8194   2.677   6.944  10.277 -1.1628 -2.2858  1.0544
   86SAPS   H7S 8195   2.689   6.789  10.184  3.0066 -2.5997 -0.0333
   86SAPS   C28 8196   2.855   6.931  10.163  0.0981 -0.1640  0.8414
   86SAPS   H8R 8197   2.873   7.038  10.181 -1.3290  0.2781 -0.1593
   86SAPS   C29 8198   2.912   6.870  10.063  0.0341 -0.3972  0.9981
   86SAPS   H9R 8199   2.984   6.923   9.999 -0.6051 -0.6989  0.0238
   86SAPS  C210 8200   2.890   6.729  10.015 -0.7856 -0.1507  0.3405
   86SAPS  H10R 8201   2.787   6.713   9.977 -1.2456  1.1484  0.9921
   86SAPS  H10S 8202   2.896   6.663  10.105  0.6501 -1.0248 -0.3606
   86SAPS  C211 8203   2.993   6.677   9.919 -0.0543  0.4884 -0.0848
   86SAPS  H11R 8204   3.058   6.607   9.974 -1.8885  0.7384  2.5699
   86SAPS  C212 8205   2.995   6.695   9.784 -0.3704 -0.3570 -0.2801
   86SAPS  H12R 8206   3.074   6.649   9.724  1.1838  2.6414 -0.7415
   86SAPS  C213 8207   2.903   6.782   9.711 -0.6999  0.0357 -0.7118
   86SAPS  H13R 8208   2.955   6.874   9.677  0.6007 -0.5606 -0.4024
   86SAPS  H13S 8209   2.826   6.826   9.779  0.1701  1.3037 -0.4963
   86SAPS  C214 8210   2.835   6.714   9.601 -0.0161 -0.7381 -0.6241
   86SAPS  H14R 8211   2.759   6.638   9.627 -1.0050 -0.2100 -1.8407
   86SAPS  C215 8212   2.858   6.721   9.469 -0.4680  0.3667 -0.5156
   86SAPS  H15R 8213   2.799   6.655   9.403 -1.3760 -0.9639  1.5255
   86SAPS  C216 8214   2.957   6.805   9.397  0.8043 -0.0246  1.2518
   86SAPS  H16R 8215   2.986   6.895   9.454  1.0137  1.5007 -1.1511
   86SAPS  H16S 8216   2.912   6.841   9.302  1.2576 -0.0626  1.0198
   86SAPS  C217 8217   3.081   6.724   9.362  0.2278 -0.7083  0.9636
   86SAPS  H17R 8218   3.062   6.623   9.319  2.9162 -1.1576  0.6732
   86SAPS  H17S 8219   3.136   6.704   9.457 -1.5244 -2.3515  1.7136
   86SAPS  C218 8220   3.168   6.799   9.259  0.1820  0.0328  0.2896
   86SAPS  H18R 8221   3.104   6.827   9.172  0.0044  0.2154  0.4794
   86SAPS  H18S 8222   3.244   6.725   9.224  1.4137  0.4067  2.0324
   86SAPS  C219 8223   3.234   6.927   9.310 -0.1329 -0.4079  0.2714
   86SAPS  H19R 8224   3.158   7.005   9.330  0.2891  0.1467 -0.2227
   86SAPS  H19S 8225   3.283   6.967   9.218 -1.7970  1.3184  0.0804
   86SAPS  C220 8226   3.342   6.916   9.425  0.1511  0.1876 -0.0222
   86SAPS  H20R 8227   3.285   6.876   9.511  0.5373 -0.4679 -0.0621
   86SAPS  H20S 8228   3.379   7.018   9.449 -0.9313  0.3292  1.1297
   86SAPS  H20T 8229   3.419   6.842   9.393  0.0928 -0.3582  1.0403
   86SAPS   C33 8230   2.980   6.295  10.191  0.8722 -0.1796  0.3615
   86SAPS   H3X 8231   3.041   6.202  10.181  3.0096  1.3419 -1.9543
   86SAPS   H3Y 8232   3.047   6.384  10.189 -0.3316  0.7458 -1.8737
   86SAPS   C34 8233   2.897   6.307  10.063 -0.4523  0.1977 -0.2885
   86SAPS   H4X 8234   2.831   6.397  10.063 -1.4154 -0.4650  1.4362
   86SAPS   H4Y 8235   2.838   6.214  10.052  0.2901 -0.2956 -0.1364
   86SAPS   C35 8236   2.997   6.315   9.953  0.5158 -0.8903  0.8454
   86SAPS   H5X 8237   3.070   6.232   9.957  0.1275 -1.4916 -2.2764
   86SAPS   H5Y 8238   3.059   6.407   9.960  1.4101 -1.4931  1.0520
   86SAPS   C36 8239   2.929   6.321   9.814  1.0076  0.1583 -0.9076
   86SAPS   H6X 8240   2.884   6.422   9.827 -1.8603 -0.9962 -0.9668
   86SAPS   H6Y 8241   2.850   6.245   9.794  0.4061  0.5258 -0.0042
   86SAPS   C37 8242   3.035   6.314   9.706 -0.7994  0.5833  1.0075
   86SAPS   H7X 8243   3.090   6.218   9.719  0.2795  0.8822 -0.9601
   86SAPS   H7Y 8244   3.100   6.404   9.718 -1.0121  0.7563  0.8652
   86SAPS   C38 8245   2.990   6.323   9.558  0.2095  0.0497  0.6610
   86SAPS   H8X 8246   2.944   6.423   9.550 -0.2766 -0.2010  0.2805
   86SAPS   H8Y 8247   2.902   6.259   9.538  0.2406  0.0075  0.6578
   86SAPS   C39 8248   3.096   6.303   9.448 -0.1178  0.2757  0.2130
   86SAPS   H9X 8249   3.130   6.198   9.463  0.3352  0.3025 -0.5798
   86SAPS   H9Y 8250   3.168   6.385   9.464 -2.7999  2.3491  2.8050
   86SAPS  C310 8251   3.042   6.318   9.306  0.1763 -0.1260  0.4062
   86SAPS  H10X 8252   3.018   6.422   9.278  1.3516  1.1293  3.6064
   86SAPS  H10Y 8253   2.944   6.265   9.309  0.8514 -1.4312  0.4081
   86SAPS  C311 8254   3.131   6.249   9.203  0.4721  0.3216 -0.1246
   86SAPS  H11X 8255   3.141   6.140   9.221 -2.4578  0.2590  1.7296
   86SAPS  H11Y 8256   3.234   6.289   9.218  0.5992  0.0779 -0.3628
   86SAPS  C312 8257   3.096   6.273   9.052  0.3681  0.0857 -0.4370
   86SAPS  H12X 8258   3.075   6.380   9.031 -3.5482 -0.5908 -0.7076
   86SAPS  H12Y 8259   2.993   6.236   9.033  0.3538 -0.0997  0.0038
   86SAPS  C313 8260   3.203   6.211   8.965  0.1625  0.0839 -0.6087
   86SAPS  H13X 8261   3.205   6.103   8.992  1.5715  0.3812  0.5975
   86SAPS  H13Y 8262   3.300   6.249   9.001  0.1601 -0.3651 -0.1211
   86SAPS  C314 8263   3.177   6.232   8.823  0.0646  0.4980  0.4873
   86SAPS  H14X 8264   3.195   6.337   8.792 -1.1264  0.3368 -0.8251
   86SAPS  H14Y 8265   3.073   6.212   8.790  0.3555  1.4285 -1.0729
   86SAPS  C315 8266   3.271   6.133   8.741  0.3782  0.0031 -0.6968
   86SAPS  H15X 8267   3.249   6.026   8.761  2.4475 -0.5195 -0.9487
   86SAPS  H15Y 8268   3.378   6.152   8.762 -0.0476  2.1348 -0.2447
   86SAPS  C316 8269   3.247   6.153   8.591  0.1095 -0.4512  0.1446
   86SAPS  H16X 8270   3.290   6.252   8.564 -0.2980 -0.1965  0.4216
   86SAPS  H16Y 8271   3.141   6.150   8.558  0.0854 -0.6231  0.2363
   86SAPS  C317 8272   3.314   6.056   8.495  0.5032  0.4542  0.3455
   86SAPS  H17X 8273   3.284   5.952   8.519  3.6536 -0.7803 -0.6035
   86SAPS  H17Y 8274   3.425   6.059   8.496  0.6320 -2.2459  0.5580
   86SAPS  C318 8275   3.259   6.090   8.351 -0.0105  0.3525  0.1020
   86SAPS  H18X 8276   3.149   6.075   8.355  0.2399 -1.7323  0.6102
   86SAPS  H18Y 8277   3.300   6.020   8.275 -1.4364 -1.7749  1.1861
   86SAPS  H18Z 8278   3.281   6.196   8.328 -1.5774  0.1473 -2.8245
   87SAPS     N 8279   1.742   0.429  11.390  0.1485  0.5476 -0.0795
   87SAPS   HN1 8280   1.841   0.457  11.372  0.9130 -1.9343 -0.1237
   87SAPS   HN2 8281   1.691   0.439  11.300 -1.4605 -0.9280  0.6204
   87SAPS   HN3 8282   1.696   0.490  11.461  3.2404  1.6397  1.2079
   87SAPS   C12 8283   1.742   0.296  11.443  0.5492  0.2563 -0.2404
   87SAPS  H12A 8284   1.813   0.281  11.523 -0.1795 -2.1157  0.0110
   87SAPS   C13 8285   1.611   0.244  11.506 -0.0085 -0.1769 -0.5901
   87SAPS  O13A 8286   1.521   0.328  11.524 -0.1813 -0.3616  0.2025
   87SAPS  O13B 8287   1.611   0.138  11.568  0.6003  0.4321  0.3497
   87SAPS   C11 8288   1.795   0.196  11.326  0.7357  0.1467  0.9269
   87SAPS  H11A 8289   1.738   0.230  11.237 -1.3422 -0.9727  1.7541
   87SAPS  H11B 8290   1.774   0.092  11.362 -0.7638  0.2707  0.4584
   87SAPS     P 8291   2.007   0.163  11.173  0.2268 -0.0031  0.2164
   87SAPS   O13 8292   2.054   0.294  11.109 -0.4680  0.3727  0.5125
   87SAPS   O14 8293   2.107   0.059  11.208 -0.3516 -0.1924  0.5413
   87SAPS   O12 8294   1.935   0.212  11.306  0.4426 -0.8304 -0.8382
   87SAPS   O11 8295   1.884   0.102  11.095 -0.9938 -0.1168 -0.1513
   87SAPS    C1 8296   1.888  -0.040  11.080  0.5303 -0.3961  0.7051
   87SAPS    HA 8297   1.920  -0.090  11.174  2.1761  0.4377  0.6159
   87SAPS    HB 8298   1.785  -0.071  11.050  0.4650  1.1510 -0.8653
   87SAPS    C2 8299   1.973  -0.093  10.954 -0.7371  0.3231 -0.9830
   87SAPS    HS 8300   2.075  -0.115  10.992 -0.3256 -1.5757 -3.0501
   87SAPS   O21 8301   1.973   0.004  10.853  0.2615  0.4678  0.9395
   87SAPS   C21 8302   2.086   0.048  10.795 -0.4221  0.2185 -0.5060
   87SAPS   O22 8303   2.195  -0.002  10.816 -0.3731  0.1736  0.2974
   87SAPS   C22 8304   2.074   0.164  10.694  0.0121  0.1556 -0.1637
   87SAPS   H2R 8305   1.987   0.133  10.633 -0.2353 -1.4147  0.9142
   87SAPS   H2S 8306   2.036   0.255  10.746 -0.6770 -0.1246 -0.1588
   87SAPS    C3 8307   1.922  -0.233  10.903 -0.2718 -0.4066  0.3918
   87SAPS    HX 8308   1.828  -0.200  10.854 -0.2642  0.3344  0.8676
   87SAPS    HY 8309   1.905  -0.303  10.987 -1.3382  1.0800  1.4619
   87SAPS   O31 8310   2.007  -0.278  10.799  0.0324 -0.6823  0.7459
   87SAPS   C31 8311   2.122  -0.331  10.834 -0.3017 -0.4317  0.4875
   87SAPS   O32 8312   2.172  -0.337  10.948  0.4398 -0.0475 -0.2789
   87SAPS   C32 8313   2.192  -0.381  10.707 -0.0944  0.0715 -0.8462
   87SAPS   H2X 8314   2.123  -0.456  10.662  1.0145 -3.3541  2.5205
   87SAPS   H2Y 8315   2.287  -0.432  10.734 -1.3390 -1.6582  0.5352
   87SAPS   C23 8316   2.203   0.189  10.619  1.0275 -0.2016 -0.4244
   87SAPS   H3R 8317   2.235   0.101  10.560 -0.2347 -1.1237  0.2201
   87SAPS   H3S 8318   2.276   0.227  10.694 -0.2488  0.7556  0.3902
   87SAPS   C24 8319   2.186   0.300  10.516 -0.0431  0.3018  0.4549
   87SAPS   H4R 8320   2.149   0.395  10.560 -0.6287  0.5494 -0.5433
   87SAPS   H4S 8321   2.106   0.268  10.447  1.0017  1.1198 -1.2050
   87SAPS   C25 8322   2.298   0.342  10.434 -1.2128  0.2349  0.5648
   87SAPS   H5R 8323   2.369   0.409  10.486 -0.7295  0.4060 -0.2916
   87SAPS   C26 8324   2.325   0.307  10.304 -0.1239  0.0626 -0.4245
   87SAPS   H6R 8325   2.403   0.364  10.251 -1.0553  1.4386 -0.3649
   87SAPS   C27 8326   2.245   0.217  10.213  0.1617 -0.1602  0.4082
   87SAPS   H7R 8327   2.193   0.259  10.125 -0.7329 -1.7281  0.1630
   87SAPS   H7S 8328   2.165   0.163  10.268  1.2513 -0.7694  1.4458
   87SAPS   C28 8329   2.336   0.111  10.160 -0.2358 -0.3793 -0.9372
   87SAPS   H8R 8330   2.326   0.015  10.212  1.1507  0.5047  1.0687
   87SAPS   C29 8331   2.422   0.120  10.055  0.5801 -0.8006 -0.9222
   87SAPS   H9R 8332   2.465   0.022  10.029 -0.1235 -0.8582 -1.9578
   87SAPS  C210 8333   2.455   0.243   9.970  0.2332 -0.0772  0.5084
   87SAPS  H10R 8334   2.561   0.240   9.940  0.4079 -0.4129  1.1375
   87SAPS  H10S 8335   2.433   0.331  10.035 -3.3018  0.4579 -1.1415
   87SAPS  C211 8336   2.359   0.229   9.856 -0.1645  0.3643  0.3552
   87SAPS  H11R 8337   2.251   0.233   9.877 -0.3875 -0.5779 -0.5467
   87SAPS  C212 8338   2.394   0.196   9.730 -0.3131 -0.5012 -0.5170
   87SAPS  H12R 8339   2.321   0.183   9.649  0.6895 -1.2992 -1.3327
   87SAPS  C213 8340   2.536   0.174   9.676  0.3160  0.0672 -1.1782
   87SAPS  H13R 8341   2.567   0.068   9.683 -2.7442 -0.8573  4.2483
   87SAPS  H13S 8342   2.606   0.230   9.740  0.4253 -1.6918  0.3039
   87SAPS  C214 8343   2.563   0.234   9.542  0.1617  0.3520  0.2318
   87SAPS  H14R 8344   2.609   0.334   9.546 -0.0370  0.4295  0.7589
   87SAPS  C215 8345   2.536   0.179   9.422  0.7151 -0.7613 -0.6546
   87SAPS  H15R 8346   2.570   0.235   9.334  2.2150 -1.0660 -0.2893
   87SAPS  C216 8347   2.467   0.049   9.395  0.7630 -0.6148 -0.0559
   87SAPS  H16R 8348   2.468  -0.014   9.487 -0.4632 -2.0359 -0.9536
   87SAPS  H16S 8349   2.520  -0.002   9.312  1.6746 -0.3045  0.3298
   87SAPS  C217 8350   2.312   0.071   9.349 -0.1071  0.1678 -0.1339
   87SAPS  H17R 8351   2.269   0.132   9.431  1.6390  1.5737 -0.1971
   87SAPS  H17S 8352   2.268  -0.028   9.325  1.3025  0.1305 -3.0581
   87SAPS  C218 8353   2.302   0.150   9.217  0.1595  0.2437 -0.2285
   87SAPS  H18R 8354   2.324   0.254   9.251  1.4989 -0.4616  1.2117
   87SAPS  H18S 8355   2.200   0.141   9.175  0.2284  0.2654 -0.4034
   87SAPS  C219 8356   2.386   0.100   9.100 -0.2235  0.1226  0.1219
   87SAPS  H19R 8357   2.490   0.120   9.133 -0.3240 -0.1184  0.5960
   87SAPS  H19S 8358   2.367   0.169   9.015  1.7910  0.8526  0.2158
   87SAPS  C220 8359   2.365  -0.041   9.062 -0.5107 -0.4502 -0.2005
   87SAPS  H20R 8360   2.418  -0.065   8.967 -1.2185  1.2038 -1.0490
   87SAPS  H20S 8361   2.256  -0.059   9.046 -0.8110  0.6363  0.5212
   87SAPS  H20T 8362   2.388  -0.117   9.140 -2.8532 -0.8175  0.1992
   87SAPS   C33 8363   2.206  -0.272  10.602  0.3349  0.2003 -0.4005
   87SAPS   H3X 8364   2.274  -0.197  10.648  1.5397  0.5332 -2.5539
   87SAPS   H3Y 8365   2.106  -0.226  10.588 -1.0738 -1.2404  3.6502
   87SAPS   C34 8366   2.270  -0.327  10.467 -0.7609 -0.3473 -0.6444
   87SAPS   H4X 8367   2.194  -0.406  10.443 -0.0421 -1.4068  0.4397
   87SAPS   H4Y 8368   2.367  -0.381  10.475  0.4755  1.6990 -1.2452
   87SAPS   C35 8369   2.281  -0.220  10.359  0.5517 -0.3789 -0.7102
   87SAPS   H5X 8370   2.361  -0.148  10.389  1.7406 -1.2789 -1.6230
   87SAPS   H5Y 8371   2.189  -0.158  10.347  2.6492  2.8360 -1.6545
   87SAPS   C36 8372   2.325  -0.267  10.223 -0.6267 -0.3697  0.1254
   87SAPS   H6X 8373   2.284  -0.202  10.142  0.5789 -0.5564 -0.6556
   87SAPS   H6Y 8374   2.274  -0.365  10.207 -1.6721  0.2080 -0.1923
   87SAPS   C37 8375   2.482  -0.276  10.211  0.1128 -0.4626 -0.4091
   87SAPS   H7X 8376   2.524  -0.337  10.294  0.9375 -2.1876 -2.0166
   87SAPS   H7Y 8377   2.525  -0.174  10.209  0.3891 -0.5884 -1.8599
   87SAPS   C38 8378   2.528  -0.356  10.092  0.0234  0.6764  0.1821
   87SAPS   H8X 8379   2.474  -0.453  10.090 -1.7480  1.6230  0.2255
   87SAPS   H8Y 8380   2.636  -0.380  10.104 -0.0447  0.8114  1.1900
   87SAPS   C39 8381   2.497  -0.295   9.956  0.3256  0.3060 -0.4874
   87SAPS   H9X 8382   2.553  -0.199   9.945 -0.5492  0.8286 -0.4592
   87SAPS   H9Y 8383   2.389  -0.269   9.948 -0.3817 -1.6075  1.7991
   87SAPS  C310 8384   2.551  -0.382   9.835  0.5220  0.1164 -0.3586
   87SAPS  H10X 8385   2.506  -0.484   9.845 -0.3241  0.5075 -0.0877
   87SAPS  H10Y 8386   2.660  -0.398   9.847  0.2683  0.1029  2.4105
   87SAPS  C311 8387   2.518  -0.333   9.698 -0.2979 -0.0468  0.0139
   87SAPS  H11X 8388   2.560  -0.233   9.677 -0.5082  0.4771  1.9005
   87SAPS  H11Y 8389   2.408  -0.339   9.680  0.0790 -1.4013 -2.1506
   87SAPS  C312 8390   2.577  -0.427   9.591  0.4219  0.2784  0.4257
   87SAPS  H12X 8391   2.535  -0.530   9.582 -1.5105  1.0719 -0.2076
   87SAPS  H12Y 8392   2.685  -0.436   9.617  1.2143  1.5510 -2.0592
   87SAPS  C313 8393   2.575  -0.386   9.442 -0.5812  0.2016  0.8470
   87SAPS  H13X 8394   2.638  -0.295   9.438 -0.0122 -0.2120 -1.5113
   87SAPS  H13Y 8395   2.475  -0.345   9.418  0.3951  2.1631 -0.1926
   87SAPS  C314 8396   2.639  -0.485   9.333 -0.1793 -0.0544  0.2646
   87SAPS  H14X 8397   2.576  -0.576   9.336 -0.3297  0.0584  0.5890
   87SAPS  H14Y 8398   2.743  -0.516   9.358 -0.3716 -0.4207  0.6243
   87SAPS  C315 8399   2.632  -0.418   9.193 -0.5003  0.8389 -0.1305
   87SAPS  H15X 8400   2.530  -0.378   9.179 -1.5395 -2.6580 -5.2732
   87SAPS  H15Y 8401   2.654  -0.498   9.119  0.9091 -0.4473  1.5962
   87SAPS  C316 8402   2.724  -0.292   9.188  0.3017  0.0219 -0.6327
   87SAPS  H16X 8403   2.823  -0.306   9.236  0.1808 -3.2984 -1.1151
   87SAPS  H16Y 8404   2.661  -0.224   9.248  3.3420  0.3641  2.4795
   87SAPS  C317 8405   2.751  -0.231   9.050  0.6479  0.4351  0.3091
   87SAPS  H17X 8406   2.658  -0.205   8.995  1.0217  0.8354 -0.1424
   87SAPS  H17Y 8407   2.789  -0.302   8.973  1.3385  1.5105 -0.3743
   87SAPS  C318 8408   2.864  -0.125   9.060 -0.0038  0.3787 -0.4863
   87SAPS  H18X 8409   2.894  -0.102   8.955  2.4151  1.0853  0.3071
   87SAPS  H18Y 8410   2.946  -0.161   9.126 -0.6236  0.0405  0.1076
   87SAPS  H18Z 8411   2.817  -0.045   9.122  0.3015  0.4871 -0.3935
   88SAPS     N 8412   5.713   6.279  10.639  0.0811  0.0996  0.2829
   88SAPS   HN1 8413   5.626   6.231  10.608 -1.2197  2.8720 -0.7101
   88SAPS   HN2 8414   5.709   6.380  10.614 -1.7014 -0.9070 -4.5022
   88SAPS   HN3 8415   5.790   6.232  10.588 -1.8015 -1.9551 -0.8337
   88SAPS   C12 8416   5.727   6.261  10.787  0.2741  0.5244  0.4613
   88SAPS  H12A 8417   5.829   6.228  10.799 -0.0559 -0.1963  1.4614
   88SAPS   C13 8418   5.700   6.393  10.871 -0.2054  0.2107  0.0618
   88SAPS  O13A 8419   5.648   6.488  10.808 -0.4800 -0.0118  0.2900
   88SAPS  O13B 8420   5.743   6.408  10.989 -0.2500 -0.0324 -0.3217
   88SAPS   C11 8421   5.635   6.156  10.848  0.7524  0.3015 -0.1061
   88SAPS  H11A 8422   5.533   6.192  10.823 -0.1404 -2.6645 -1.1419
   88SAPS  H11B 8423   5.644   6.162  10.958 -0.9685  0.5434  0.0540
   88SAPS     P 8424   5.553   5.908  10.826  0.1858  0.0986 -0.3097
   88SAPS   O13 8425   5.639   5.812  10.894 -0.3198  0.7237  0.1916
   88SAPS   O14 8426   5.428   5.944  10.896  0.4284  0.0376 -0.2121
   88SAPS   O12 8427   5.652   6.035  10.791 -0.7706 -0.2171  0.0752
   88SAPS   O11 8428   5.516   5.861  10.680  0.9832 -0.7218 -0.0543
   88SAPS    C1 8429   5.625   5.809  10.599  1.3424  0.0579  0.0920
   88SAPS    HA 8430   5.722   5.864  10.605  1.6334 -0.3993 -0.3467
   88SAPS    HB 8431   5.631   5.704  10.635 -0.2303  0.2654  1.0267
   88SAPS    C2 8432   5.589   5.833  10.448  0.0960 -0.2769  0.4641
   88SAPS    HS 8433   5.592   5.943  10.431 -0.1140 -0.7643 -3.9598
   88SAPS   O21 8434   5.466   5.772  10.408 -0.4184 -0.0577 -0.6919
   88SAPS   C21 8435   5.387   5.847  10.334 -0.1364  0.4666  0.0010
   88SAPS   O22 8436   5.406   5.960  10.295 -0.1267  0.1509  0.2524
   88SAPS   C22 8437   5.278   5.759  10.283  0.0218 -0.2461 -0.2133
   88SAPS   H2R 8438   5.325   5.666  10.245  2.3265  0.8424 -0.1872
   88SAPS   H2S 8439   5.210   5.735  10.367  0.9954 -0.4852  0.5127
   88SAPS    C3 8440   5.704   5.773  10.357 -0.3622 -0.0254 -0.0951
   88SAPS    HX 8441   5.714   5.662  10.352  0.5230 -0.0187  1.0702
   88SAPS    HY 8442   5.801   5.803  10.401 -1.2586 -0.1179  2.0854
   88SAPS   O31 8443   5.694   5.827  10.224 -0.4580  0.2458 -0.0925
   88SAPS   C31 8444   5.748   5.948  10.212  0.8069 -0.7319  0.2694
   88SAPS   O32 8445   5.815   6.005  10.293 -0.0865  0.2682 -0.0644
   88SAPS   C32 8446   5.726   5.997  10.073  0.1751 -0.5449 -0.4081
   88SAPS   H2X 8447   5.824   6.024  10.028 -0.7709  2.0343 -1.1116
   88SAPS   H2Y 8448   5.670   6.092  10.083 -2.1206 -1.9880  1.6300
   88SAPS   C23 8449   5.184   5.818  10.181  0.1310 -0.5163 -0.8155
   88SAPS   H3R 8450   5.241   5.847  10.090  1.9738 -1.9425 -0.1669
   88SAPS   H3S 8451   5.144   5.915  10.219  0.1972 -0.5229 -0.7277
   88SAPS   C24 8452   5.073   5.722  10.144 -0.4028 -0.5128  0.0734
   88SAPS   H4R 8453   5.006   5.705  10.231  2.2526 -0.1408  2.3003
   88SAPS   H4S 8454   5.121   5.628  10.109 -1.4439 -0.5759 -1.2816
   88SAPS   C25 8455   4.996   5.783  10.029  0.1657  0.1341  1.2696
   88SAPS   H5R 8456   4.939   5.876  10.044  0.5396  0.1933  2.4005
   88SAPS   C26 8457   4.996   5.735   9.901  0.1553 -0.1404 -0.4036
   88SAPS   H6R 8458   4.939   5.793   9.826  1.1415  2.6653  0.8667
   88SAPS   C27 8459   5.080   5.615   9.846 -0.2317  0.1851  0.0758
   88SAPS   H7R 8460   5.182   5.617   9.891 -0.2324 -1.6729  0.2283
   88SAPS   H7S 8461   5.088   5.633   9.737  1.8160  0.7618  0.2655
   88SAPS   C28 8462   5.000   5.494   9.896 -0.9970 -0.0829  0.9714
   88SAPS   H8R 8463   4.991   5.488  10.006  1.0998  1.1673  1.2649
   88SAPS   C29 8464   4.971   5.384   9.819  0.0517 -0.4141  0.3449
   88SAPS   H9R 8465   4.912   5.306   9.869 -0.0900 -0.2537  0.4246
   88SAPS  C210 8466   5.002   5.352   9.677 -0.7235 -0.2158 -0.8687
   88SAPS  H10R 8467   5.092   5.410   9.647 -1.3564 -0.0799 -2.5583
   88SAPS  H10S 8468   4.921   5.391   9.613 -1.1493 -1.4419 -1.1180
   88SAPS  C211 8469   5.022   5.206   9.643  0.0890  0.3974 -0.4265
   88SAPS  H11R 8470   5.030   5.126   9.718 -2.3178 -1.0785 -1.6261
   88SAPS  C212 8471   5.045   5.170   9.512 -0.9813  0.5324 -0.2783
   88SAPS  H12R 8472   5.048   5.064   9.483 -1.8946  0.4532 -0.1050
   88SAPS  C213 8473   5.058   5.265   9.396  0.1442  0.9374 -0.5743
   88SAPS  H13R 8474   5.108   5.360   9.424 -0.4106  0.5710  1.9070
   88SAPS  H13S 8475   4.958   5.300   9.360 -0.7945 -0.7614  0.2882
   88SAPS  C214 8476   5.141   5.198   9.286  0.4551  0.1507 -0.2324
   88SAPS  H14R 8477   5.248   5.222   9.292  0.2092  2.2792 -2.4692
   88SAPS  C215 8478   5.093   5.128   9.180 -0.5135  0.4928  0.0755
   88SAPS  H15R 8479   5.164   5.094   9.104 -0.4349 -1.6886  1.0671
   88SAPS  C216 8480   4.943   5.108   9.150 -0.0169  0.4161 -0.4697
   88SAPS  H16R 8481   4.906   5.188   9.082  0.0009 -0.4136 -1.4752
   88SAPS  H16S 8482   4.887   5.121   9.245  2.7392 -1.8499  1.6361
   88SAPS  C217 8483   4.897   4.959   9.115  0.0443  0.3814 -0.5805
   88SAPS  H17R 8484   4.786   4.963   9.124  0.0017  1.2595 -1.2917
   88SAPS  H17S 8485   4.941   4.891   9.191 -0.1545  1.7490  0.8160
   88SAPS  C218 8486   4.952   4.906   8.981  0.1859 -0.8246  0.1433
   88SAPS  H18R 8487   5.045   4.853   9.010  2.1489  3.0511  1.7406
   88SAPS  H18S 8488   4.972   4.999   8.923 -0.5303  1.6987  3.5750
   88SAPS  C219 8489   4.857   4.813   8.893  0.4247 -0.1580  0.4840
   88SAPS  H19R 8490   4.770   4.870   8.854  0.8555  0.0907 -0.1216
   88SAPS  H19S 8491   4.817   4.737   8.963  0.2975 -0.5283  0.0156
   88SAPS  C220 8492   4.904   4.746   8.764  0.2914  0.2378 -0.7343
   88SAPS  H20R 8493   4.822   4.685   8.722  2.0368 -2.5408 -0.3868
   88SAPS  H20S 8494   4.981   4.670   8.790 -0.0503  0.4019  0.9081
   88SAPS  H20T 8495   4.943   4.817   8.688  1.7766 -0.1873 -0.4156
   88SAPS   C33 8496   5.653   5.904   9.976 -0.2143  0.5219  0.0086
   88SAPS   H3X 8497   5.548   5.899  10.012 -0.1941  1.0182  0.1420
   88SAPS   H3Y 8498   5.697   5.803   9.987  1.7106  1.4648  1.7098
   88SAPS   C34 8499   5.659   5.941   9.827 -0.0798 -0.1432 -0.1128
   88SAPS   H4X 8500   5.763   5.964   9.793 -0.3260  0.8064 -0.2576
   88SAPS   H4Y 8501   5.600   6.035   9.815  0.4879  0.4463  1.4977
   88SAPS   C35 8502   5.595   5.837   9.734 -0.1363  0.4348 -0.0583
   88SAPS   H5X 8503   5.494   5.827   9.778 -0.3686  1.4098 -0.3472
   88SAPS   H5Y 8504   5.646   5.738   9.730  0.6946  0.8255  0.6538
   88SAPS   C36 8505   5.554   5.889   9.588 -0.3439 -0.0705  0.0920
   88SAPS   H6X 8506   5.494   5.981   9.591  0.2445  0.3815 -1.3275
   88SAPS   H6Y 8507   5.484   5.811   9.550 -1.6151  0.7686  0.6710
   88SAPS   C37 8508   5.677   5.901   9.499 -0.5085 -0.1625  0.2743
   88SAPS   H7X 8509   5.726   5.802   9.485  1.1207  0.3920  1.6472
   88SAPS   H7Y 8510   5.746   5.967   9.557 -1.0485  1.8363 -1.2390
   88SAPS   C38 8511   5.662   5.968   9.349  0.0108 -0.5124 -0.7016
   88SAPS   H8X 8512   5.704   6.071   9.350  1.5832 -1.1298  0.4430
   88SAPS   H8Y 8513   5.553   5.985   9.340 -0.2285 -1.3457  0.3951
   88SAPS   C39 8514   5.714   5.882   9.228  0.5463  0.1015 -0.8944
   88SAPS   H9X 8515   5.687   5.775   9.239  0.8955  0.0892 -0.1272
   88SAPS   H9Y 8516   5.823   5.891   9.246  0.6422 -1.5463 -0.5193
   88SAPS  C310 8517   5.683   5.939   9.086 -0.4015  1.0262 -0.3004
   88SAPS  H10X 8518   5.729   6.040   9.077  2.0196 -0.0048 -0.4367
   88SAPS  H10Y 8519   5.573   5.954   9.083 -0.5260  0.9608  2.2014
   88SAPS  C311 8520   5.739   5.855   8.968 -0.6044 -0.3295 -0.0665
   88SAPS  H11X 8521   5.697   5.752   8.974  0.4123 -1.1646 -4.1665
   88SAPS  H11Y 8522   5.846   5.845   8.994 -1.1924 -0.4414  2.5947
   88SAPS  C312 8523   5.718   5.904   8.824  0.3344  0.1579  0.0061
   88SAPS  H12X 8524   5.714   6.015   8.826  1.7545  0.2224  0.5169
   88SAPS  H12Y 8525   5.622   5.870   8.781  0.6422  0.2873 -0.7954
   88SAPS  C313 8526   5.835   5.867   8.725  0.3921  0.5601 -0.6112
   88SAPS  H13X 8527   5.837   5.757   8.713  3.2832 -0.1030  3.6088
   88SAPS  H13Y 8528   5.934   5.901   8.763 -0.6590  2.1295  0.9056
   88SAPS  C314 8529   5.822   5.909   8.579  0.0193 -0.1082 -0.0090
   88SAPS  H14X 8530   5.818   6.020   8.578  0.2498  0.0825  4.2658
   88SAPS  H14Y 8531   5.728   5.867   8.535  0.6453 -1.1662 -0.3598
   88SAPS  C315 8532   5.938   5.877   8.481  0.5195 -0.1902 -0.1980
   88SAPS  H15X 8533   6.030   5.892   8.541 -0.3051 -0.0893  1.0799
   88SAPS  H15Y 8534   5.934   5.944   8.392 -0.1231 -0.1329 -0.1282
   88SAPS  C316 8535   5.929   5.725   8.432 -0.1173  0.0124 -0.2473
   88SAPS  H16X 8536   5.835   5.720   8.372  0.5524  0.1444 -1.3305
   88SAPS  H16Y 8537   5.920   5.650   8.513  0.5830  0.7564  0.5404
   88SAPS  C317 8538   6.040   5.679   8.341 -0.0153  0.1120 -0.0272
   88SAPS  H17X 8539   6.012   5.580   8.300  2.2243 -0.3861 -0.4947
   88SAPS  H17Y 8540   6.131   5.668   8.403  1.1512  2.4653 -1.1784
   88SAPS  C318 8541   6.064   5.771   8.217 -0.3673 -0.2762  0.5553
   88SAPS  H18X 8542   6.138   5.726   8.148  0.0540  0.0210  0.8093
   88SAPS  H18Y 8543   6.101   5.872   8.244  0.3737 -0.0107 -1.3522
   88SAPS  H18Z 8544   5.970   5.774   8.158  0.5994 -0.7586 -1.0472
   89SAPS     N 8545   3.687   1.755  11.110 -0.0820 -0.2701  0.3108
   89SAPS   HN1 8546   3.672   1.726  11.012  0.6654  2.1818 -0.6109
   89SAPS   HN2 8547   3.603   1.742  11.170  0.6496 -1.8465  1.0429
   89SAPS   HN3 8548   3.726   1.852  11.111  0.4677 -0.4863  0.8799
   89SAPS   C12 8549   3.796   1.673  11.169 -0.5271 -0.0718  0.6130
   89SAPS  H12A 8550   3.864   1.735  11.225 -0.3731  2.2740 -1.9537
   89SAPS   C13 8551   3.741   1.578  11.275  0.7426  0.1031  0.4738
   89SAPS  O13A 8552   3.617   1.558  11.278  0.5580 -0.0466  0.1175
   89SAPS  O13B 8553   3.822   1.499  11.334 -0.3775 -0.4514  0.2437
   89SAPS   C11 8554   3.877   1.602  11.049  0.1339 -0.4971  0.4855
   89SAPS  H11A 8555   3.968   1.560  11.096  0.5852 -0.6081 -0.4644
   89SAPS  H11B 8556   3.915   1.687  10.988 -2.1152 -0.1091 -0.4724
   89SAPS     P 8557   3.724   1.537  10.843  0.0574 -0.1055 -0.1721
   89SAPS   O13 8558   3.631   1.425  10.804 -0.3161  0.5795  0.3111
   89SAPS   O14 8559   3.656   1.666  10.867 -0.2232  0.1237 -0.6413
   89SAPS   O12 8560   3.815   1.500  10.970 -0.2379 -0.9249 -0.4497
   89SAPS   O11 8561   3.822   1.576  10.721  0.2640  0.3588  0.6457
   89SAPS    C1 8562   3.948   1.516  10.712 -0.3639 -0.3958 -0.2583
   89SAPS    HA 8563   4.012   1.566  10.787 -0.4759  0.1575 -0.5243
   89SAPS    HB 8564   3.934   1.407  10.729 -1.5791  0.2838  4.4282
   89SAPS    C2 8565   4.010   1.544  10.569  1.0984 -0.0413  0.4509
   89SAPS    HS 8566   4.046   1.649  10.566  3.5543 -0.8246  0.3869
   89SAPS   O21 8567   3.905   1.523  10.468 -0.4090  0.2383 -0.1752
   89SAPS   C21 8568   3.861   1.628  10.407  0.4734 -0.2458 -0.2846
   89SAPS   O22 8569   3.900   1.744  10.412 -0.2366  0.6225  0.3330
   89SAPS   C22 8570   3.744   1.584  10.312 -0.4492 -0.7028  0.2417
   89SAPS   H2R 8571   3.673   1.527  10.375 -2.3430  0.7108 -0.5336
   89SAPS   H2S 8572   3.704   1.684  10.284 -0.9615 -0.5929  1.3043
   89SAPS    C3 8573   4.125   1.446  10.538  0.0713 -0.0224 -0.3487
   89SAPS    HX 8574   4.097   1.341  10.560 -0.8744 -0.2568 -2.4267
   89SAPS    HY 8575   4.214   1.457  10.604  0.9616  0.1172 -1.5269
   89SAPS   O31 8576   4.174   1.453  10.406 -0.0824 -0.0056 -0.7149
   89SAPS   C31 8577   4.110   1.393  10.311  0.9047 -0.3575  0.3013
   89SAPS   O32 8578   4.020   1.312  10.329  0.5154 -0.3110  0.3348
   89SAPS   C32 8579   4.143   1.453  10.170  0.4763  0.2790 -0.5207
   89SAPS   H2X 8580   4.173   1.558  10.190  0.6632 -0.4064  3.5647
   89SAPS   H2Y 8581   4.057   1.458  10.100 -0.2217 -0.2057  0.2769
   89SAPS   C23 8582   3.789   1.524  10.171 -0.6165  0.3812  0.0590
   89SAPS   H3R 8583   3.825   1.423  10.200 -0.6357  0.7456  1.4283
   89SAPS   H3S 8584   3.851   1.590  10.108 -1.9961  1.5286 -0.1494
   89SAPS   C24 8585   3.674   1.505  10.068 -0.0931 -0.1609 -0.2059
   89SAPS   H4R 8586   3.624   1.603  10.055 -1.5159 -0.8781 -0.3875
   89SAPS   H4S 8587   3.608   1.433  10.121  1.1871  0.6337  2.6162
   89SAPS   C25 8588   3.731   1.439   9.938 -0.8292 -0.8150 -0.5676
   89SAPS   H5R 8589   3.767   1.337   9.958  0.1683  0.0817  2.9020
   89SAPS   C26 8590   3.724   1.498   9.813 -0.4668  0.2775  0.0035
   89SAPS   H6R 8591   3.772   1.448   9.727 -0.3571 -0.3396  0.4143
   89SAPS   C27 8592   3.666   1.634   9.777 -0.3545 -0.5526 -0.7612
   89SAPS   H7R 8593   3.714   1.678   9.687 -1.1174  1.0786 -0.4099
   89SAPS   H7S 8594   3.691   1.701   9.863 -0.5787  1.1162 -1.9477
   89SAPS   C28 8595   3.517   1.642   9.767  0.2702  0.5408  0.7679
   89SAPS   H8R 8596   3.470   1.610   9.861 -1.8422  0.3818 -0.2800
   89SAPS   C29 8597   3.441   1.687   9.662 -0.7272 -0.8650  0.5256
   89SAPS   H9R 8598   3.333   1.686   9.679 -0.7309 -0.1519  0.5760
   89SAPS  C210 8599   3.482   1.742   9.527 -0.5518 -0.0038  0.2231
   89SAPS  H10R 8600   3.588   1.718   9.506 -0.6715  0.0898 -0.5549
   89SAPS  H10S 8601   3.489   1.853   9.529  1.3290  0.0148 -2.1472
   89SAPS  C211 8602   3.386   1.693   9.425 -0.3062  0.1878  0.4313
   89SAPS  H11R 8603   3.285   1.672   9.463 -0.7184 -1.3569 -1.3490
   89SAPS  C212 8604   3.416   1.658   9.296  0.8099 -0.3240 -0.9355
   89SAPS  H12R 8605   3.336   1.620   9.231 -0.2136 -1.9031  1.1099
   89SAPS  C213 8606   3.547   1.675   9.234  0.4503  0.0808  0.5970
   89SAPS  H13R 8607   3.534   1.645   9.128 -0.3835  1.1118  0.3919
   89SAPS  H13S 8608   3.634   1.616   9.269  2.2015  1.3977 -1.3039
   89SAPS  C214 8609   3.582   1.825   9.219 -0.6125  0.1140 -0.2779
   89SAPS  H14R 8610   3.561   1.889   9.306  1.8841 -0.8359  1.1454
   89SAPS  C215 8611   3.639   1.890   9.114 -0.6585 -0.0029 -0.0189
   89SAPS  H15R 8612   3.649   1.999   9.123  0.0177 -0.0924  0.3931
   89SAPS  C216 8613   3.694   1.833   8.987  0.0005 -0.6911 -0.1768
   89SAPS  H16R 8614   3.628   1.755   8.944 -0.8440 -0.3277  0.4209
   89SAPS  H16S 8615   3.796   1.791   8.995  0.3745  0.1416 -0.5292
   89SAPS  C217 8616   3.701   1.936   8.871  0.1819 -0.9583 -0.0294
   89SAPS  H17R 8617   3.783   2.008   8.890  1.4343 -1.7152 -2.1979
   89SAPS  H17S 8618   3.613   2.003   8.872  0.4612 -0.5871  1.4211
   89SAPS  C218 8619   3.715   1.870   8.736 -0.6058 -0.7937 -0.1671
   89SAPS  H18R 8620   3.621   1.826   8.698 -2.9303  2.7772  0.9517
   89SAPS  H18S 8621   3.788   1.788   8.755 -0.3649 -0.5476 -0.0206
   89SAPS  C219 8622   3.780   1.953   8.616  1.2020  0.4881  0.1180
   89SAPS  H19R 8623   3.769   1.899   8.520  0.9262 -1.5200  1.2343
   89SAPS  H19S 8624   3.890   1.970   8.620  1.1252  1.1563 -0.3751
   89SAPS  C220 8625   3.719   2.087   8.591 -0.8901  0.2629  0.4610
   89SAPS  H20R 8626   3.609   2.081   8.599 -0.8173  0.5412  2.0055
   89SAPS  H20S 8627   3.748   2.127   8.491  1.1512 -0.0741  0.8581
   89SAPS  H20T 8628   3.744   2.156   8.675 -0.3029  1.8167 -0.9353
   89SAPS   C33 8629   4.253   1.366  10.104 -0.3241  0.0623  0.0106
   89SAPS   H3X 8630   4.197   1.275  10.074 -3.5670  2.9431 -3.7814
   89SAPS   H3Y 8631   4.348   1.355  10.161  0.6681 -0.4150 -1.6463
   89SAPS   C34 8632   4.309   1.430   9.976  0.0923 -0.1352  0.2785
   89SAPS   H4X 8633   4.380   1.353   9.937  1.2563  0.2730  1.5437
   89SAPS   H4Y 8634   4.373   1.517   9.999  1.6756 -0.8366 -1.2668
   89SAPS   C35 8635   4.203   1.482   9.868 -0.1935 -0.3296  0.2461
   89SAPS   H5X 8636   4.269   1.520   9.787 -0.5496 -1.5103 -0.6189
   89SAPS   H5Y 8637   4.141   1.560   9.917  0.9392  1.7020 -1.3836
   89SAPS   C36 8638   4.127   1.364   9.802 -0.1253  0.3026 -0.3048
   89SAPS   H6X 8639   4.030   1.369   9.857  0.3360 -0.3000  0.5760
   89SAPS   H6Y 8640   4.181   1.269   9.821  0.0787 -0.4602 -3.9700
   89SAPS   C37 8641   4.094   1.382   9.651 -0.0260 -0.3206  1.0641
   89SAPS   H7X 8642   4.187   1.412   9.597 -1.2029  1.8545  0.1214
   89SAPS   H7Y 8643   4.019   1.462   9.637 -0.0877 -0.6956 -1.1650
   89SAPS   C38 8644   4.034   1.262   9.580 -0.9940  0.5310  0.3804
   89SAPS   H8X 8645   3.966   1.204   9.645 -1.3012  1.5094  0.9513
   89SAPS   H8Y 8646   4.119   1.193   9.560  0.5600  2.6663 -0.8080
   89SAPS   C39 8647   3.962   1.299   9.453  0.1687 -0.4199  0.6663
   89SAPS   H9X 8648   4.007   1.398   9.429  2.3940 -1.5878 -0.2095
   89SAPS   H9Y 8649   3.853   1.311   9.473  0.0838  1.8606 -0.7344
   89SAPS  C310 8650   3.975   1.200   9.339  0.6102  0.3952  0.0714
   89SAPS  H10X 8651   3.934   1.098   9.358 -1.8656  0.9609 -1.8288
   89SAPS  H10Y 8652   4.080   1.187   9.305 -0.1423  1.7548 -3.1345
   89SAPS  C311 8653   3.905   1.247   9.210 -0.0552 -0.0389 -0.3995
   89SAPS  H11X 8654   3.947   1.342   9.171 -0.2289  1.2468  2.3022
   89SAPS  H11Y 8655   3.800   1.270   9.237  0.3503  1.6250 -0.1249
   89SAPS  C312 8656   3.915   1.153   9.087  0.0558  0.1854  0.2001
   89SAPS  H12X 8657   3.881   1.201   8.993 -0.1961 -0.0449  0.1760
   89SAPS  H12Y 8658   3.864   1.057   9.105  1.5746 -0.6866  0.0385
   89SAPS  C313 8659   4.061   1.135   9.051 -0.2800  0.4960  0.6229
   89SAPS  H13X 8660   4.114   1.094   9.140 -0.7175  0.2031  0.7527
   89SAPS  H13Y 8661   4.108   1.233   9.031 -1.0535  1.0502  1.4033
   89SAPS  C314 8662   4.083   1.052   8.919  0.0243 -1.5902 -0.3343
   89SAPS  H14X 8663   4.031   0.955   8.938 -0.6860 -1.6298 -2.2220
   89SAPS  H14Y 8664   4.191   1.041   8.896  0.4615 -1.2470  1.4020
   89SAPS  C315 8665   4.033   1.121   8.793 -0.2867 -0.3631  0.4901
   89SAPS  H15X 8666   4.086   1.218   8.791 -0.0549 -0.4773  0.9243
   89SAPS  H15Y 8667   3.924   1.142   8.793 -0.1553  0.3958 -0.6894
   89SAPS  C316 8668   4.082   1.039   8.670  0.0276  0.6399  0.7022
   89SAPS  H16X 8669   4.027   0.943   8.667  0.0961  0.6043  0.6043
   89SAPS  H16Y 8670   4.191   1.018   8.678 -0.2106 -0.8795  0.2908
   89SAPS  C317 8671   4.058   1.112   8.533 -1.0041 -0.3138 -0.7449
   89SAPS  H17X 8672   3.957   1.156   8.522  0.0656  2.0820 -1.5999
   89SAPS  H17Y 8673   4.064   1.026   8.463  0.2381 -1.0928  0.2840
   89SAPS  C318 8674   4.164   1.218   8.496  0.1058  0.3403 -0.4427
   89SAPS  H18X 8675   4.135   1.256   8.396 -1.3273 -1.5534 -0.8068
   89SAPS  H18Y 8676   4.258   1.160   8.483 -0.5207 -0.5884 -0.9945
   89SAPS  H18Z 8677   4.153   1.304   8.565 -0.2784  0.3857 -0.5554
   90SAPS     N 8678   5.170   0.731  10.834  0.0057  0.2838 -0.1389
   90SAPS   HN1 8679   5.165   0.710  10.732 -0.0532  0.4332 -0.1671
   90SAPS   HN2 8680   5.260   0.778  10.856  1.0549 -1.7036  0.0724
   90SAPS   HN3 8681   5.186   0.638  10.877 -2.0916 -0.6968 -1.2873
   90SAPS   C12 8682   5.055   0.806  10.876  0.9009 -0.2862  0.2764
   90SAPS  H12A 8683   4.971   0.739  10.878  0.9261 -0.3275  0.0399
   90SAPS   C13 8684   5.068   0.864  11.015  0.9216 -0.0529 -0.6336
   90SAPS  O13A 8685   5.181   0.839  11.076 -0.4365 -0.4347  0.9249
   90SAPS  O13B 8686   4.971   0.923  11.063  0.1911  0.3922  0.1768
   90SAPS   C11 8687   5.024   0.906  10.759 -0.8586 -1.5067  0.1465
   90SAPS  H11A 8688   4.919   0.942  10.760 -0.8063 -1.3653  0.5346
   90SAPS  H11B 8689   5.034   0.846  10.666 -0.5429 -0.3094 -0.6096
   90SAPS     P 8690   5.120   1.139  10.667  0.1845  0.0590  0.2819
   90SAPS   O13 8691   5.004   1.224  10.693 -0.4326  0.0189 -0.0230
   90SAPS   O14 8692   5.253   1.204  10.681 -0.5869 -0.0942  0.2708
   90SAPS   O12 8693   5.116   1.015  10.758 -0.7605 -0.3859 -0.0817
   90SAPS   O11 8694   5.113   1.074  10.522 -0.5012 -0.4445 -0.7056
   90SAPS    C1 8695   5.191   0.966  10.473 -1.2190 -0.8183 -0.0960
   90SAPS    HA 8696   5.294   1.006  10.458 -1.6350 -0.1313 -1.1229
   90SAPS    HB 8697   5.217   0.880  10.540  1.6087 -0.5536 -0.7167
   90SAPS    C2 8698   5.131   0.900  10.344 -0.2225  0.3951 -0.6096
   90SAPS    HS 8699   5.179   0.800  10.331  0.1569  0.4739  0.1330
   90SAPS   O21 8700   5.150   0.990  10.233  0.1315  0.1552  0.0647
   90SAPS   C21 8701   5.282   1.006  10.194 -0.1225  0.5056 -0.1967
   90SAPS   O22 8702   5.380   0.954  10.240 -0.5129 -0.1098  0.3659
   90SAPS   C22 8703   5.283   1.089  10.060  0.4944  0.5647 -0.1541
   90SAPS   H2R 8704   5.243   1.023   9.981  2.1543  0.9672 -1.3965
   90SAPS   H2S 8705   5.223   1.181  10.076 -1.3216 -0.4603 -0.7811
   90SAPS    C3 8706   4.978   0.870  10.362 -0.6570 -0.2514 -0.2426
   90SAPS    HX 8707   4.935   0.970  10.385  3.9520  2.1560 -0.9953
   90SAPS    HY 8708   4.962   0.806  10.451 -1.9315 -0.1510 -0.3802
   90SAPS   O31 8709   4.926   0.806  10.245  0.0533  0.0955  0.4075
   90SAPS   C31 8710   4.871   0.885  10.153 -0.2958  0.0828 -0.9557
   90SAPS   O32 8711   4.840   1.005  10.169 -0.2260 -0.5486  0.1180
   90SAPS   C32 8712   4.844   0.792  10.034  0.0014 -0.1184 -0.2232
   90SAPS   H2X 8713   4.854   0.684  10.058 -1.2653 -0.2273 -0.0782
   90SAPS   H2Y 8714   4.918   0.816   9.955 -1.4339  0.6319 -1.3902
   90SAPS   C23 8715   5.417   1.136  10.013 -0.9195  0.1160 -0.0088
   90SAPS   H3R 8716   5.487   1.050  10.000  1.6492  2.1141 -0.4100
   90SAPS   H3S 8717   5.467   1.211  10.079  0.1051 -0.2610 -0.3411
   90SAPS   C24 8718   5.414   1.225   9.886 -0.2533 -0.0567 -0.1252
   90SAPS   H4R 8719   5.519   1.220   9.848 -0.2484 -2.0587  0.0797
   90SAPS   H4S 8720   5.392   1.332   9.905  0.1893  0.1693 -0.8375
   90SAPS   C25 8721   5.320   1.177   9.778  0.0120 -0.4189  0.1981
   90SAPS   H5R 8722   5.232   1.243   9.767  0.0566 -0.0168  1.9145
   90SAPS   C26 8723   5.336   1.084   9.681 -0.0522 -0.5517 -0.7346
   90SAPS   H6R 8724   5.260   1.068   9.604 -1.8995 -1.1904  1.1319
   90SAPS   C27 8725   5.455   1.002   9.662  0.1154  0.1064  0.3393
   90SAPS   H7R 8726   5.437   0.921   9.588  2.8265  2.1991 -2.9433
   90SAPS   H7S 8727   5.463   0.959   9.764 -0.3758 -1.5397 -0.2864
   90SAPS   C28 8728   5.587   1.063   9.620 -0.9516 -0.4103  0.8447
   90SAPS   H8R 8729   5.636   1.119   9.702 -0.9465  0.4609  0.2622
   90SAPS   C29 8730   5.633   1.064   9.494  0.1363  0.5963  0.7913
   90SAPS   H9R 8731   5.726   1.117   9.470 -0.9857  2.5567  0.4751
   90SAPS  C210 8732   5.566   0.996   9.376 -0.1048  0.3170 -0.2893
   90SAPS  H10R 8733   5.599   1.052   9.286 -0.0225  0.4416 -0.1830
   90SAPS  H10S 8734   5.456   1.000   9.384 -0.0140  0.3675  1.1706
   90SAPS  C211 8735   5.612   0.853   9.356 -0.9248 -0.4016  0.7337
   90SAPS  H11R 8736   5.609   0.791   9.447 -0.7397 -0.9258  0.3877
   90SAPS  C212 8737   5.640   0.787   9.242 -0.0504 -0.3718 -0.1139
   90SAPS  H12R 8738   5.681   0.686   9.253 -0.0942 -0.1973  2.3554
   90SAPS  C213 8739   5.639   0.833   9.098  0.2838 -0.1746  0.1789
   90SAPS  H13R 8740   5.571   0.917   9.076  1.7853  0.8696 -0.6215
   90SAPS  H13S 8741   5.602   0.742   9.046  3.2527 -1.2057 -0.3176
   90SAPS  C214 8742   5.782   0.852   9.048  0.3506 -0.1521  0.2878
   90SAPS  H14R 8743   5.840   0.759   9.059  0.4496  0.0644  1.8622
   90SAPS  C215 8744   5.836   0.961   8.981 -0.4708 -0.0801 -0.3450
   90SAPS  H15R 8745   5.935   0.947   8.936  0.3067  1.0725  0.9172
   90SAPS  C216 8746   5.775   1.094   8.960 -0.8248 -0.3283  0.3547
   90SAPS  H16R 8747   5.838   1.167   9.015  1.2540 -1.8276  0.0988
   90SAPS  H16S 8748   5.674   1.096   9.006 -1.2888  1.6932 -0.6191
   90SAPS  C217 8749   5.774   1.124   8.811  0.8673  0.0046 -0.8060
   90SAPS  H17R 8750   5.705   1.046   8.772 -2.9949  0.9629  3.2890
   90SAPS  H17S 8751   5.879   1.105   8.779  0.6529 -2.9771  0.0330
   90SAPS  C218 8752   5.735   1.265   8.777  1.1901  0.2616 -0.2586
   90SAPS  H18R 8753   5.822   1.332   8.792  1.6148  0.0981 -1.7873
   90SAPS  H18S 8754   5.655   1.302   8.845  3.6861  1.0524  2.4381
   90SAPS  C219 8755   5.681   1.277   8.636 -0.2196 -0.0761 -0.4014
   90SAPS  H19R 8756   5.588   1.216   8.628 -1.2132  1.4196 -0.7111
   90SAPS  H19S 8757   5.762   1.239   8.570  0.2720 -2.5176  1.4704
   90SAPS  C220 8758   5.640   1.422   8.603 -0.1075 -0.0621  0.0227
   90SAPS  H20R 8759   5.600   1.420   8.499 -2.0177  0.2850  0.7048
   90SAPS  H20S 8760   5.725   1.492   8.615  1.0048 -1.4035  0.2401
   90SAPS  H20T 8761   5.559   1.459   8.670 -0.1851  1.5998 -0.9385
   90SAPS   C33 8762   4.709   0.817   9.971 -0.0301  0.1327 -0.3164
   90SAPS   H3X 8763   4.686   0.922   9.944  2.4318  0.2597 -2.3134
   90SAPS   H3Y 8764   4.635   0.788  10.048 -0.3266 -2.2259 -1.3995
   90SAPS   C34 8765   4.670   0.728   9.848 -0.2285  0.2033 -0.9510
   90SAPS   H4X 8766   4.589   0.777   9.790 -0.1318  0.4827 -0.8524
   90SAPS   H4Y 8767   4.636   0.626   9.875 -0.7406  0.3823 -0.8985
   90SAPS   C35 8768   4.787   0.688   9.755 -0.3610 -0.2920  0.2989
   90SAPS   H5X 8769   4.745   0.623   9.675 -1.0249 -2.0267  1.9823
   90SAPS   H5Y 8770   4.859   0.636   9.821  1.3360  0.8658 -0.5495
   90SAPS   C36 8771   4.864   0.805   9.685  0.2501 -0.0749 -1.1852
   90SAPS   H6X 8772   4.920   0.866   9.759 -0.1891  0.9528 -1.6880
   90SAPS   H6Y 8773   4.781   0.871   9.652 -1.9154 -0.3711  3.0010
   90SAPS   C37 8774   4.954   0.758   9.574 -0.5905 -0.3783 -0.5605
   90SAPS   H7X 8775   4.897   0.716   9.488  2.5341 -0.3844 -2.7569
   90SAPS   H7Y 8776   5.033   0.687   9.606 -0.3960 -0.3881 -1.0550
   90SAPS   C38 8777   5.031   0.883   9.533  0.1275  0.1943  0.9944
   90SAPS   H8X 8778   5.075   0.923   9.627  0.7724 -1.3452  1.3978
   90SAPS   H8Y 8779   4.971   0.951   9.469  1.7068 -0.6465 -1.5856
   90SAPS   C39 8780   5.153   0.841   9.438  0.4103 -0.6201 -0.6293
   90SAPS   H9X 8781   5.226   0.779   9.495 -0.3706 -1.4004 -0.4537
   90SAPS   H9Y 8782   5.202   0.937   9.416 -0.7272  0.3674  0.9096
   90SAPS  C310 8783   5.129   0.763   9.312 -0.0637 -0.0600 -0.4439
   90SAPS  H10X 8784   5.053   0.823   9.259 -0.2140  0.3844  0.2678
   90SAPS  H10Y 8785   5.082   0.664   9.331  0.6796 -0.4089 -0.3546
   90SAPS  C311 8786   5.255   0.737   9.232  0.2377  0.0538 -0.2032
   90SAPS  H11X 8787   5.337   0.697   9.295  0.5833  0.6193 -0.2848
   90SAPS  H11Y 8788   5.294   0.827   9.180  2.8497 -0.7879  0.1526
   90SAPS  C312 8789   5.224   0.617   9.128 -0.0759 -0.8352 -0.3271
   90SAPS  H12X 8790   5.141   0.643   9.059  0.1134 -0.8397 -0.5589
   90SAPS  H12Y 8791   5.186   0.531   9.188  1.3178 -1.1072  0.1937
   90SAPS  C313 8792   5.349   0.578   9.044  0.6405 -0.3203  0.1617
   90SAPS  H13X 8793   5.330   0.472   9.019 -1.3066 -0.2558  1.0982
   90SAPS  H13Y 8794   5.439   0.598   9.106  1.9096 -1.0762 -1.3716
   90SAPS  C314 8795   5.361   0.666   8.915  0.5227  0.3200 -0.8751
   90SAPS  H14X 8796   5.390   0.767   8.948  1.2410  0.4475 -1.8585
   90SAPS  H14Y 8797   5.259   0.668   8.871 -0.1151  3.0059  0.5440
   90SAPS  C315 8798   5.450   0.610   8.812  0.7926  0.1474  1.0427
   90SAPS  H15X 8799   5.407   0.516   8.770  0.8953  0.6527 -0.2281
   90SAPS  H15Y 8800   5.554   0.597   8.849  1.2581 -1.7471 -0.6988
   90SAPS  C316 8801   5.465   0.708   8.692 -0.1110  0.1355  0.0447
   90SAPS  H16X 8802   5.515   0.798   8.732 -0.3227 -0.0314  0.7019
   90SAPS  H16Y 8803   5.366   0.745   8.656 -0.2411  0.6492  0.9169
   90SAPS  C317 8804   5.565   0.659   8.583  0.2056 -0.0922  0.3220
   90SAPS  H17X 8805   5.527   0.564   8.538  0.4823 -1.0462  2.0260
   90SAPS  H17Y 8806   5.660   0.625   8.629 -0.2287 -0.8286  0.6911
   90SAPS  C318 8807   5.596   0.763   8.476  0.0402  0.0031  0.1254
   90SAPS  H18X 8808   5.510   0.772   8.407 -0.5242  3.0301  1.0933
   90SAPS  H18Y 8809   5.683   0.748   8.408 -0.6295  0.3963 -0.8388
   90SAPS  H18Z 8810   5.603   0.858   8.532 -0.7590 -1.0495  2.1160
   91SAPS     N 8811   1.380   5.536   5.848 -0.5986 -0.0040  0.0216
   91SAPS   HN1 8812   1.433   5.552   5.760  0.8613 -0.8398  0.7216
   91SAPS   HN2 8813   1.280   5.517   5.824 -0.2476  0.1478 -1.6796
   91SAPS   HN3 8814   1.380   5.627   5.898 -0.6331 -0.4572  0.8657
   91SAPS   C12 8815   1.443   5.423   5.918  0.0234  0.3134  0.3682
   91SAPS  H12A 8816   1.418   5.340   5.854 -0.7307  1.5845 -1.0326
   91SAPS   C13 8817   1.600   5.427   5.912  0.0220 -0.0959  0.3019
   91SAPS  O13A 8818   1.662   5.522   5.863  0.1736 -0.2417  0.2740
   91SAPS  O13B 8819   1.657   5.330   5.965  0.2970 -0.6365  0.3821
   91SAPS   C11 8820   1.402   5.425   6.069  0.4459  0.0091 -0.2427
   91SAPS  H11A 8821   1.431   5.526   6.104  0.7810 -0.0485 -0.3437
   91SAPS  H11B 8822   1.462   5.354   6.131 -0.8013  0.5488  1.6468
   91SAPS     P 8823   1.154   5.482   6.142 -0.2086  0.2761  0.1789
   91SAPS   O13 8824   1.140   5.595   6.049 -0.3831 -0.1139 -0.1913
   91SAPS   O14 8825   1.033   5.396   6.169  0.3014  0.2851  0.5511
   91SAPS   O12 8826   1.265   5.387   6.081 -0.8283 -0.1672 -0.3781
   91SAPS   O11 8827   1.209   5.528   6.286  0.5950  0.5938 -0.0278
   91SAPS    C1 8828   1.263   5.429   6.376  0.5878  0.0635  0.3190
   91SAPS    HA 8829   1.303   5.342   6.320 -1.7584 -0.4197 -0.7690
   91SAPS    HB 8830   1.353   5.485   6.408  0.5420  1.4752 -1.7707
   91SAPS    C2 8831   1.165   5.365   6.473  1.2451 -0.7849  0.5202
   91SAPS    HS 8832   1.084   5.325   6.409  2.1212  0.8665 -1.7953
   91SAPS   O21 8833   1.116   5.476   6.558 -0.2449 -0.2850 -0.2898
   91SAPS   C21 8834   0.999   5.450   6.616 -1.1907  0.4077  0.0433
   91SAPS   O22 8835   0.915   5.378   6.566 -0.2717 -0.3894 -0.5414
   91SAPS   C22 8836   0.981   5.551   6.730  0.0152  0.1366 -0.5293
   91SAPS   H2R 8837   1.029   5.645   6.696 -0.0801  0.4158  0.0944
   91SAPS   H2S 8838   0.873   5.574   6.723 -0.5301 -1.7430  0.7051
   91SAPS    C3 8839   1.238   5.256   6.552 -0.3263 -0.7710  0.0150
   91SAPS    HX 8840   1.325   5.302   6.603 -0.4837 -1.7140  1.1537
   91SAPS    HY 8841   1.280   5.181   6.482  0.1754  0.1472 -0.6978
   91SAPS   O31 8842   1.163   5.204   6.659  0.0709  0.4513 -0.1888
   91SAPS   C31 8843   1.079   5.112   6.610  0.6392 -0.0331 -0.1703
   91SAPS   O32 8844   1.084   5.053   6.501 -0.1938  0.6863 -0.1707
   91SAPS   C32 8845   0.957   5.090   6.698 -0.3508  0.3851 -0.2923
   91SAPS   H2X 8846   0.880   5.169   6.681 -0.7143 -0.0422 -0.6757
   91SAPS   H2Y 8847   0.990   5.085   6.803  0.2770 -1.2596 -0.5472
   91SAPS   C23 8848   0.997   5.511   6.878 -0.5027  0.5180  0.0531
   91SAPS   H3R 8849   0.937   5.421   6.905  1.8453 -0.2144  3.4519
   91SAPS   H3S 8850   0.945   5.585   6.942  0.6700  0.0045  1.6621
   91SAPS   C24 8851   1.143   5.500   6.925 -0.0928  0.3534  0.1122
   91SAPS   H4R 8852   1.200   5.455   6.840 -1.9010 -0.0381 -0.9453
   91SAPS   H4S 8853   1.141   5.431   7.012 -0.8043 -0.9273 -0.8799
   91SAPS   C25 8854   1.201   5.634   6.958  0.3727  0.4617  0.1279
   91SAPS   H5R 8855   1.210   5.707   6.876  2.4230 -0.3992 -0.4834
   91SAPS   C26 8856   1.219   5.675   7.085 -0.0114  0.3648 -0.2193
   91SAPS   H6R 8857   1.263   5.772   7.109 -2.5553  1.0967  2.0347
   91SAPS   C27 8858   1.186   5.599   7.207 -0.6745 -0.0244  0.2027
   91SAPS   H7R 8859   1.245   5.652   7.285  0.0246  1.6201 -1.3704
   91SAPS   H7S 8860   1.226   5.497   7.194 -0.2858 -0.1950  2.3446
   91SAPS   C28 8861   1.039   5.588   7.246 -0.9617  0.2314  0.1585
   91SAPS   H8R 8862   0.975   5.613   7.160 -0.0626  1.0992 -0.2750
   91SAPS   C29 8863   0.991   5.564   7.373  0.4713 -0.2800  0.2617
   91SAPS   H9R 8864   0.886   5.536   7.390  1.2808 -2.8860  1.5458
   91SAPS  C210 8865   1.072   5.564   7.498  0.0886  0.2739  0.0345
   91SAPS  H10R 8866   1.174   5.526   7.475 -0.2420 -0.7772  0.2597
   91SAPS  H10S 8867   1.037   5.492   7.575  0.8909 -1.0459 -0.8133
   91SAPS  C211 8868   1.085   5.702   7.563 -0.3809 -0.0241 -0.2292
   91SAPS  H11R 8869   1.023   5.787   7.532 -0.2611  0.8816  1.8687
   91SAPS  C212 8870   1.182   5.740   7.652 -0.0730  0.3782  0.0752
   91SAPS  H12R 8871   1.177   5.838   7.701  3.0927 -0.0839  1.5806
   91SAPS  C213 8872   1.290   5.651   7.705  0.5486  0.2023  0.8353
   91SAPS  H13R 8873   1.367   5.628   7.629 -0.7965 -0.7404 -0.3104
   91SAPS  H13S 8874   1.240   5.552   7.714  0.6767  0.1997  1.5945
   91SAPS  C214 8875   1.342   5.683   7.839 -0.2759  0.7191 -0.1001
   91SAPS  H14R 8876   1.446   5.721   7.837 -0.7219  2.0200 -1.8283
   91SAPS  C215 8877   1.275   5.689   7.950 -0.0830  0.1445  0.0054
   91SAPS  H15R 8878   1.330   5.724   8.038  0.8787  2.6204 -1.4626
   91SAPS  C216 8879   1.126   5.659   7.963  0.0213 -0.0227 -0.8234
   91SAPS  H16R 8880   1.105   5.554   7.931  0.2374  0.0158 -1.0952
   91SAPS  H16S 8881   1.070   5.720   7.889 -0.1718 -0.5024 -1.0751
   91SAPS  C217 8882   1.069   5.693   8.101 -0.4002  0.5172  0.5327
   91SAPS  H17R 8883   1.109   5.630   8.183  0.8560  1.2471  0.5163
   91SAPS  H17S 8884   0.959   5.679   8.095 -0.0826 -2.0130 -0.8512
   91SAPS  C218 8885   1.090   5.838   8.151  0.4952  0.0505 -0.3166
   91SAPS  H18R 8886   1.057   5.913   8.077 -2.0381 -1.4916 -0.8790
   91SAPS  H18S 8887   1.197   5.854   8.175  0.1312  0.3544  1.2678
   91SAPS  C219 8888   1.016   5.847   8.290 -0.1814 -0.2118  0.1172
   91SAPS  H19R 8889   1.073   5.790   8.366  0.0265 -0.7616 -0.4420
   91SAPS  H19S 8890   0.915   5.802   8.285 -0.1437 -0.1690 -1.4486
   91SAPS  C220 8891   0.998   5.996   8.334  0.5625  0.9372 -0.2820
   91SAPS  H20R 8892   0.939   6.001   8.428  1.8862  0.8573  0.5795
   91SAPS  H20S 8893   0.940   6.047   8.254 -2.9572 -0.8130  0.9493
   91SAPS  H20T 8894   1.098   6.043   8.346  2.1621 -2.0311 -1.0232
   91SAPS   C33 8895   0.896   4.942   6.676  0.6628  0.0632  0.6557
   91SAPS   H3X 8896   0.965   4.856   6.659  1.0684  0.9676 -2.9309
   91SAPS   H3Y 8897   0.840   4.955   6.581 -1.8166  3.1601  2.3437
   91SAPS   C34 8898   0.802   4.905   6.783 -0.6251  0.0552 -0.1692
   91SAPS   H4X 8899   0.726   4.834   6.744 -2.0086  0.9685  0.7857
   91SAPS   H4Y 8900   0.742   4.990   6.822 -0.1906  0.3558 -0.1472
   91SAPS   C35 8901   0.872   4.841   6.902  0.8033  0.8494 -0.8933
   91SAPS   H5X 8902   0.945   4.910   6.950 -0.6885  0.2602  2.4761
   91SAPS   H5Y 8903   0.922   4.746   6.872 -0.9221 -0.6124  0.6428
   91SAPS   C36 8904   0.787   4.815   7.030 -0.0108  0.6153 -0.3415
   91SAPS   H6X 8905   0.700   4.753   7.000  0.8003 -0.0348 -1.3948
   91SAPS   H6Y 8906   0.749   4.912   7.070  1.2933 -0.3714  3.7434
   91SAPS   C37 8907   0.874   4.767   7.149  0.2477 -0.5189 -0.8299
   91SAPS   H7X 8908   0.955   4.844   7.154  0.2282 -0.5308 -0.3425
   91SAPS   H7Y 8909   0.921   4.670   7.122 -0.6773 -1.1641 -0.1793
   91SAPS   C38 8910   0.791   4.738   7.271  0.2725  0.0522  0.0307
   91SAPS   H8X 8911   0.741   4.639   7.268 -3.8118  1.8719  0.4556
   91SAPS   H8Y 8912   0.721   4.824   7.282  2.5541  2.0550 -0.3736
   91SAPS   C39 8913   0.876   4.724   7.398  0.5332  0.0624 -0.1699
   91SAPS   H9X 8914   0.942   4.814   7.396  0.8985 -0.1886  0.4169
   91SAPS   H9Y 8915   0.933   4.629   7.388  2.9048  1.3896 -0.0097
   91SAPS  C310 8916   0.784   4.708   7.520 -0.1930  0.1628  0.4548
   91SAPS  H10X 8917   0.714   4.627   7.493  0.4529 -0.6123  1.0780
   91SAPS  H10Y 8918   0.740   4.810   7.521  1.1605  0.8147 -1.0138
   91SAPS  C311 8919   0.856   4.676   7.654  0.0728  0.2739 -0.1540
   91SAPS  H11X 8920   0.918   4.762   7.688 -2.6096  1.7938  1.2054
   91SAPS  H11Y 8921   0.926   4.593   7.632  1.3622  1.3208 -0.0968
   91SAPS  C312 8922   0.771   4.628   7.770  0.3548 -1.0404  0.1345
   91SAPS  H12X 8923   0.709   4.536   7.759 -0.6905 -0.3090 -0.2906
   91SAPS  H12Y 8924   0.707   4.715   7.796  2.3218  0.2689  0.8545
   91SAPS  C313 8925   0.857   4.600   7.890 -0.1436  0.4810  0.5232
   91SAPS  H13X 8926   0.921   4.691   7.899 -0.1056  0.7975 -2.0642
   91SAPS  H13Y 8927   0.917   4.515   7.850 -0.0382  0.1351  1.4076
   91SAPS  C314 8928   0.780   4.557   8.013  0.0826 -0.5064  0.0893
   91SAPS  H14X 8929   0.705   4.480   7.984 -0.1823 -0.6022  0.9996
   91SAPS  H14Y 8930   0.726   4.641   8.061 -0.6114 -1.0360  0.2653
   91SAPS  C315 8931   0.867   4.480   8.116 -0.0145 -0.4932 -0.3119
   91SAPS  H15X 8932   0.942   4.559   8.142 -0.5070  0.0821 -0.6139
   91SAPS  H15Y 8933   0.913   4.392   8.067  0.8828 -0.3956  0.3208
   91SAPS  C316 8934   0.796   4.424   8.232  0.1091 -0.5145  0.1182
   91SAPS  H16X 8935   0.741   4.337   8.192  0.6624 -1.1229  0.6562
   91SAPS  H16Y 8936   0.720   4.494   8.275  0.6391  1.2299 -1.6491
   91SAPS  C317 8937   0.874   4.381   8.356  0.0235  0.2735  1.0814
   91SAPS  H17X 8938   0.912   4.472   8.406 -2.3599  1.3363  1.0710
   91SAPS  H17Y 8939   0.957   4.320   8.312 -0.9094  0.9489 -1.8709
   91SAPS  C318 8940   0.788   4.305   8.450 -0.4517  0.0492  0.6640
   91SAPS  H18X 8941   0.699   4.367   8.477 -2.0757 -0.8392 -2.2535
   91SAPS  H18Y 8942   0.844   4.286   8.544  0.5737  2.0917  0.5288
   91SAPS  H18Z 8943   0.737   4.219   8.403  0.6472  0.4512 -1.3671
   92SAPS     N 8944   5.324   2.780   6.180 -0.5588  0.2301  0.0845
   92SAPS   HN1 8945   5.377   2.694   6.208 -2.7478 -1.3609 -0.3918
   92SAPS   HN2 8946   5.261   2.748   6.104  0.8275 -2.7426  0.0156
   92SAPS   HN3 8947   5.378   2.854   6.131 -1.2571  1.0514  0.5450
   92SAPS   C12 8948   5.261   2.857   6.287  0.0702  0.0051 -0.1536
   92SAPS  H12A 8949   5.215   2.943   6.242 -0.9905  0.0163  0.9154
   92SAPS   C13 8950   5.152   2.778   6.360  0.4018  0.5032  0.1534
   92SAPS  O13A 8951   5.121   2.654   6.342 -0.0938 -0.5301  0.2953
   92SAPS  O13B 8952   5.073   2.851   6.431  0.1258  0.4688  0.1981
   92SAPS   C11 8953   5.370   2.888   6.388 -0.4196 -0.4480 -0.5729
   92SAPS  H11A 8954   5.398   2.797   6.447  1.1573  1.1076  1.2108
   92SAPS  H11B 8955   5.314   2.952   6.459 -0.7993  0.7282 -1.8964
   92SAPS     P 8956   5.549   3.091   6.352 -0.0148  0.1506 -0.2869
   92SAPS   O13 8957   5.680   3.098   6.275 -0.7772  0.3632 -0.6536
   92SAPS   O14 8958   5.437   3.187   6.333  0.2511  1.0095  0.0431
   92SAPS   O12 8959   5.488   2.941   6.331 -0.0753  0.0175 -0.3033
   92SAPS   O11 8960   5.584   3.084   6.501 -0.1826  0.0876 -0.2232
   92SAPS    C1 8961   5.601   2.975   6.584  0.3862  0.2954 -0.4174
   92SAPS    HA 8962   5.506   2.917   6.593 -0.5993  1.8855 -0.2784
   92SAPS    HB 8963   5.683   2.916   6.537 -1.2605 -1.8769 -0.7529
   92SAPS    C2 8964   5.645   3.021   6.721 -0.6104 -0.7235 -0.3611
   92SAPS    HS 8965   5.678   2.939   6.789 -0.7910  0.4582  1.2288
   92SAPS   O21 8966   5.543   3.106   6.780 -0.0771 -0.5733  0.1020
   92SAPS   C21 8967   5.437   3.046   6.833 -0.2465  0.2517 -0.3255
   92SAPS   O22 8968   5.411   2.924   6.825 -0.0851 -0.4042 -0.5233
   92SAPS   C22 8969   5.340   3.138   6.907 -0.1567 -0.2787  0.3993
   92SAPS   H2R 8970   5.268   3.184   6.837 -0.3022 -0.3313  0.5143
   92SAPS   H2S 8971   5.278   3.075   6.975  0.6132 -0.4150  0.9919
   92SAPS    C3 8972   5.773   3.105   6.699 -0.6340 -0.2168  0.1714
   92SAPS    HX 8973   5.755   3.194   6.635  2.4676  0.1851 -0.3014
   92SAPS    HY 8974   5.847   3.038   6.650 -1.6503  0.0082 -1.8070
   92SAPS   O31 8975   5.817   3.157   6.828  0.1543  0.1974 -0.4697
   92SAPS   C31 8976   5.862   3.284   6.825 -0.9198  0.5635 -0.2966
   92SAPS   O32 8977   5.885   3.347   6.724 -0.2380  0.4654  0.0244
   92SAPS   C32 8978   5.892   3.341   6.965 -0.0685 -0.2766 -0.1136
   92SAPS   H2X 8979   5.943   3.263   7.025  0.0900  0.1672  0.3343
   92SAPS   H2Y 8980   5.797   3.354   7.020 -1.2175 -0.3530 -1.9957
   92SAPS   C23 8981   5.407   3.244   7.000  0.1868 -0.0658  0.0671
   92SAPS   H3R 8982   5.329   3.320   7.021 -1.5062 -1.2249 -1.6962
   92SAPS   H3S 8983   5.482   3.298   6.939 -0.6467  0.2116 -0.7362
   92SAPS   C24 8984   5.470   3.191   7.130  0.2177  0.3735  0.7505
   92SAPS   H4R 8985   5.397   3.119   7.173  1.4404 -0.5164  1.3936
   92SAPS   H4S 8986   5.482   3.282   7.193 -0.0694  0.1740  1.0919
   92SAPS   C25 8987   5.604   3.125   7.104  0.4505  0.6996  0.1276
   92SAPS   H5R 8988   5.667   3.162   7.021 -0.0584  0.4107 -0.3975
   92SAPS   C26 8989   5.655   3.025   7.173  0.5340 -1.4563 -0.0133
   92SAPS   H6R 8990   5.753   2.983   7.148  0.6493 -1.2424  0.0788
   92SAPS   C27 8991   5.588   2.956   7.288 -0.4051  0.3422 -0.2046
   92SAPS   H7R 8992   5.546   3.037   7.351  0.2125  1.1056 -0.7671
   92SAPS   H7S 8993   5.670   2.907   7.344 -0.4902  1.5368  1.0287
   92SAPS   C28 8994   5.479   2.850   7.253 -0.4844  0.0839  0.2979
   92SAPS   H8R 8995   5.408   2.864   7.170 -1.0465  0.0833  0.7699
   92SAPS   C29 8996   5.468   2.740   7.327  0.3869 -0.4134  0.6347
   92SAPS   H9R 8997   5.382   2.675   7.302  0.8182  0.1104 -2.5961
   92SAPS  C210 8998   5.543   2.696   7.452  0.0003 -0.8296 -0.2394
   92SAPS  H10R 8999   5.637   2.755   7.465 -1.4384  1.6077 -0.2781
   92SAPS  H10S 9000   5.568   2.588   7.440 -0.3326 -0.7924 -1.3178
   92SAPS  C211 9001   5.451   2.714   7.571 -0.2492  0.2872 -0.2230
   92SAPS  H11R 9002   5.362   2.777   7.557 -1.9929 -1.1041  3.3449
   92SAPS  C212 9003   5.468   2.663   7.697  1.0462 -0.2118  0.3210
   92SAPS  H12R 9004   5.383   2.682   7.764  1.0726 -0.1159  0.3271
   92SAPS  C213 9005   5.576   2.578   7.752  0.7532 -0.7034  0.4911
   92SAPS  H13R 9006   5.647   2.648   7.800 -1.8758  1.8369  0.9247
   92SAPS  H13S 9007   5.631   2.532   7.667  0.5143 -1.6561  0.8386
   92SAPS  C214 9008   5.515   2.465   7.835  0.1173  0.3824  0.3309
   92SAPS  H14R 9009   5.413   2.436   7.803  0.3469 -1.8469  1.4154
   92SAPS  C215 9010   5.565   2.404   7.942 -0.0129  0.5235  0.6438
   92SAPS  H15R 9011   5.496   2.330   7.985  0.1865 -1.6399 -2.4373
   92SAPS  C216 9012   5.696   2.414   8.017 -0.4772 -0.6427 -0.0923
   92SAPS  H16R 9013   5.771   2.477   7.965 -1.3884 -0.6721 -1.5193
   92SAPS  H16S 9014   5.748   2.316   8.015  2.0958  0.6719 -1.5519
   92SAPS  C217 9015   5.682   2.461   8.170 -0.1691  0.5049 -0.1180
   92SAPS  H17R 9016   5.632   2.560   8.177 -2.0756 -0.4592  0.5217
   92SAPS  H17S 9017   5.784   2.470   8.214  0.2436 -0.1553 -0.9022
   92SAPS  C218 9018   5.623   2.357   8.263  0.9790  0.0670  0.5042
   92SAPS  H18R 9019   5.689   2.268   8.268 -0.4703 -0.9889  1.5516
   92SAPS  H18S 9020   5.523   2.327   8.224  1.3789  0.1125 -0.5997
   92SAPS  C219 9021   5.603   2.413   8.402  0.3704  0.4729  0.4161
   92SAPS  H19R 9022   5.535   2.500   8.388  0.1260  0.1384 -0.5286
   92SAPS  H19S 9023   5.701   2.455   8.434  0.8984  1.4919 -2.2007
   92SAPS  C220 9024   5.539   2.311   8.499 -0.7572  0.0722 -0.2675
   92SAPS  H20R 9025   5.537   2.355   8.601  1.7682  0.7448 -0.4330
   92SAPS  H20S 9026   5.604   2.221   8.499  2.8133  2.3976 -2.1160
   92SAPS  H20T 9027   5.443   2.267   8.465 -1.3950 -1.9593  3.6408
   92SAPS   C33 9028   5.961   3.479   6.967 -0.0100  0.4065  0.0204
   92SAPS   H3X 9029   5.918   3.554   6.897 -0.0175  1.4250  1.0976
   92SAPS   H3Y 9030   6.070   3.477   6.949 -0.0862  0.2579 -0.4576
   92SAPS   C34 9031   5.936   3.540   7.107 -0.1396 -0.4302 -0.0967
   92SAPS   H4X 9032   5.835   3.526   7.150 -0.1287  0.0719  0.0898
   92SAPS   H4Y 9033   5.949   3.650   7.103  1.9668 -0.6534 -1.2045
   92SAPS   C35 9034   6.042   3.485   7.204  0.6357 -0.4749  0.4016
   92SAPS   H5X 9035   6.140   3.533   7.179  0.1428  0.0398 -0.5941
   92SAPS   H5Y 9036   6.052   3.375   7.197  0.2454 -0.4513 -0.6280
   92SAPS   C36 9037   6.014   3.519   7.354 -0.6238  0.1764  0.1133
   92SAPS   H6X 9038   5.998   3.627   7.377  0.7736  0.4487 -0.0572
   92SAPS   H6Y 9039   6.090   3.469   7.418 -1.8971 -0.1772  1.3911
   92SAPS   C37 9040   5.889   3.433   7.410 -0.8569 -0.0584  0.0534
   92SAPS   H7X 9041   5.889   3.328   7.373 -3.3172 -0.7968  1.8468
   92SAPS   H7Y 9042   5.816   3.499   7.358 -0.5584 -0.7774 -1.3335
   92SAPS   C38 9043   5.892   3.408   7.561 -0.0405  0.5210 -0.3213
   92SAPS   H8X 9044   5.996   3.398   7.597 -0.0239 -0.1059 -0.5373
   92SAPS   H8Y 9045   5.829   3.317   7.569  1.4200 -0.5794 -1.0129
   92SAPS   C39 9046   5.854   3.532   7.640 -0.5355 -0.0906  0.2225
   92SAPS   H9X 9047   5.758   3.576   7.605 -0.6038 -0.5531 -0.1767
   92SAPS   H9Y 9048   5.929   3.613   7.629 -0.5547  0.1235  1.4727
   92SAPS  C310 9049   5.840   3.490   7.790 -0.7923 -0.0949  0.1191
   92SAPS  H10X 9050   5.935   3.463   7.840 -2.0655  0.1485  2.8155
   92SAPS  H10Y 9051   5.766   3.406   7.789 -0.7249 -0.2027 -2.3060
   92SAPS  C311 9052   5.787   3.593   7.879  0.0159  0.5235  0.1165
   92SAPS  H11X 9053   5.691   3.635   7.843 -1.0906 -1.3727  0.6919
   92SAPS  H11Y 9054   5.848   3.686   7.876 -0.8598  1.1091  0.2557
   92SAPS  C312 9055   5.762   3.548   8.020  0.5900  0.1834 -0.6701
   92SAPS  H12X 9056   5.854   3.495   8.051  0.4452 -0.8250 -1.8687
   92SAPS  H12Y 9057   5.680   3.474   8.025  1.8090 -1.1352  0.7903
   92SAPS  C313 9058   5.744   3.674   8.111  0.5099 -0.0321 -0.1697
   92SAPS  H13X 9059   5.669   3.739   8.063  1.1561  0.6213 -0.3082
   92SAPS  H13Y 9060   5.840   3.730   8.114  0.2655  0.4416 -0.9419
   92SAPS  C314 9061   5.718   3.648   8.260  0.2623  0.2147  0.0319
   92SAPS  H14X 9062   5.822   3.660   8.298  0.8297  1.8931 -1.8514
   92SAPS  H14Y 9063   5.683   3.546   8.286  0.7276  0.0785  0.1355
   92SAPS  C315 9064   5.604   3.733   8.312  0.1848  0.0205 -0.7644
   92SAPS  H15X 9065   5.595   3.702   8.418  1.5203 -1.0677 -0.9333
   92SAPS  H15Y 9066   5.502   3.717   8.271  0.2376  1.2108 -1.4148
   92SAPS  C316 9067   5.640   3.884   8.310  0.4398  0.7842 -0.0453
   92SAPS  H16X 9068   5.613   3.921   8.209 -0.0387 -3.7790 -1.8312
   92SAPS  H16Y 9069   5.750   3.885   8.321  0.7407 -2.6064 -1.5048
   92SAPS  C317 9070   5.568   3.963   8.424  0.1975  0.9944 -0.6413
   92SAPS  H17X 9071   5.603   3.925   8.523  2.6526  0.9072 -1.4697
   92SAPS  H17Y 9072   5.460   3.940   8.413 -0.0177  1.5902  0.1681
   92SAPS  C318 9073   5.586   4.110   8.411 -0.2810 -0.1335 -0.1762
   92SAPS  H18X 9074   5.564   4.150   8.310 -2.0284  1.2914  0.7159
   92SAPS  H18Y 9075   5.691   4.144   8.425 -0.9502  2.5591 -1.0183
   92SAPS  H18Z 9076   5.524   4.155   8.491 -0.9233 -0.4623 -0.4888
   93SAPS     N 9077   5.544   2.010   6.432 -0.4588  0.1121 -0.2437
   93SAPS   HN1 9078   5.449   1.987   6.468 -1.1166 -1.3220 -2.6429
   93SAPS   HN2 9079   5.576   2.077   6.505 -0.5559 -0.5030  0.3742
   93SAPS   HN3 9080   5.523   2.065   6.346  1.6102  1.1036 -0.1713
   93SAPS   C12 9081   5.629   1.886   6.418  0.2480 -0.1097  0.2057
   93SAPS  H12A 9082   5.566   1.799   6.430  0.0116  0.3063  2.4236
   93SAPS   C13 9083   5.694   1.862   6.281 -0.3346 -0.0839 -0.2981
   93SAPS  O13A 9084   5.666   1.940   6.185  0.0875 -0.1063  0.2585
   93SAPS  O13B 9085   5.729   1.742   6.259  0.4863 -0.1421 -0.0259
   93SAPS   C11 9086   5.730   1.887   6.528  0.2658 -0.0427  0.1048
   93SAPS  H11A 9087   5.784   1.790   6.538 -0.2660 -0.2607  1.0088
   93SAPS  H11B 9088   5.672   1.887   6.623  0.2461 -2.8697  0.1663
   93SAPS     P 9089   5.945   2.010   6.577 -0.2674  0.2027 -0.3980
   93SAPS   O13 9090   6.013   1.886   6.522  0.5270  0.0677 -0.2086
   93SAPS   O14 9091   6.014   2.139   6.560  0.1066  0.0739  0.6410
   93SAPS   O12 9092   5.809   2.006   6.518 -0.1016  0.1194 -0.0293
   93SAPS   O11 9093   5.919   1.978   6.730  0.2722 -0.2214 -0.5651
   93SAPS    C1 9094   5.856   2.081   6.815  0.2127  0.4344  0.7777
   93SAPS    HA 9095   5.943   2.146   6.838  0.7336 -0.5490  1.6771
   93SAPS    HB 9096   5.772   2.130   6.762  1.8076  3.2411  0.6146
   93SAPS    C2 9097   5.791   2.032   6.945  0.0049  0.6047  0.0942
   93SAPS    HS 9098   5.770   2.121   7.007  1.3651  1.0053  0.0111
   93SAPS   O21 9099   5.884   1.954   7.019  0.2143 -0.2317  0.3196
   93SAPS   C21 9100   5.991   2.017   7.065 -0.1979  0.1774  0.2976
   93SAPS   O22 9101   6.012   2.137   7.062 -0.1938  0.7440  1.0256
   93SAPS   C22 9102   6.090   1.911   7.129  0.3932  0.7784 -1.0844
   93SAPS   H2R 9103   6.039   1.849   7.206  0.8950 -0.1609 -1.4987
   93SAPS   H2S 9104   6.111   1.850   7.038 -1.1392 -1.1102 -0.2363
   93SAPS    C3 9105   5.661   1.945   6.928  0.0654 -0.5638 -0.0592
   93SAPS    HX 9106   5.677   1.865   6.852 -0.2921 -0.7322  0.0428
   93SAPS    HY 9107   5.583   2.010   6.884 -0.8502 -0.5630  1.5041
   93SAPS   O31 9108   5.607   1.898   7.047 -0.1579  0.1689  0.0861
   93SAPS   C31 9109   5.634   1.768   7.080 -0.3688 -0.2114  0.4011
   93SAPS   O32 9110   5.676   1.681   7.005 -0.2341 -0.0135  0.4551
   93SAPS   C32 9111   5.606   1.743   7.221 -0.4400  0.8438  0.4830
   93SAPS   H2X 9112   5.567   1.639   7.226  1.9575 -0.2586 -1.4958
   93SAPS   H2Y 9113   5.526   1.812   7.257 -1.4071 -1.1730  2.4295
   93SAPS   C23 9114   6.217   1.986   7.184  0.1454  0.2639 -0.2041
   93SAPS   H3R 9115   6.187   2.048   7.271  0.7194 -0.8026  0.7830
   93SAPS   H3S 9116   6.245   2.063   7.110  1.0798  1.7794  1.6562
   93SAPS   C24 9117   6.339   1.892   7.207 -0.1366  0.0995 -0.0358
   93SAPS   H4R 9118   6.370   1.830   7.121  1.1052 -0.2380  0.6348
   93SAPS   H4S 9119   6.308   1.822   7.287 -1.6374  0.1923 -0.5075
   93SAPS   C25 9120   6.448   1.970   7.266 -0.1391 -0.0750 -0.0594
   93SAPS   H5R 9121   6.511   2.024   7.193  0.2565  0.3663  0.6008
   93SAPS   C26 9122   6.485   1.966   7.400  0.0674  0.1481  1.2090
   93SAPS   H6R 9123   6.576   2.026   7.418  0.6115 -0.5204  0.7365
   93SAPS   C27 9124   6.425   1.885   7.510 -0.2230 -0.6013  0.3804
   93SAPS   H7R 9125   6.392   1.786   7.473 -0.9735 -0.2208  0.0165
   93SAPS   H7S 9126   6.333   1.930   7.554 -0.5671 -0.3663 -0.5649
   93SAPS   C28 9127   6.514   1.877   7.634  0.1544  0.0439  0.2822
   93SAPS   H8R 9128   6.623   1.893   7.634  0.2930 -0.8825  0.1128
   93SAPS   C29 9129   6.472   1.841   7.757 -0.6495 -0.3457 -0.4672
   93SAPS   H9R 9130   6.549   1.845   7.835  0.8993  1.5149 -1.9905
   93SAPS  C210 9131   6.330   1.800   7.801 -0.3948 -0.1236 -0.0015
   93SAPS  H10R 9132   6.269   1.824   7.711  0.7656  3.0633 -0.0745
   93SAPS  H10S 9133   6.294   1.872   7.878  0.9449  0.9104 -0.2980
   93SAPS  C211 9134   6.318   1.665   7.856 -0.1211  0.7178 -0.7222
   93SAPS  H11R 9135   6.315   1.581   7.784  1.5316  1.7736 -2.1085
   93SAPS  C212 9136   6.296   1.633   7.987 -0.1968  0.6989  0.2270
   93SAPS  H12R 9137   6.287   1.524   7.998 -3.4624  0.8770  0.3832
   93SAPS  C213 9138   6.287   1.723   8.108 -0.4690  0.1931 -0.1374
   93SAPS  H13R 9139   6.330   1.823   8.083  0.2290  0.9117  3.3548
   93SAPS  H13S 9140   6.335   1.672   8.195  0.7010 -0.1359 -0.9466
   93SAPS  C214 9141   6.139   1.738   8.137  0.2019  0.5694 -0.6231
   93SAPS  H14R 9142   6.058   1.722   8.064  0.8395  0.2012 -1.2673
   93SAPS  C215 9143   6.092   1.784   8.252  0.4109  0.0511 -0.0194
   93SAPS  H15R 9144   5.983   1.791   8.263  0.3684 -1.6462  0.9952
   93SAPS  C216 9145   6.168   1.831   8.371 -0.2546 -0.6764  0.6832
   93SAPS  H16R 9146   6.107   1.907   8.425  0.8733  1.3698 -0.8276
   93SAPS  H16S 9147   6.248   1.892   8.325 -1.6485  0.6975 -0.0119
   93SAPS  C217 9148   6.211   1.724   8.475 -0.4755 -0.3521 -0.1271
   93SAPS  H17R 9149   6.300   1.755   8.532 -0.5581  1.1769 -0.7812
   93SAPS  H17S 9150   6.243   1.626   8.434 -2.5266 -0.6352 -1.2224
   93SAPS  C218 9151   6.097   1.693   8.572  0.5830 -0.0562  0.5211
   93SAPS  H18R 9152   6.022   1.617   8.540 -0.1227  0.7010  0.3333
   93SAPS  H18S 9153   6.036   1.785   8.585  1.7225  0.9243 -0.7554
   93SAPS  C219 9154   6.131   1.645   8.708 -0.1009  0.3374 -0.2492
   93SAPS  H19R 9155   6.214   1.699   8.758 -0.3633 -0.5305  1.1909
   93SAPS  H19S 9156   6.166   1.539   8.710 -0.7772  0.1163  0.9765
   93SAPS  C220 9157   6.009   1.641   8.798  0.0478  0.0861 -0.4190
   93SAPS  H20R 9158   5.937   1.575   8.745 -1.1054  0.7990  0.2226
   93SAPS  H20S 9159   5.965   1.743   8.804 -0.1613 -0.0623  1.0533
   93SAPS  H20T 9160   6.029   1.602   8.901  0.2117  1.3190  0.0282
   93SAPS   C33 9161   5.734   1.761   7.296  0.3390 -0.4441 -0.5077
   93SAPS   H3X 9162   5.767   1.866   7.283 -1.9381  0.4070  0.1007
   93SAPS   H3Y 9163   5.810   1.690   7.257  1.4367  0.9829 -1.0843
   93SAPS   C34 9164   5.725   1.742   7.448  0.0070 -0.0198  0.8860
   93SAPS   H4X 9165   5.824   1.772   7.490  1.2335  0.3199 -2.0237
   93SAPS   H4Y 9166   5.707   1.634   7.472  1.2884 -0.5242 -0.2844
   93SAPS   C35 9167   5.607   1.824   7.510 -0.1631 -0.0677  0.1398
   93SAPS   H5X 9168   5.508   1.794   7.470  1.9430 -2.6297 -3.8374
   93SAPS   H5Y 9169   5.627   1.932   7.491 -0.0651 -0.1335 -0.1450
   93SAPS   C36 9170   5.601   1.822   7.664  0.5287  0.2005 -0.1031
   93SAPS   H6X 9171   5.704   1.828   7.705  0.2303 -0.2023  0.7356
   93SAPS   H6Y 9172   5.542   1.734   7.698  0.4018  0.3369  0.0261
   93SAPS   C37 9173   5.534   1.950   7.709  0.3796 -0.3153 -0.1179
   93SAPS   H7X 9174   5.433   1.959   7.664 -0.8914  1.5241  2.8002
   93SAPS   H7Y 9175   5.602   2.036   7.687 -0.0981  1.4320  4.1508
   93SAPS   C38 9176   5.512   1.967   7.862 -0.2742 -0.6590 -0.3898
   93SAPS   H8X 9177   5.478   1.877   7.919 -0.1808  0.3879  1.3862
   93SAPS   H8Y 9178   5.428   2.039   7.871  0.0071 -0.4530  0.7613
   93SAPS   C39 9179   5.640   2.015   7.932  0.0429  0.2989  0.0985
   93SAPS   H9X 9180   5.670   2.114   7.891 -2.3779  1.6329  1.3007
   93SAPS   H9Y 9181   5.713   1.935   7.907 -0.8857  0.1433 -2.4223
   93SAPS  C310 9182   5.624   2.031   8.087  0.4847  0.0209  0.2638
   93SAPS  H10X 9183   5.522   2.058   8.120 -0.5178 -0.6440 -2.0975
   93SAPS  H10Y 9184   5.689   2.115   8.119  2.4442 -0.9279 -1.0214
   93SAPS  C311 9185   5.685   1.906   8.165 -0.5961 -0.2220 -0.0373
   93SAPS  H11X 9186   5.787   1.891   8.125  0.5463 -4.5541  3.5959
   93SAPS  H11Y 9187   5.625   1.816   8.137 -1.9437  0.7508 -0.4048
   93SAPS  C312 9188   5.665   1.929   8.317  0.7305 -0.5789  0.2303
   93SAPS  H12X 9189   5.558   1.924   8.346  0.3727  0.6796 -0.7860
   93SAPS  H12Y 9190   5.696   2.033   8.342 -1.2741  0.2432 -0.5497
   93SAPS  C313 9191   5.737   1.834   8.416 -0.0301 -0.3117 -0.1926
   93SAPS  H13X 9192   5.841   1.871   8.415  0.2880 -1.1193 -2.3917
   93SAPS  H13Y 9193   5.737   1.731   8.374  2.6497 -0.7112  0.6034
   93SAPS  C314 9194   5.675   1.825   8.557 -0.5120 -0.0487  0.8317
   93SAPS  H14X 9195   5.731   1.759   8.627 -2.4204  0.8532  3.3997
   93SAPS  H14Y 9196   5.571   1.788   8.542 -1.0248  1.2202  1.0700
   93SAPS  C315 9197   5.661   1.957   8.631  0.4369  0.3281 -0.1094
   93SAPS  H15X 9198   5.627   1.947   8.736  3.7805 -0.9995  0.9650
   93SAPS  H15Y 9199   5.606   2.029   8.566  0.5752 -0.0985 -0.7066
   93SAPS  C316 9200   5.798   2.031   8.659 -0.9850  0.4788  0.0132
   93SAPS  H16X 9201   5.840   2.076   8.566 -0.4410 -0.6113 -0.2872
   93SAPS  H16Y 9202   5.864   1.950   8.697 -2.2949  0.1526  1.7095
   93SAPS  C317 9203   5.789   2.135   8.769 -0.6790  0.4975 -0.1752
   93SAPS  H17X 9204   5.744   2.084   8.857  4.2895 -1.8367  1.4205
   93SAPS  H17Y 9205   5.719   2.213   8.734  0.5975  2.2511  1.0508
   93SAPS  C318 9206   5.917   2.209   8.807 -0.6882 -0.6216  0.3560
   93SAPS  H18X 9207   5.982   2.132   8.854  0.5379  0.2623  0.1567
   93SAPS  H18Y 9208   5.903   2.282   8.889  0.0167  0.7473 -0.6965
   93SAPS  H18Z 9209   5.973   2.245   8.717 -1.7122 -0.4001 -0.2061
   94SAPS     N 9210   4.790   5.206   5.727  0.3275  0.2510 -0.7912
   94SAPS   HN1 9211   4.843   5.127   5.770  0.9816  0.0504 -1.9316
   94SAPS   HN2 9212   4.716   5.161   5.669  0.3464 -0.8247 -0.0164
   94SAPS   HN3 9213   4.856   5.255   5.663  0.2440  3.6143  1.4677
   94SAPS   C12 9214   4.748   5.313   5.821  0.1215  0.2045 -0.2731
   94SAPS  H12A 9215   4.699   5.393   5.767  0.3211  1.2636  1.0717
   94SAPS   C13 9216   4.648   5.261   5.930  0.0972  0.5677 -0.4268
   94SAPS  O13A 9217   4.595   5.148   5.922 -0.4454 -0.0045  0.6610
   94SAPS  O13B 9218   4.607   5.345   6.013 -0.5999 -0.4684 -0.1277
   94SAPS   C11 9219   4.875   5.361   5.901  0.1582  0.0589  0.1187
   94SAPS  H11A 9220   4.918   5.274   5.956 -1.9182 -0.3054  1.2533
   94SAPS  H11B 9221   4.846   5.429   5.984  1.1542 -2.5144  2.7317
   94SAPS     P 9222   5.120   5.363   5.816  0.3932  0.1068 -0.1276
   94SAPS   O13 9223   5.101   5.217   5.813 -0.5629 -0.1682 -0.2678
   94SAPS   O14 9224   5.197   5.417   5.702 -0.5240  0.3818  0.3742
   94SAPS   O12 9225   4.973   5.426   5.801  0.2702  0.4178 -0.2919
   94SAPS   O11 9226   5.188   5.409   5.950 -1.2485 -0.2306  0.3512
   94SAPS    C1 9227   5.191   5.551   5.980  0.3159 -0.6514 -0.2038
   94SAPS    HA 9228   5.268   5.603   5.918 -0.7799 -0.9716 -1.8938
   94SAPS    HB 9229   5.093   5.594   5.953 -0.6445 -0.7059  2.8377
   94SAPS    C2 9230   5.223   5.598   6.124 -0.7014 -0.3653 -0.2341
   94SAPS    HS 9231   5.328   5.563   6.131  0.7724  2.7466 -3.5057
   94SAPS   O21 9232   5.126   5.544   6.215 -0.5320 -0.1146 -0.3359
   94SAPS   C21 9233   5.180   5.452   6.294  0.8925 -0.9017  0.4653
   94SAPS   O22 9234   5.294   5.414   6.292 -0.4783 -0.4540  0.1426
   94SAPS   C22 9235   5.065   5.395   6.371  1.5635 -0.0621 -0.2830
   94SAPS   H2R 9236   4.975   5.454   6.346  2.0774  0.5628 -0.6980
   94SAPS   H2S 9237   5.043   5.295   6.327 -2.8296  1.2129 -1.4431
   94SAPS    C3 9238   5.241   5.757   6.124  0.4114  0.2342  0.4286
   94SAPS    HX 9239   5.171   5.802   6.051  0.3539  0.1643  0.4402
   94SAPS    HY 9240   5.345   5.775   6.090 -0.0465  2.7614  0.1499
   94SAPS   O31 9241   5.221   5.817   6.252 -0.0955 -0.3422  0.1370
   94SAPS   C31 9242   5.126   5.904   6.271 -0.4953 -0.4591  0.7914
   94SAPS   O32 9243   5.057   5.961   6.187 -0.0378 -0.6156  0.2487
   94SAPS   C32 9244   5.107   5.933   6.421  0.5645 -0.0379  0.3591
   94SAPS   H2X 9245   5.087   5.840   6.478 -1.9135  1.7879  2.7796
   94SAPS   H2Y 9246   5.010   5.988   6.426 -0.6226 -2.1471  2.2556
   94SAPS   C23 9247   5.097   5.389   6.521 -0.0958  0.4637  0.1538
   94SAPS   H3R 9248   5.177   5.315   6.544 -0.5465 -0.2009 -0.3788
   94SAPS   H3S 9249   5.015   5.336   6.575  1.2339 -0.0283  1.7738
   94SAPS   C24 9250   5.106   5.520   6.590  0.3538 -0.5707  0.5677
   94SAPS   H4R 9251   5.158   5.591   6.521 -1.8772  0.4955 -0.0954
   94SAPS   H4S 9252   5.171   5.508   6.680 -0.9464 -0.7416  1.5001
   94SAPS   C25 9253   4.974   5.573   6.636 -0.0457 -0.0928  0.3355
   94SAPS   H5R 9254   4.908   5.621   6.562  1.3741 -0.2621 -1.0914
   94SAPS   C26 9255   4.918   5.561   6.756 -0.0136  0.3784 -0.0668
   94SAPS   H6R 9256   4.818   5.603   6.771 -0.4132 -0.3985 -0.4879
   94SAPS   C27 9257   4.977   5.483   6.868  0.8696  0.2607 -0.2706
   94SAPS   H7R 9258   5.050   5.557   6.907  2.5818 -0.0256 -2.6974
   94SAPS   H7S 9259   5.019   5.391   6.824 -0.0761  0.7277 -2.2845
   94SAPS   C28 9260   4.871   5.442   6.966  0.0069 -0.1541 -0.0995
   94SAPS   H8R 9261   4.770   5.438   6.924 -0.2504  0.7977  0.4013
   94SAPS   C29 9262   4.887   5.430   7.099  0.0130 -0.2962 -0.0114
   94SAPS   H9R 9263   4.804   5.400   7.164 -2.3513 -0.3498 -2.8692
   94SAPS  C210 9264   5.017   5.445   7.168  0.4020  0.5633 -0.4784
   94SAPS  H10R 9265   5.096   5.471   7.093 -1.6112  0.8079 -2.6143
   94SAPS  H10S 9266   5.042   5.346   7.212 -3.2078 -0.9892 -1.5952
   94SAPS  C211 9267   5.008   5.552   7.282  0.9083 -0.2184 -0.5058
   94SAPS  H11R 9268   5.040   5.655   7.258 -1.1136  0.8529  1.1201
   94SAPS  C212 9269   4.960   5.533   7.414  0.4327 -0.3979  0.2188
   94SAPS  H12R 9270   4.948   5.627   7.469 -2.0528  2.3162 -4.4311
   94SAPS  C213 9271   4.908   5.395   7.464 -0.2741 -0.1652  0.8704
   94SAPS  H13R 9272   4.899   5.322   7.380  2.4194 -1.1631  1.3596
   94SAPS  H13S 9273   4.808   5.402   7.513 -0.8698  0.5916 -0.3828
   94SAPS  C214 9274   5.018   5.344   7.553 -0.1041  0.0582 -0.3979
   94SAPS  H14R 9275   5.098   5.288   7.502 -0.6946  0.4040 -1.7711
   94SAPS  C215 9276   5.028   5.361   7.688 -0.1664 -0.6765  0.4905
   94SAPS  H15R 9277   5.117   5.311   7.728  2.6926  1.8046 -2.2305
   94SAPS  C216 9278   4.937   5.434   7.782  0.4333  0.6986 -0.0299
   94SAPS  H16R 9279   4.854   5.363   7.801  0.4165  0.3307 -1.3645
   94SAPS  H16S 9280   4.898   5.525   7.732 -1.9852  0.2999  1.0158
   94SAPS  C217 9281   5.015   5.479   7.910  1.1637  0.0661  0.3073
   94SAPS  H17R 9282   5.090   5.403   7.938 -0.3746 -0.7396  2.5000
   94SAPS  H17S 9283   4.938   5.508   7.985  2.0867  0.7366  1.0144
   94SAPS  C218 9284   5.065   5.625   7.883 -0.1688 -0.1866 -0.1765
   94SAPS  H18R 9285   4.975   5.689   7.872  0.8862  1.2564 -0.6663
   94SAPS  H18S 9286   5.135   5.631   7.797  0.5461 -1.0526  0.3222
   94SAPS  C219 9287   5.144   5.685   8.001 -0.2020  0.3119  0.8272
   94SAPS  H19R 9288   5.095   5.685   8.101  1.5015 -3.2316  1.8253
   94SAPS  H19S 9289   5.150   5.792   7.974 -3.3930  0.2789 -0.5472
   94SAPS  C220 9290   5.289   5.634   8.019 -0.0899 -0.4263  0.0581
   94SAPS  H20R 9291   5.333   5.624   7.918 -1.5208 -0.5680 -0.5732
   94SAPS  H20S 9292   5.282   5.531   8.060 -3.4318 -0.5611 -0.6105
   94SAPS  H20T 9293   5.344   5.711   8.078 -1.8262  3.3400 -2.8718
   94SAPS   C33 9294   5.221   6.017   6.482  0.1727 -0.8119 -0.2537
   94SAPS   H3X 9295   5.181   6.120   6.476 -1.9107 -1.5430  0.2178
   94SAPS   H3Y 9296   5.318   6.004   6.429  0.3361 -1.7253  0.2429
   94SAPS   C34 9297   5.266   5.979   6.629  0.8785 -0.0442 -0.5805
   94SAPS   H4X 9298   5.341   6.052   6.663  1.6009  0.8013 -3.6544
   94SAPS   H4Y 9299   5.306   5.875   6.625 -0.3726 -0.6044  0.3485
   94SAPS   C35 9300   5.156   5.985   6.738 -0.2724  0.0967  0.5530
   94SAPS   H5X 9301   5.063   5.951   6.687 -1.4363  0.8848  2.0386
   94SAPS   H5Y 9302   5.130   6.085   6.779 -1.7659  0.8764 -2.0596
   94SAPS   C36 9303   5.166   5.887   6.855  0.4465  0.1201 -0.0015
   94SAPS   H6X 9304   5.202   5.794   6.807 -1.5430 -2.0231  2.3556
   94SAPS   H6Y 9305   5.070   5.848   6.896  1.4173 -1.6945  0.6366
   94SAPS   C37 9306   5.245   5.928   6.978 -0.3980 -0.1756  0.6378
   94SAPS   H7X 9307   5.211   6.026   7.020 -1.4818 -0.3696  0.2640
   94SAPS   H7Y 9308   5.352   5.949   6.961 -0.6745 -1.3497 -3.8908
   94SAPS   C38 9309   5.236   5.809   7.084  0.1117 -0.2467  0.4467
   94SAPS   H8X 9310   5.295   5.727   7.037 -0.8454 -0.4966 -0.3583
   94SAPS   H8Y 9311   5.129   5.781   7.095  0.2883  0.1102  4.3766
   94SAPS   C39 9312   5.268   5.851   7.227 -0.4072 -0.4690  0.3756
   94SAPS   H9X 9313   5.243   5.768   7.296  1.5688 -2.4402 -1.1270
   94SAPS   H9Y 9314   5.210   5.940   7.258  2.2826  2.0961 -1.4008
   94SAPS  C310 9315   5.411   5.886   7.255  0.1765  0.3358 -0.3367
   94SAPS  H10X 9316   5.448   5.970   7.193 -2.1654  0.1787 -2.0711
   94SAPS  H10Y 9317   5.466   5.795   7.224 -1.5645 -0.9461  0.1728
   94SAPS  C311 9318   5.427   5.907   7.405 -0.4945 -0.3946 -0.6677
   94SAPS  H11X 9319   5.341   5.972   7.433 -1.8598 -1.9756 -0.9907
   94SAPS  H11Y 9320   5.519   5.968   7.413 -1.6780  1.6229 -1.5157
   94SAPS  C312 9321   5.423   5.777   7.485 -0.1464 -0.5488 -0.6400
   94SAPS  H12X 9322   5.506   5.718   7.439 -0.2265 -0.3832 -1.0021
   94SAPS  H12Y 9323   5.326   5.723   7.485 -0.2665 -0.3471  0.6026
   94SAPS  C313 9324   5.470   5.791   7.626 -0.5487  0.7036  0.3611
   94SAPS  H13X 9325   5.465   5.695   7.681  1.0653  0.8397  0.7959
   94SAPS  H13Y 9326   5.392   5.847   7.682 -5.4407 -3.2189 -1.8209
   94SAPS  C314 9327   5.626   5.831   7.636  0.6983  0.4092  0.3594
   94SAPS  H14X 9328   5.624   5.935   7.596 -1.3611 -0.7755 -3.1067
   94SAPS  H14Y 9329   5.686   5.772   7.564  0.1115  0.8149 -0.4848
   94SAPS  C315 9330   5.686   5.824   7.773  0.1214  0.6572  0.2554
   94SAPS  H15X 9331   5.781   5.881   7.767  2.0278 -1.6360  4.2279
   94SAPS  H15Y 9332   5.713   5.718   7.795 -1.9878  0.2730  1.2486
   94SAPS  C316 9333   5.601   5.879   7.891 -0.3130  0.1673 -0.6451
   94SAPS  H16X 9334   5.499   5.835   7.901  0.5336 -1.8877 -0.6029
   94SAPS  H16Y 9335   5.579   5.987   7.882  0.9681  0.4639 -0.4111
   94SAPS  C317 9336   5.664   5.869   8.033  0.1541 -0.2252  0.4609
   94SAPS  H17X 9337   5.595   5.916   8.107  0.2899  2.1425 -0.8209
   94SAPS  H17Y 9338   5.756   5.930   8.029 -0.3444  0.6030  1.3108
   94SAPS  C318 9339   5.698   5.727   8.073 -0.5231 -0.0778  0.1426
   94SAPS  H18X 9340   5.740   5.723   8.176  0.9781 -2.4167 -0.4880
   94SAPS  H18Y 9341   5.787   5.697   8.013  0.3141 -1.7635  2.1132
   94SAPS  H18Z 9342   5.611   5.658   8.069  1.5886 -2.8744 -0.7263
   95SAPS     N 9343   3.470   2.696   5.994  0.7506 -0.0393  0.2431
   95SAPS   HN1 9344   3.562   2.741   5.977  0.5582  0.3324  0.1827
   95SAPS   HN2 9345   3.405   2.735   5.923  0.0203  1.2287  1.5654
   95SAPS   HN3 9346   3.437   2.732   6.086  2.4655 -0.1848  0.9578
   95SAPS   C12 9347   3.480   2.544   5.983 -0.3758 -0.0540  0.6284
   95SAPS  H12A 9348   3.383   2.499   5.974  0.6251 -2.9697  2.9421
   95SAPS   C13 9349   3.578   2.503   5.868 -0.1246  0.1522  0.0653
   95SAPS  O13A 9350   3.645   2.586   5.799  0.1700 -0.2386  0.0670
   95SAPS  O13B 9351   3.568   2.388   5.826  0.8219  0.2176  0.0299
   95SAPS   C11 9352   3.533   2.486   6.117 -0.0725 -0.3309 -0.4138
   95SAPS  H11A 9353   3.602   2.560   6.163  0.1805 -1.3350  0.8792
   95SAPS  H11B 9354   3.595   2.394   6.105 -0.6805 -0.6731 -1.0037
   95SAPS     P 9355   3.314   2.366   6.200  0.2345  0.2447 -0.0022
   95SAPS   O13 9356   3.197   2.426   6.131 -0.8284  0.6467 -0.2281
   95SAPS   O14 9357   3.370   2.245   6.140  0.0188  0.1326  0.4203
   95SAPS   O12 9358   3.429   2.467   6.209 -0.5253  0.1004  0.2090
   95SAPS   O11 9359   3.263   2.344   6.343 -0.3671 -0.3050  0.1535
   95SAPS    C1 9360   3.153   2.256   6.371  0.2354 -0.6268  0.7554
   95SAPS    HA 9361   3.063   2.319   6.352  1.3838  0.2043 -2.5655
   95SAPS    HB 9362   3.145   2.166   6.307  0.4079 -0.9872  1.2415
   95SAPS    C2 9363   3.160   2.210   6.519  0.2396  0.5652  0.2448
   95SAPS    HS 9364   3.082   2.134   6.540 -0.3500  1.1420  0.1653
   95SAPS   O21 9365   3.157   2.321   6.610  0.2196 -0.2976  0.5501
   95SAPS   C21 9366   3.037   2.389   6.612  0.2242  1.0008 -0.3675
   95SAPS   O22 9367   2.936   2.354   6.558  0.1441 -0.2352 -0.2347
   95SAPS   C22 9368   3.056   2.519   6.700  0.1056 -0.0318 -0.1942
   95SAPS   H2R 9369   3.158   2.523   6.745  0.0438  1.0034 -0.1433
   95SAPS   H2S 9370   3.048   2.596   6.621 -1.5670  1.1752  1.0874
   95SAPS    C3 9371   3.291   2.135   6.561 -0.2324 -0.4029  0.7574
   95SAPS    HX 9372   3.377   2.203   6.542 -1.2073  0.4288 -0.9024
   95SAPS    HY 9373   3.293   2.049   6.492 -0.6625  0.5043 -0.4140
   95SAPS   O31 9374   3.285   2.084   6.698 -0.2585  0.2030 -0.0560
   95SAPS   C31 9375   3.337   2.160   6.794 -0.3048 -0.4331 -0.7009
   95SAPS   O32 9376   3.392   2.270   6.779 -0.1229  0.8483 -0.1719
   95SAPS   C32 9377   3.329   2.078   6.925 -0.6201 -0.1061  0.2788
   95SAPS   H2X 9378   3.350   1.975   6.889 -1.7859  0.2403 -1.5315
   95SAPS   H2Y 9379   3.227   2.074   6.969 -0.5561 -1.8116  0.3209
   95SAPS   C23 9380   2.946   2.536   6.810 -0.0726 -0.0094  0.0535
   95SAPS   H3R 9381   2.845   2.520   6.768  0.3626  0.3084 -1.1566
   95SAPS   H3S 9382   2.944   2.643   6.840 -2.8013 -0.4491  1.7320
   95SAPS   C24 9383   2.969   2.446   6.927  0.5663 -0.4368  0.1597
   95SAPS   H4R 9384   3.073   2.453   6.965  0.8853 -0.6812 -0.6394
   95SAPS   H4S 9385   2.944   2.342   6.898 -1.9177 -0.2179  1.2878
   95SAPS   C25 9386   2.878   2.479   7.045 -0.3341 -0.4794 -0.2343
   95SAPS   H5R 9387   2.784   2.515   7.001 -0.0632 -1.6471 -1.8609
   95SAPS   C26 9388   2.900   2.474   7.178 -1.0097 -0.2216  0.1580
   95SAPS   H6R 9389   2.824   2.517   7.245  0.1434 -0.0485  1.4013
   95SAPS   C27 9390   3.031   2.423   7.238 -0.3975  0.2605 -0.4648
   95SAPS   H7R 9391   3.068   2.497   7.312 -0.1207 -0.3119 -0.0213
   95SAPS   H7S 9392   3.119   2.421   7.171  1.5746 -0.4832  1.9767
   95SAPS   C28 9393   3.022   2.289   7.308 -0.3106  0.9364  0.0590
   95SAPS   H8R 9394   2.993   2.197   7.255  2.9672  0.2422 -0.6966
   95SAPS   C29 9395   3.049   2.263   7.440 -0.1799 -0.3625 -0.6380
   95SAPS   H9R 9396   3.044   2.159   7.476  0.0064  0.6361  2.5946
   95SAPS  C210 9397   3.093   2.362   7.547 -0.3748 -0.1140  0.2648
   95SAPS  H10R 9398   3.171   2.430   7.506  0.7338 -0.0881  2.2762
   95SAPS  H10S 9399   3.138   2.301   7.628  1.1568 -0.6553 -0.9427
   95SAPS  C211 9400   2.976   2.437   7.607 -0.2667 -0.1957 -0.0986
   95SAPS  H11R 9401   2.894   2.449   7.535 -0.4088 -0.3153  0.0418
   95SAPS  C212 9402   2.963   2.476   7.738 -0.4499  0.7200  0.0876
   95SAPS  H12R 9403   2.870   2.528   7.766 -0.9454  0.4050 -0.9414
   95SAPS  C213 9404   3.075   2.457   7.839  0.3009  0.0652  0.6745
   95SAPS  H13R 9405   3.071   2.537   7.916  1.5374 -1.3321  2.3044
   95SAPS  H13S 9406   3.175   2.473   7.793  0.0380 -0.4049 -0.0750
   95SAPS  C214 9407   3.066   2.329   7.916 -0.2381 -0.8796 -0.3284
   95SAPS  H14R 9408   2.962   2.295   7.916 -0.3557 -0.5796 -1.7655
   95SAPS  C215 9409   3.162   2.244   7.966  0.5979  0.3978 -0.2706
   95SAPS  H15R 9410   3.121   2.164   8.030  1.4685  0.6124  0.5786
   95SAPS  C216 9411   3.313   2.265   7.952  0.0009  0.3825 -0.1008
   95SAPS  H16R 9412   3.345   2.359   7.901  2.5203  0.1759  0.9397
   95SAPS  H16S 9413   3.352   2.175   7.899  1.5596  0.3413  1.0375
   95SAPS  C217 9414   3.382   2.264   8.089 -0.0017 -0.6326  0.0558
   95SAPS  H17R 9415   3.323   2.336   8.148  3.0401  1.1635  1.1392
   95SAPS  H17S 9416   3.477   2.318   8.070 -0.0938 -0.1184  1.0095
   95SAPS  C218 9417   3.424   2.127   8.148  0.5595 -0.0042  0.2288
   95SAPS  H18R 9418   3.342   2.054   8.130 -0.5204  1.0820  0.5955
   95SAPS  H18S 9419   3.424   2.136   8.259  0.0833 -0.0660  0.2376
   95SAPS  C219 9420   3.552   2.057   8.094 -0.4483  0.6693 -0.4238
   95SAPS  H19R 9421   3.608   2.146   8.060 -3.6746  3.8347  1.7960
   95SAPS  H19S 9422   3.532   2.007   7.997  1.8403  1.8018 -1.5336
   95SAPS  C220 9423   3.620   1.956   8.183 -0.0941  0.2655 -0.5009
   95SAPS  H20R 9424   3.631   2.003   8.283 -1.9903 -0.6051  0.1664
   95SAPS  H20S 9425   3.724   1.935   8.149  0.2647  0.8009  0.2266
   95SAPS  H20T 9426   3.552   1.869   8.195 -1.6378  1.3853 -0.9232
   95SAPS   C33 9427   3.443   2.113   7.023  0.1418 -0.1727  0.0192
   95SAPS   H3X 9428   3.409   2.202   7.080 -0.5625  0.8490 -1.9218
   95SAPS   H3Y 9429   3.544   2.135   6.985  1.3532 -1.1789  2.4204
   95SAPS   C34 9430   3.459   2.004   7.135 -0.2003  0.4026  0.4193
   95SAPS   H4X 9431   3.569   2.008   7.155 -0.0206  0.8151 -0.5720
   95SAPS   H4Y 9432   3.448   1.902   7.093 -0.8910  0.1874  1.0993
   95SAPS   C35 9433   3.373   2.028   7.260  0.6430  0.0016  0.2317
   95SAPS   H5X 9434   3.266   2.044   7.234  0.3083  0.3867  1.7620
   95SAPS   H5Y 9435   3.397   2.127   7.305 -2.4664  2.6700 -3.3065
   95SAPS   C36 9436   3.372   1.926   7.369  0.9423 -0.7239  0.4566
   95SAPS   H6X 9437   3.473   1.880   7.365  1.6440  0.7366  0.9684
   95SAPS   H6Y 9438   3.294   1.849   7.351 -0.2250  0.5164  0.0741
   95SAPS   C37 9439   3.352   1.986   7.515 -0.0090  0.3029 -0.1525
   95SAPS   H7X 9440   3.270   2.059   7.500  0.4191  0.5772 -1.2310
   95SAPS   H7Y 9441   3.446   2.038   7.543 -0.0281  0.3648 -0.2067
   95SAPS   C38 9442   3.327   1.867   7.605 -0.7925 -0.3503  0.2350
   95SAPS   H8X 9443   3.419   1.807   7.622  0.0794  1.3170  1.7325
   95SAPS   H8Y 9444   3.252   1.798   7.561 -0.1285  0.0296 -1.5999
   95SAPS   C39 9445   3.270   1.903   7.740  0.0366 -0.2324 -0.2647
   95SAPS   H9X 9446   3.188   1.978   7.736  0.2276 -0.0235 -0.3000
   95SAPS   H9Y 9447   3.353   1.956   7.791 -1.4039  1.6263  0.2568
   95SAPS  C310 9448   3.235   1.781   7.824  0.1421 -0.0470 -0.7204
   95SAPS  H10X 9449   3.327   1.720   7.819  0.5182  0.0055  2.8362
   95SAPS  H10Y 9450   3.143   1.740   7.778 -0.6789  1.4674 -0.5246
   95SAPS  C311 9451   3.206   1.825   7.970  0.4755  0.4295 -0.5445
   95SAPS  H11X 9452   3.289   1.888   8.009  1.5115 -1.2660  0.1001
   95SAPS  H11Y 9453   3.196   1.724   8.015  2.4267  0.7171  0.6432
   95SAPS  C312 9454   3.069   1.897   7.987  0.5732 -0.7032 -0.2294
   95SAPS  H12X 9455   2.994   1.837   7.932  0.6249 -3.2807  2.2794
   95SAPS  H12Y 9456   3.081   1.997   7.941 -0.7202 -0.2502  0.3580
   95SAPS  C313 9457   3.027   1.905   8.139 -0.2938 -0.0442  0.4632
   95SAPS  H13X 9458   3.010   2.010   8.171  0.7189 -0.4916  2.6207
   95SAPS  H13Y 9459   3.120   1.864   8.184 -0.0358  0.7365  0.6602
   95SAPS  C314 9460   2.901   1.808   8.182  0.5898  0.0548  0.4499
   95SAPS  H14X 9461   2.875   1.748   8.093  1.6429  0.7232 -0.3336
   95SAPS  H14Y 9462   2.814   1.869   8.215 -0.5217 -0.0755 -2.0686
   95SAPS  C315 9463   2.930   1.708   8.297 -0.5892 -0.0348  0.3835
   95SAPS  H15X 9464   3.017   1.644   8.272 -0.6222  0.1277 -0.1617
   95SAPS  H15Y 9465   2.842   1.641   8.296  0.6601 -1.7554  1.1556
   95SAPS  C316 9466   2.960   1.753   8.440 -0.5065  0.5966 -1.2872
   95SAPS  H16X 9467   3.056   1.810   8.441  0.4512 -0.8073  2.0460
   95SAPS  H16Y 9468   2.992   1.666   8.501 -1.2554  1.9964  1.2618
   95SAPS  C317 9469   2.856   1.840   8.511  0.0988 -0.7735 -0.4594
   95SAPS  H17X 9470   2.766   1.775   8.513 -0.8076  0.3800 -1.4681
   95SAPS  H17Y 9471   2.834   1.931   8.451  0.1855 -0.3399  0.1565
   95SAPS  C318 9472   2.889   1.886   8.658  0.0187 -0.9435  0.7716
   95SAPS  H18X 9473   2.796   1.935   8.692  0.5362 -0.4139  1.4705
   95SAPS  H18Y 9474   2.963   1.968   8.641 -2.6441  1.3815 -0.5418
   95SAPS  H18Z 9475   2.928   1.806   8.724 -0.5940  0.1788  2.5548
   96SAPS     N 9476   5.573   4.413   6.381 -0.6417 -0.2531 -0.2659
   96SAPS   HN1 9477   5.553   4.341   6.454 -0.0166 -1.9717 -1.7031
   96SAPS   HN2 9478   5.676   4.414   6.365 -0.3430 -1.6031  1.3312
   96SAPS   HN3 9479   5.552   4.510   6.410  0.6071  0.1322 -0.5766
   96SAPS   C12 9480   5.496   4.376   6.261 -0.7224 -0.0204  0.2441
   96SAPS  H12A 9481   5.508   4.459   6.193  0.2444  0.6259  1.1803
   96SAPS   C13 9482   5.556   4.248   6.187  0.0828 -0.7251 -0.2947
   96SAPS  O13A 9483   5.646   4.185   6.234 -0.2274  0.0200 -0.5258
   96SAPS  O13B 9484   5.505   4.224   6.071 -0.0745  0.6303  0.0156
   96SAPS   C11 9485   5.361   4.345   6.310  0.8336 -0.1863  0.8073
   96SAPS  H11A 9486   5.356   4.297   6.410  2.0691 -1.9946  0.0482
   96SAPS  H11B 9487   5.298   4.287   6.239 -0.7126  2.3924 -0.0888
   96SAPS     P 9488   5.143   4.483   6.357 -0.0200  0.3685 -0.1666
   96SAPS   O13 9489   5.088   4.620   6.343 -0.2510  0.1368  0.4489
   96SAPS   O14 9490   5.068   4.376   6.281 -0.0522 -0.2528  0.0608
   96SAPS   O12 9491   5.302   4.475   6.314  0.1315  0.8951  0.3386
   96SAPS   O11 9492   5.141   4.447   6.509  0.2029  0.5862  0.1208
   96SAPS    C1 9493   5.186   4.537   6.612  0.0221  0.0795 -0.0726
   96SAPS    HA 9494   5.263   4.604   6.570 -0.6718 -0.0815 -1.6815
   96SAPS    HB 9495   5.099   4.590   6.656  0.5280  0.1377  0.8886
   96SAPS    C2 9496   5.253   4.459   6.730 -0.3482  0.1349 -0.2462
   96SAPS    HS 9497   5.316   4.386   6.674 -0.4083  1.2128 -1.7933
   96SAPS   O21 9498   5.158   4.380   6.792  0.7073  0.2668 -0.2274
   96SAPS   C21 9499   5.197   4.278   6.861  0.5466  0.2374 -0.7194
   96SAPS   O22 9500   5.309   4.246   6.887 -0.0164 -0.3460 -0.0057
   96SAPS   C22 9501   5.067   4.211   6.905  0.9390 -0.0640 -0.2229
   96SAPS   H2R 9502   5.009   4.158   6.826 -2.5138 -0.3581  2.2435
   96SAPS   H2S 9503   5.090   4.139   6.987  1.6683  0.2751 -0.1244
   96SAPS    C3 9504   5.321   4.557   6.835  0.2526  0.2662  0.1897
   96SAPS    HX 9505   5.389   4.609   6.765 -0.2836 -0.1915 -0.6850
   96SAPS    HY 9506   5.380   4.496   6.907 -2.1852 -0.4987  1.6605
   96SAPS   O31 9507   5.223   4.645   6.899 -0.1157  0.5544 -0.0655
   96SAPS   C31 9508   5.163   4.605   7.015  1.0105 -0.3082  0.4616
   96SAPS   O32 9509   5.196   4.511   7.080 -0.1480  0.5187  0.5780
   96SAPS   C32 9510   5.038   4.692   7.035 -0.7318  0.6670  0.1995
   96SAPS   H2X 9511   4.989   4.684   6.936  0.4764 -0.0640 -0.3627
   96SAPS   H2Y 9512   5.086   4.792   7.039  2.8415 -0.8693  0.3767
   96SAPS   C23 9513   4.965   4.301   6.966  0.3543 -0.1074 -0.2256
   96SAPS   H3R 9514   4.976   4.408   6.938  3.8981  0.2380  1.8664
   96SAPS   H3S 9515   4.983   4.304   7.075 -3.1403 -0.1119  0.4869
   96SAPS   C24 9516   4.825   4.244   6.953  0.3822  0.3755 -0.2567
   96SAPS   H4R 9517   4.829   4.139   6.990  1.5882  0.0412 -1.2588
   96SAPS   H4S 9518   4.800   4.255   6.846  1.2725  0.5213 -0.4597
   96SAPS   C25 9519   4.725   4.322   7.042 -0.5776 -0.2794  0.2725
   96SAPS   H5R 9520   4.700   4.425   7.013 -0.5819 -0.4443 -0.3189
   96SAPS   C26 9521   4.670   4.281   7.160  0.3649 -0.6585 -0.4281
   96SAPS   H6R 9522   4.593   4.343   7.210  2.8834  1.3066  1.2665
   96SAPS   C27 9523   4.702   4.148   7.231  0.0293 -0.2838 -0.1027
   96SAPS   H7R 9524   4.771   4.181   7.311 -2.3555  0.7789  1.6556
   96SAPS   H7S 9525   4.754   4.075   7.166  0.3162  0.1328 -0.3451
   96SAPS   C28 9526   4.582   4.092   7.305 -0.1330  0.4830 -0.1975
   96SAPS   H8R 9527   4.501   4.050   7.245 -0.9010 -0.6846  1.5669
   96SAPS   C29 9528   4.568   4.085   7.440 -0.0211  0.3819  1.0527
   96SAPS   H9R 9529   4.484   4.025   7.479 -0.0204 -0.7885 -0.6419
   96SAPS  C210 9530   4.669   4.136   7.536 -0.6992  0.3692 -0.2288
   96SAPS  H10R 9531   4.766   4.097   7.499 -1.0123 -0.3177 -0.3442
   96SAPS  H10S 9532   4.650   4.086   7.634  0.2286 -0.2237 -0.3383
   96SAPS  C211 9533   4.672   4.290   7.554  0.4558  0.8296  0.0071
   96SAPS  H11R 9534   4.736   4.347   7.485 -0.5091  0.0623 -1.5819
   96SAPS  C212 9535   4.607   4.354   7.659 -0.6235  0.5372 -0.5227
   96SAPS  H12R 9536   4.620   4.463   7.666 -0.1467  0.5177 -1.0502
   96SAPS  C213 9537   4.527   4.298   7.777  0.1504 -0.7999 -0.5803
   96SAPS  H13R 9538   4.501   4.194   7.751 -1.3736 -1.4813  3.0359
   96SAPS  H13S 9539   4.429   4.350   7.783  0.6872  0.0567  1.8960
   96SAPS  C214 9540   4.597   4.309   7.910 -0.6996 -0.4515 -0.5744
   96SAPS  H14R 9541   4.707   4.322   7.912 -0.4174 -1.7514  4.1114
   96SAPS  C215 9542   4.536   4.322   8.033 -1.1172  0.0322  0.5579
   96SAPS  H15R 9543   4.595   4.342   8.123  1.4386 -0.0126 -0.9983
   96SAPS  C216 9544   4.389   4.323   8.060  0.2527 -0.2235  0.2967
   96SAPS  H16R 9545   4.349   4.233   8.113 -1.9773  1.5262  1.7535
   96SAPS  H16S 9546   4.341   4.323   7.960  0.9812 -1.9242 -0.0895
   96SAPS  C217 9547   4.346   4.441   8.136 -0.9405 -0.2215  0.2162
   96SAPS  H17R 9548   4.237   4.429   8.155 -0.6326 -1.1005  1.5543
   96SAPS  H17S 9549   4.359   4.533   8.076  0.7402 -1.2392 -1.0874
   96SAPS  C218 9550   4.405   4.488   8.275  0.1288  0.8644  0.3087
   96SAPS  H18R 9551   4.361   4.584   8.308 -2.4105 -0.7646  2.0053
   96SAPS  H18S 9552   4.516   4.494   8.270  0.3894 -0.9096  2.2881
   96SAPS  C219 9553   4.407   4.382   8.389 -0.1901 -0.1096  0.3618
   96SAPS  H19R 9554   4.494   4.400   8.456  0.5599  0.5098 -0.7404
   96SAPS  H19S 9555   4.425   4.287   8.335 -4.0251 -0.7148 -0.1372
   96SAPS  C220 9556   4.279   4.382   8.469 -0.3316 -0.5400 -0.2265
   96SAPS  H20R 9557   4.201   4.378   8.389 -1.0848  1.6533  0.3087
   96SAPS  H20S 9558   4.265   4.471   8.534 -2.5205 -0.7441 -0.3254
   96SAPS  H20T 9559   4.277   4.293   8.534  0.2354  0.2597  0.9272
   96SAPS   C33 9560   4.940   4.650   7.148 -0.0205 -0.5549  0.0983
   96SAPS   H3X 9561   4.919   4.541   7.142 -0.3522 -0.4530 -0.9590
   96SAPS   H3Y 9562   4.845   4.708   7.140 -0.5455 -0.8484  3.1471
   96SAPS   C34 9563   5.001   4.684   7.283 -0.4029  0.3104  0.4490
   96SAPS   H4X 9564   5.031   4.791   7.287 -0.7816  0.3911  1.5823
   96SAPS   H4Y 9565   5.095   4.624   7.293 -0.8048 -0.8685 -2.0945
   96SAPS   C35 9566   4.915   4.646   7.398  0.4005  0.4281  0.4026
   96SAPS   H5X 9567   4.878   4.541   7.396 -1.7621  1.1087  1.4314
   96SAPS   H5Y 9568   4.819   4.701   7.389  0.9752  1.2935 -0.6915
   96SAPS   C36 9569   4.969   4.689   7.536 -0.1850 -1.1729  0.1270
   96SAPS   H6X 9570   4.992   4.796   7.520 -0.1963 -1.2262 -0.2492
   96SAPS   H6Y 9571   5.057   4.630   7.569  0.6204  0.4756  1.0370
   96SAPS   C37 9572   4.858   4.688   7.653  0.3467 -0.6883 -0.3622
   96SAPS   H7X 9573   4.819   4.587   7.679  1.8787 -1.3381 -0.4652
   96SAPS   H7Y 9574   4.770   4.747   7.622  0.0657 -1.5673 -1.2673
   96SAPS   C38 9575   4.922   4.727   7.784 -0.1067  0.9179 -0.3471
   96SAPS   H8X 9576   5.031   4.707   7.777  0.2383  2.4288  0.3122
   96SAPS   H8Y 9577   4.882   4.674   7.873 -2.2647  1.8780 -0.6910
   96SAPS   C39 9578   4.913   4.877   7.822  0.0511  0.0350 -0.5616
   96SAPS   H9X 9579   4.805   4.900   7.833  0.2107  1.2231 -1.3469
   96SAPS   H9Y 9580   4.959   4.946   7.749 -0.1804  0.1448 -0.6060
   96SAPS  C310 9581   4.986   4.905   7.952  0.8328 -0.5011  0.3752
   96SAPS  H10X 9582   5.097   4.897   7.949  1.2430  3.5451 -0.0654
   96SAPS  H10Y 9583   4.946   4.827   8.020 -0.3783  0.4963  0.8264
   96SAPS  C311 9584   4.955   5.043   8.011 -0.7834  0.5397 -0.5666
   96SAPS  H11X 9585   4.849   5.071   8.031 -0.5639  0.5838  0.6223
   96SAPS  H11Y 9586   4.985   5.115   7.932 -2.1873  0.0307 -1.6031
   96SAPS  C312 9587   5.037   5.076   8.138  0.1025 -0.1909 -0.2582
   96SAPS  H12X 9588   5.140   5.090   8.099  0.8255 -2.3854  0.6588
   96SAPS  H12Y 9589   5.037   4.987   8.205 -0.1333 -0.2059 -0.2801
   96SAPS  C313 9590   4.967   5.199   8.208  0.4682 -0.1168 -0.6164
   96SAPS  H13X 9591   4.924   5.166   8.305 -0.2288  2.0721 -0.1406
   96SAPS  H13Y 9592   4.882   5.241   8.151 -1.9777 -2.0031  1.4014
   96SAPS  C314 9593   5.066   5.307   8.244  0.4823  0.5152 -0.1166
   96SAPS  H14X 9594   5.107   5.348   8.149 -3.2228  1.1065 -1.6357
   96SAPS  H14Y 9595   5.150   5.260   8.299  0.5438  0.8853  0.1124
   96SAPS  C315 9596   4.997   5.420   8.320 -0.1008  0.0743  0.2590
   96SAPS  H15X 9597   4.942   5.377   8.407  2.2754 -0.9303  1.3746
   96SAPS  H15Y 9598   4.924   5.457   8.246 -1.6435 -2.3195  0.4864
   96SAPS  C316 9599   5.085   5.533   8.376 -0.1892  0.0282  0.2618
   96SAPS  H16X 9600   5.160   5.546   8.295  0.7423 -1.2194  0.9038
   96SAPS  H16Y 9601   5.136   5.510   8.471  2.7323  1.8808 -0.7142
   96SAPS  C317 9602   5.010   5.665   8.386 -0.0071  0.0231  0.3292
   96SAPS  H17X 9603   4.956   5.688   8.292 -1.2951  0.0536  1.0493
   96SAPS  H17Y 9604   5.091   5.741   8.398 -1.2779  1.0110  3.6926
   96SAPS  C318 9605   4.915   5.688   8.508  0.3408 -0.3846  0.5688
   96SAPS  H18X 9606   4.818   5.639   8.488  1.0836 -0.9522 -1.9569
   96SAPS  H18Y 9607   4.896   5.796   8.527  1.4582 -0.0336 -0.2096
   96SAPS  H18Z 9608   4.948   5.643   8.604 -0.1113  1.4853  1.6542
   97SAPS     N 9609   4.894   2.984   6.293 -0.0487  0.5503  0.6440
   97SAPS   HN1 9610   4.958   2.918   6.341 -1.1521 -0.3571  0.9227
   97SAPS   HN2 9611   4.813   2.925   6.264 -0.9438  1.3878  1.3678
   97SAPS   HN3 9612   4.939   3.018   6.206 -0.9207 -2.1378 -0.9461
   97SAPS   C12 9613   4.866   3.105   6.372 -0.0751  0.3989 -0.5551
   97SAPS  H12A 9614   4.961   3.152   6.393 -2.0179  3.3130  2.6914
   97SAPS   C13 9615   4.794   3.221   6.286 -0.0122  0.5786  0.2030
   97SAPS  O13A 9616   4.766   3.196   6.160  0.0231  0.0807 -0.1659
   97SAPS  O13B 9617   4.796   3.336   6.333 -0.7830 -0.0339 -0.0377
   97SAPS   C11 9618   4.786   3.077   6.503  0.3012  0.1829 -0.7617
   97SAPS  H11A 9619   4.788   3.170   6.563  1.7286 -1.4111  1.7942
   97SAPS  H11B 9620   4.830   3.000   6.570 -1.9470 -0.2907  0.2842
   97SAPS     P 9621   4.517   3.073   6.553  0.1740 -0.0140  0.1153
   97SAPS   O13 9622   4.463   3.188   6.473 -0.0979  0.1188 -0.3689
   97SAPS   O14 9623   4.433   2.956   6.575 -0.3110  0.2476  0.3373
   97SAPS   O12 9624   4.657   3.022   6.490  0.4940  0.6689 -0.0117
   97SAPS   O11 9625   4.551   3.127   6.698 -0.6781 -0.0637  0.9815
   97SAPS    C1 9626   4.598   3.035   6.801 -0.6767  0.9163 -0.0470
   97SAPS    HA 9627   4.525   2.951   6.801 -2.9756  2.7967 -1.1616
   97SAPS    HB 9628   4.702   3.000   6.787 -0.4087  1.5252  0.3587
   97SAPS    C2 9629   4.589   3.093   6.939 -1.0109 -0.3138  0.0794
   97SAPS    HS 9630   4.670   3.167   6.957 -1.7036  0.4178  0.2318
   97SAPS   O21 9631   4.587   2.991   7.036 -0.0270 -0.2153  0.0925
   97SAPS   C21 9632   4.712   2.946   7.064 -0.9946  0.2735 -0.1705
   97SAPS   O22 9633   4.814   2.990   7.007  0.0519 -0.1583 -0.6989
   97SAPS   C22 9634   4.705   2.844   7.184 -1.1254 -0.0662 -0.2409
   97SAPS   H2R 9635   4.627   2.882   7.254 -0.3481  1.1182  0.0157
   97SAPS   H2S 9636   4.672   2.745   7.146  1.4666 -1.5778  1.2366
   97SAPS    C3 9637   4.464   3.187   6.952 -0.4771 -0.1473  0.1554
   97SAPS    HX 9638   4.378   3.118   6.938  0.2367 -0.9421 -0.3962
   97SAPS    HY 9639   4.453   3.256   6.866 -0.3861 -0.8568 -0.4352
   97SAPS   O31 9640   4.463   3.246   7.088 -0.3965  0.7338  0.7267
   97SAPS   C31 9641   4.506   3.367   7.085  0.5001 -0.3868 -0.3585
   97SAPS   O32 9642   4.567   3.424   6.999 -0.5982  0.0784  0.1998
   97SAPS   C32 9643   4.466   3.434   7.225 -0.5679  0.2730 -0.4374
   97SAPS   H2X 9644   4.392   3.371   7.280  0.6905  0.9489  2.1463
   97SAPS   H2Y 9645   4.430   3.538   7.210  0.0314  0.3386 -1.4790
   97SAPS   C23 9646   4.842   2.812   7.244 -0.1362 -1.2061 -0.3961
   97SAPS   H3R 9647   4.892   2.900   7.290 -0.9090 -0.0891 -1.6077
   97SAPS   H3S 9648   4.917   2.773   7.171  1.4497 -1.4434  1.2849
   97SAPS   C24 9649   4.831   2.708   7.354  0.1184 -0.5168  0.0504
   97SAPS   H4R 9650   4.936   2.684   7.382  0.5168 -0.2373 -1.1240
   97SAPS   H4S 9651   4.782   2.613   7.324 -0.4222  0.0592 -0.9472
   97SAPS   C25 9652   4.753   2.754   7.480 -0.6118 -0.0637  0.8372
   97SAPS   H5R 9653   4.669   2.822   7.459  1.0208  1.5328 -0.8558
   97SAPS   C26 9654   4.776   2.704   7.599 -0.1805 -0.0460  0.9432
   97SAPS   H6R 9655   4.734   2.758   7.686  0.9482  1.4144  0.6359
   97SAPS   C27 9656   4.874   2.609   7.645  0.0477  0.4490  0.1104
   97SAPS   H7R 9657   4.915   2.552   7.559 -1.8744 -1.7653  0.5769
   97SAPS   H7S 9658   4.818   2.521   7.684  2.4842 -0.4708  1.7925
   97SAPS   C28 9659   4.983   2.647   7.736 -0.1763 -0.3055  0.5439
   97SAPS   H8R 9660   5.076   2.681   7.687 -1.1302  2.6821  0.5801
   97SAPS   C29 9661   4.982   2.660   7.870 -0.8237  0.6101  0.7163
   97SAPS   H9R 9662   5.077   2.681   7.920  0.2128 -2.0538 -0.0064
   97SAPS  C210 9663   4.861   2.637   7.961  0.2211  0.0653  0.4034
   97SAPS  H10R 9664   4.777   2.664   7.893  0.3410  0.8136  0.5497
   97SAPS  H10S 9665   4.864   2.710   8.045 -2.2727  3.3173 -2.0816
   97SAPS  C211 9666   4.838   2.492   7.994  0.5286  0.1548  0.1548
   97SAPS  H11R 9667   4.856   2.422   7.911 -1.3750 -0.6748  0.4033
   97SAPS  C212 9668   4.797   2.431   8.107 -0.1043  0.6552 -0.7533
   97SAPS  H12R 9669   4.794   2.322   8.117 -0.3164  0.7529  0.4141
   97SAPS  C213 9670   4.761   2.492   8.246  0.3031 -0.6563  0.7999
   97SAPS  H13R 9671   4.722   2.592   8.220 -0.4524 -1.2916 -0.6811
   97SAPS  H13S 9672   4.857   2.503   8.300  0.6112 -0.2353  0.1769
   97SAPS  C214 9673   4.662   2.424   8.332  0.4128 -0.1201  0.2456
   97SAPS  H14R 9674   4.621   2.330   8.290  0.7413 -0.4076  0.5662
   97SAPS  C215 9675   4.629   2.469   8.455  0.3456 -0.8191  0.8160
   97SAPS  H15R 9676   4.555   2.408   8.509  1.1750 -0.8319  1.9683
   97SAPS  C216 9677   4.670   2.597   8.522  0.1446  0.5281  0.0464
   97SAPS  H16R 9678   4.574   2.636   8.563  0.2161  0.3925  0.3446
   97SAPS  H16S 9679   4.691   2.670   8.441 -0.2022  2.2662  1.4569
   97SAPS  C217 9680   4.782   2.573   8.632  0.7401  0.3687  0.7610
   97SAPS  H17R 9681   4.882   2.546   8.591 -0.1006 -3.0858  0.6728
   97SAPS  H17S 9682   4.761   2.475   8.680  1.4051 -0.1903 -0.0560
   97SAPS  C218 9683   4.780   2.670   8.744  0.7423  0.4386 -0.3492
   97SAPS  H18R 9684   4.676   2.669   8.781  0.3129 -2.6535 -1.4078
   97SAPS  H18S 9685   4.798   2.773   8.704  1.8038  0.7572  0.8738
   97SAPS  C219 9686   4.892   2.649   8.839  0.0487 -0.5531 -0.2304
   97SAPS  H19R 9687   4.948   2.557   8.811 -0.2359 -1.1056  0.9575
   97SAPS  H19S 9688   4.868   2.644   8.948  1.0898 -0.3065  0.0256
   97SAPS  C220 9689   5.000   2.760   8.825 -0.0818  0.0413  0.3557
   97SAPS  H20R 9690   5.076   2.744   8.746 -0.4984  0.0943 -0.0610
   97SAPS  H20S 9691   5.068   2.765   8.913  0.7104  0.4772 -0.2658
   97SAPS  H20T 9692   4.955   2.859   8.804 -2.4610 -0.9779  0.3150
   97SAPS   C33 9693   4.578   3.434   7.330 -0.4360 -0.7646 -0.2885
   97SAPS   H3X 9694   4.533   3.483   7.418 -0.3437 -1.1385 -0.0295
   97SAPS   H3Y 9695   4.669   3.492   7.304  1.0633 -3.5998 -1.8697
   97SAPS   C34 9696   4.631   3.295   7.370  0.8033  0.5439 -0.4582
   97SAPS   H4X 9697   4.710   3.262   7.299 -0.5607  0.2240 -1.8813
   97SAPS   H4Y 9698   4.547   3.222   7.376  0.9124  0.1239 -3.0619
   97SAPS   C35 9699   4.689   3.300   7.513 -0.7906 -0.1885  0.0543
   97SAPS   H5X 9700   4.739   3.202   7.533  1.3400  0.8930  0.3050
   97SAPS   H5Y 9701   4.607   3.303   7.588 -2.6747  2.1839 -1.9901
   97SAPS   C36 9702   4.804   3.401   7.528  0.1030 -0.2470  0.3955
   97SAPS   H6X 9703   4.765   3.502   7.502  0.2598 -0.2195  0.2725
   97SAPS   H6Y 9704   4.890   3.377   7.463  1.5481  2.2293  1.2653
   97SAPS   C37 9705   4.851   3.420   7.668 -0.1443  0.0602 -0.7612
   97SAPS   H7X 9706   4.947   3.475   7.667 -0.3607  0.4430 -0.4686
   97SAPS   H7Y 9707   4.860   3.322   7.720  2.3942  1.1804  1.1183
   97SAPS   C38 9708   4.758   3.502   7.760 -0.2360 -1.0788 -0.0227
   97SAPS   H8X 9709   4.664   3.444   7.761 -1.5029  0.8557  0.9619
   97SAPS   H8Y 9710   4.734   3.600   7.712 -0.1688 -0.2764  1.5018
   97SAPS   C39 9711   4.823   3.520   7.900  0.3856  0.3011 -0.6207
   97SAPS   H9X 9712   4.912   3.585   7.881 -0.3682  1.6037  0.1137
   97SAPS   H9Y 9713   4.863   3.428   7.946 -0.8071  0.3251  0.5239
   97SAPS  C310 9714   4.735   3.575   8.010  0.0682 -0.2858  0.2163
   97SAPS  H10X 9715   4.645   3.512   8.027 -1.3240  1.2739 -0.9803
   97SAPS  H10Y 9716   4.690   3.672   7.980  1.2822  0.0925 -0.4213
   97SAPS  C311 9717   4.814   3.611   8.137  0.3656  0.0881 -0.0876
   97SAPS  H11X 9718   4.739   3.664   8.200 -1.1747 -1.7572 -0.2631
   97SAPS  H11Y 9719   4.902   3.675   8.115  0.8082 -0.4498  0.1127
   97SAPS  C312 9720   4.868   3.487   8.207 -0.0108  0.0623  0.2890
   97SAPS  H12X 9721   4.953   3.442   8.153 -1.0686  0.3831 -1.7254
   97SAPS  H12Y 9722   4.794   3.404   8.204  0.5817 -0.4875  0.5828
   97SAPS  C313 9723   4.917   3.513   8.348 -0.3361  0.3675  0.0376
   97SAPS  H13X 9724   4.840   3.566   8.407  1.2138  2.4273  0.3075
   97SAPS  H13Y 9725   5.013   3.568   8.343 -0.0413 -0.2281 -2.1767
   97SAPS  C314 9726   4.939   3.379   8.411  0.1353 -0.2446  0.2981
   97SAPS  H14X 9727   5.012   3.309   8.366 -0.8114 -1.7657  1.0549
   97SAPS  H14Y 9728   4.845   3.321   8.404  0.4988 -1.0248  1.5710
   97SAPS  C315 9729   4.973   3.387   8.559 -0.2728  0.1151 -0.4708
   97SAPS  H15X 9730   4.892   3.445   8.610 -1.2384  0.5638 -2.4277
   97SAPS  H15Y 9731   5.069   3.443   8.569 -1.3692  1.9457  0.5655
   97SAPS  C316 9732   4.970   3.251   8.627 -1.0427  0.2514 -0.2915
   97SAPS  H16X 9733   5.060   3.197   8.589  0.1015  1.6337  0.3704
   97SAPS  H16Y 9734   4.880   3.192   8.597  0.8238 -2.2233 -1.4350
   97SAPS  C317 9735   4.970   3.265   8.784  0.1882  0.2465 -0.4483
   97SAPS  H17X 9736   4.872   3.309   8.812 -0.4073 -1.5691  0.4755
   97SAPS  H17Y 9737   5.054   3.332   8.812 -1.4214  3.1056 -2.0716
   97SAPS  C318 9738   4.983   3.137   8.870 -0.2420  0.4230 -0.5061
   97SAPS  H18X 9739   5.076   3.084   8.844  1.8933  1.8621  3.3200
   97SAPS  H18Y 9740   4.895   3.074   8.846 -0.0886  0.3097 -0.7658
   97SAPS  H18Z 9741   4.970   3.148   8.980  0.8204  0.2755 -0.3595
   98SAPS     N 9742   1.638   3.242   6.357  0.1632 -0.1113 -0.2806
   98SAPS   HN1 9743   1.535   3.254   6.355  0.0798 -0.8107 -1.9357
   98SAPS   HN2 9744   1.655   3.159   6.418  1.5430  0.5813  0.3384
   98SAPS   HN3 9745   1.679   3.322   6.409  1.3390 -1.2933  0.7318
   98SAPS   C12 9746   1.697   3.224   6.226  0.3646 -0.1885 -0.2031
   98SAPS  H12A 9747   1.630   3.160   6.171  0.6386 -0.7172  0.0679
   98SAPS   C13 9748   1.705   3.352   6.146  0.1724 -0.2016 -0.1832
   98SAPS  O13A 9749   1.664   3.466   6.184  0.5750 -0.6966 -0.0497
   98SAPS  O13B 9750   1.738   3.341   6.026 -0.1184  0.3762 -0.0774
   98SAPS   C11 9751   1.843   3.169   6.239 -0.1279 -0.1859  0.1009
   98SAPS  H11A 9752   1.893   3.239   6.310 -0.5286  0.3669 -0.1583
   98SAPS  H11B 9753   1.909   3.179   6.150  1.2226 -1.4316  0.9119
   98SAPS     P 9754   1.962   2.942   6.268  0.3613  0.9366 -0.2535
   98SAPS   O13 9755   1.908   2.806   6.257  0.2255  1.1497  0.3007
   98SAPS   O14 9756   2.053   2.992   6.156 -0.0568  0.5486  0.4756
   98SAPS   O12 9757   1.831   3.034   6.288 -0.2621  0.1013 -0.6585
   98SAPS   O11 9758   2.032   2.955   6.411  0.4468 -0.0202  0.1850
   98SAPS    C1 9759   1.955   2.983   6.524  0.0939  0.1841 -0.5408
   98SAPS    HA 9760   1.937   3.090   6.547  1.8294  0.2639  0.5721
   98SAPS    HB 9761   1.860   2.924   6.521 -0.5252  1.0212  1.2204
   98SAPS    C2 9762   2.014   2.926   6.657 -0.3815 -0.0338 -0.3303
   98SAPS    HS 9763   2.103   2.990   6.674 -1.3440  1.9274 -2.2622
   98SAPS   O21 9764   2.068   2.784   6.642  0.2601  0.0337 -0.1303
   98SAPS   C21 9765   1.979   2.687   6.600  0.1934 -0.1386  0.0905
   98SAPS   O22 9766   1.860   2.700   6.578 -0.3279 -0.5042 -0.1558
   98SAPS   C22 9767   2.048   2.555   6.617  0.4277  0.6148  0.4101
   98SAPS   H2R 9768   1.973   2.486   6.573 -2.4412  5.6863 -3.7849
   98SAPS   H2S 9769   2.145   2.551   6.562  2.2368 -0.7636  3.4317
   98SAPS    C3 9770   1.918   2.946   6.779 -0.5237 -0.3311  0.8377
   98SAPS    HX 9771   1.840   2.870   6.756 -0.6252  0.4913 -1.9553
   98SAPS    HY 9772   1.880   3.051   6.778 -1.3029 -0.6031  0.1687
   98SAPS   O31 9773   1.986   2.920   6.908  0.1275  0.0130 -0.0646
   98SAPS   C31 9774   1.949   2.824   6.988 -0.4514 -0.2719 -0.4951
   98SAPS   O32 9775   1.850   2.755   6.977 -0.1293 -0.5903  0.3830
   98SAPS   C32 9776   2.048   2.829   7.108  0.4529  0.6455 -0.1958
   98SAPS   H2X 9777   2.034   2.931   7.150 -1.3741  0.5587 -0.5128
   98SAPS   H2Y 9778   2.154   2.822   7.074  0.5786  0.3507  0.2455
   98SAPS   C23 9779   2.068   2.512   6.763 -0.8359  0.1425 -0.3186
   98SAPS   H3R 9780   2.088   2.405   6.740 -1.5978  0.7717 -4.7423
   98SAPS   H3S 9781   1.974   2.529   6.821 -2.0323 -0.2189 -2.0717
   98SAPS   C24 9782   2.204   2.553   6.840 -0.2351  0.4737  0.1617
   98SAPS   H4R 9783   2.210   2.662   6.859  3.1463  0.3783  0.1833
   98SAPS   H4S 9784   2.282   2.545   6.761  0.0457  0.4748  0.4370
   98SAPS   C25 9785   2.232   2.469   6.960 -0.3484 -0.7315  1.0654
   98SAPS   H5R 9786   2.157   2.480   7.040 -1.8741  2.3271 -0.5898
   98SAPS   C26 9787   2.352   2.409   6.979 -0.2694 -0.1037  0.3245
   98SAPS   H6R 9788   2.355   2.345   7.069 -0.9444 -0.4676  0.0924
   98SAPS   C27 9789   2.470   2.407   6.881 -0.0224  0.3284 -0.3195
   98SAPS   H7R 9790   2.563   2.438   6.934 -0.5580 -1.4762  1.8193
   98SAPS   H7S 9791   2.439   2.479   6.802 -2.3264 -1.3488 -1.0387
   98SAPS   C28 9792   2.484   2.273   6.810 -0.5527  0.7250  0.8169
   98SAPS   H8R 9793   2.424   2.253   6.720  1.2115 -0.2848 -0.1826
   98SAPS   C29 9794   2.576   2.179   6.840 -0.3352  0.2803 -0.3363
   98SAPS   H9R 9795   2.583   2.088   6.778  1.3574  0.6413 -0.7205
   98SAPS  C210 9796   2.681   2.206   6.950  0.1564  0.9833  0.2055
   98SAPS  H10R 9797   2.636   2.241   7.045 -1.0230 -1.4755  0.6210
   98SAPS  H10S 9798   2.745   2.291   6.916 -0.8343  0.7452 -2.5407
   98SAPS  C211 9799   2.775   2.092   6.984  0.0309  0.9458 -0.3600
   98SAPS  H11R 9800   2.869   2.094   6.927 -0.0336  0.2896 -0.4969
   98SAPS  C212 9801   2.761   2.004   7.082 -0.0723  0.9577 -0.0889
   98SAPS  H12R 9802   2.840   1.927   7.081  0.8408  1.8742 -0.2689
   98SAPS  C213 9803   2.659   1.980   7.186  0.8928  0.7815 -0.2845
   98SAPS  H13R 9804   2.676   1.879   7.231 -1.3927  0.5650  0.2008
   98SAPS  H13S 9805   2.560   1.978   7.137 -0.5051 -0.2885  2.3929
   98SAPS  C214 9806   2.663   2.079   7.300 -0.0185  0.1857  0.3553
   98SAPS  H14R 9807   2.631   2.180   7.271  0.6600  0.3667  0.2187
   98SAPS  C215 9808   2.697   2.065   7.428  0.8330  0.3159  0.0086
   98SAPS  H15R 9809   2.697   2.151   7.498 -1.1511 -1.0223  1.8001
   98SAPS  C216 9810   2.741   1.937   7.502 -1.3376 -0.2869  0.1347
   98SAPS  H16R 9811   2.821   1.962   7.574 -0.9628 -0.6667 -0.1436
   98SAPS  H16S 9812   2.789   1.860   7.439 -1.1542  0.9113 -1.2422
   98SAPS  C217 9813   2.633   1.845   7.571 -0.2494  0.7135  0.0733
   98SAPS  H17R 9814   2.668   1.745   7.605 -2.8559  0.0349  1.0005
   98SAPS  H17S 9815   2.562   1.825   7.489  1.1726  1.1223 -1.3145
   98SAPS  C218 9816   2.564   1.911   7.691 -0.0413 -0.5653  0.4201
   98SAPS  H18R 9817   2.489   1.845   7.739 -0.0218  0.3715  1.7875
   98SAPS  H18S 9818   2.514   2.003   7.652 -1.8829 -2.4038 -1.8767
   98SAPS  C219 9819   2.662   1.962   7.800  0.1084 -0.3364 -0.6369
   98SAPS  H19R 9820   2.729   2.039   7.756  0.4204 -1.0251 -1.3862
   98SAPS  H19S 9821   2.727   1.877   7.832 -1.6061 -1.4758 -0.0075
   98SAPS  C220 9822   2.592   2.021   7.922 -0.4469 -0.4101 -0.1809
   98SAPS  H20R 9823   2.673   2.073   7.977 -1.9459 -0.5978  2.3612
   98SAPS  H20S 9824   2.554   1.943   7.993  1.0816 -0.8032  0.2423
   98SAPS  H20T 9825   2.515   2.095   7.892  0.4195  0.4331 -0.3516
   98SAPS   C33 9826   2.034   2.730   7.223 -0.3693  0.0845 -0.4707
   98SAPS   H3X 9827   2.075   2.629   7.203  2.1492  0.6265  1.4851
   98SAPS   H3Y 9828   1.927   2.708   7.245 -0.1837  0.6387  1.0940
   98SAPS   C34 9829   2.102   2.794   7.347 -0.1747 -0.2621  0.3240
   98SAPS   H4X 9830   2.056   2.891   7.373 -0.5471  0.0210 -1.3253
   98SAPS   H4Y 9831   2.210   2.814   7.327  0.1046 -2.1603 -0.2560
   98SAPS   C35 9832   2.085   2.717   7.481 -0.0170  0.2176  0.2743
   98SAPS   H5X 9833   2.112   2.609   7.476 -0.5430 -0.0184  1.9597
   98SAPS   H5Y 9834   1.976   2.711   7.497  0.1699  1.8936  2.6559
   98SAPS   C36 9835   2.142   2.792   7.605  0.2739  0.2835  0.2253
   98SAPS   H6X 9836   2.081   2.885   7.611  1.4023  1.1389 -1.0581
   98SAPS   H6Y 9837   2.247   2.825   7.592  1.8482 -3.9214  0.6688
   98SAPS   C37 9838   2.137   2.707   7.737 -0.0464  0.0671  0.0867
   98SAPS   H7X 9839   2.205   2.620   7.725 -1.0424 -0.6287 -0.7163
   98SAPS   H7Y 9840   2.031   2.672   7.741  0.1322 -0.4532  0.3909
   98SAPS   C38 9841   2.162   2.774   7.869 -0.7385 -0.1664  0.5016
   98SAPS   H8X 9842   2.262   2.821   7.860 -0.7353 -0.3967 -1.0465
   98SAPS   H8Y 9843   2.161   2.702   7.953 -1.2852 -1.3241 -0.4651
   98SAPS   C39 9844   2.065   2.887   7.905  0.6937 -0.7258 -0.1156
   98SAPS   H9X 9845   1.960   2.851   7.909  0.0003  1.2221  0.3148
   98SAPS   H9Y 9846   2.060   2.959   7.821 -0.5758 -1.5227 -0.7609
   98SAPS  C310 9847   2.109   2.949   8.033 -0.3873  0.2726 -0.0465
   98SAPS  H10X 9848   2.042   3.037   8.045 -0.3433  0.4853 -1.2129
   98SAPS  H10Y 9849   2.210   2.992   8.020 -0.1199 -1.0848 -3.9870
   98SAPS  C311 9850   2.088   2.860   8.162  0.1969 -0.0050  0.5577
   98SAPS  H11X 9851   2.165   2.781   8.155 -0.1903 -0.2870 -1.0712
   98SAPS  H11Y 9852   1.985   2.819   8.149  0.1477  1.1065 -4.6792
   98SAPS  C312 9853   2.107   2.936   8.288  0.2928  0.3753 -0.2459
   98SAPS  H12X 9854   2.050   3.031   8.288 -0.7981 -0.2666 -0.7482
   98SAPS  H12Y 9855   2.216   2.958   8.292  0.1275  1.1768 -0.1014
   98SAPS  C313 9856   2.074   2.854   8.416  0.1510 -0.1678 -0.0287
   98SAPS  H13X 9857   1.965   2.841   8.432  0.2992  0.2563  1.4526
   98SAPS  H13Y 9858   2.115   2.919   8.497 -1.6248  0.7955  0.1363
   98SAPS  C314 9859   2.144   2.715   8.425  0.2437  0.2246 -0.6198
   98SAPS  H14X 9860   2.253   2.732   8.412  0.4800  1.0306  1.8467
   98SAPS  H14Y 9861   2.104   2.652   8.343  0.8441 -0.2968 -0.5167
   98SAPS  C315 9862   2.112   2.662   8.565  0.5296  0.3573 -0.4138
   98SAPS  H15X 9863   2.002   2.661   8.576  0.5484  2.6935  0.4888
   98SAPS  H15Y 9864   2.162   2.721   8.644  0.9185  0.3962 -0.6851
   98SAPS  C316 9865   2.170   2.522   8.580  1.1450  0.7270 -0.3547
   98SAPS  H16X 9866   2.127   2.478   8.673 -1.6891  0.3073 -1.7275
   98SAPS  H16Y 9867   2.278   2.509   8.557  1.1552  2.0088 -1.1129
   98SAPS  C317 9868   2.107   2.412   8.486 -0.3131 -0.5992  0.3280
   98SAPS  H17X 9869   2.090   2.458   8.387 -0.1959  0.4583  0.7888
   98SAPS  H17Y 9870   2.010   2.384   8.532  0.5046 -1.0826  1.8491
   98SAPS  C318 9871   2.191   2.286   8.468 -0.0404 -0.4314 -0.0749
   98SAPS  H18X 9872   2.270   2.296   8.390  2.9861 -0.2396  2.7843
   98SAPS  H18Y 9873   2.119   2.206   8.441 -2.3248  1.6766 -0.4995
   98SAPS  H18Z 9874   2.226   2.253   8.568 -0.2476  0.2724  0.2334
   99SAPS     N 9875   1.320   0.789   5.806  0.2027 -0.3440  0.2800
   99SAPS   HN1 9876   1.333   0.879   5.858 -0.1290  0.6109 -1.2256
   99SAPS   HN2 9877   1.379   0.795   5.722  0.8158  0.3085  0.7491
   99SAPS   HN3 9878   1.220   0.773   5.781  0.3090 -3.2761  1.3698
   99SAPS   C12 9879   1.351   0.666   5.892 -0.5239  0.0856  0.1128
   99SAPS  H12A 9880   1.276   0.657   5.969  0.2197  0.3485  0.8877
   99SAPS   C13 9881   1.358   0.535   5.810 -0.2152 -0.0907 -0.0326
   99SAPS  O13A 9882   1.366   0.538   5.687  0.6253  0.0464 -0.0831
   99SAPS  O13B 9883   1.339   0.428   5.872 -0.2005  1.0627  0.4027
   99SAPS   C11 9884   1.492   0.694   5.959 -0.1122 -0.1939  0.0018
   99SAPS  H11A 9885   1.566   0.695   5.877 -0.6027 -2.1653 -0.5143
   99SAPS  H11B 9886   1.521   0.611   6.027  1.0943 -0.7533 -1.1748
   99SAPS     P 9887   1.487   0.843   6.191  0.1358 -0.1207 -0.2283
   99SAPS   O13 9888   1.629   0.824   6.234 -0.2839 -0.3185 -0.0097
   99SAPS   O14 9889   1.423   0.969   6.237 -0.0567  0.1777 -0.2780
   99SAPS   O12 9890   1.493   0.826   6.031 -0.2116  0.1815  0.1299
   99SAPS   O11 9891   1.401   0.717   6.228 -0.2781 -0.1775 -0.4040
   99SAPS    C1 9892   1.278   0.743   6.298 -0.0498  0.8652  0.5731
   99SAPS    HA 9893   1.219   0.823   6.250 -2.9270 -2.3468 -1.7397
   99SAPS    HB 9894   1.216   0.651   6.285  0.1891  0.5920  1.3034
   99SAPS    C2 9895   1.308   0.785   6.445 -0.3177 -0.2929 -0.5339
   99SAPS    HS 9896   1.376   0.872   6.439 -1.3530  0.4700 -1.5168
   99SAPS   O21 9897   1.364   0.667   6.508  0.5962 -0.0689 -0.2172
   99SAPS   C21 9898   1.421   0.684   6.623 -0.2832 -0.2071  0.0220
   99SAPS   O22 9899   1.465   0.789   6.672  0.0182  0.0904 -0.1251
   99SAPS   C22 9900   1.435   0.547   6.692 -0.3357  0.2928 -0.2076
   99SAPS   H2R 9901   1.356   0.480   6.652 -1.0369  0.2565  1.1772
   99SAPS   H2S 9902   1.530   0.503   6.655  0.2626  0.8098  0.6731
   99SAPS    C3 9903   1.184   0.821   6.524 -0.1871 -0.1360  0.5302
   99SAPS    HX 9904   1.109   0.743   6.500 -1.3968  1.6897 -2.0670
   99SAPS    HY 9905   1.127   0.907   6.483  0.6299  1.4913  2.6048
   99SAPS   O31 9906   1.197   0.852   6.669 -0.8281  0.5345 -0.4495
   99SAPS   C31 9907   1.204   0.975   6.700  0.1741  0.6200  0.2114
   99SAPS   O32 9908   1.182   1.071   6.635 -0.0178  0.5561  0.0531
   99SAPS   C32 9909   1.248   0.976   6.848 -0.3175  0.1810 -0.1722
   99SAPS   H2X 9910   1.312   0.887   6.863  1.1868  1.6601  3.3114
   99SAPS   H2Y 9911   1.153   0.965   6.904 -0.7847  1.8592 -0.5911
   99SAPS   C23 9912   1.424   0.562   6.844 -0.2390  0.5770  0.2948
   99SAPS   H3R 9913   1.317   0.560   6.873 -0.1808  0.4732  0.5023
   99SAPS   H3S 9914   1.463   0.665   6.862  0.6815  0.4427 -0.7659
   99SAPS   C24 9915   1.483   0.449   6.929 -0.0218  0.0272 -0.4943
   99SAPS   H4R 9916   1.478   0.477   7.036  0.4048 -1.2070 -0.1368
   99SAPS   H4S 9917   1.590   0.461   6.904  0.1456  2.3014  1.0823
   99SAPS   C25 9918   1.432   0.313   6.903  0.0641 -0.5006  0.2058
   99SAPS   H5R 9919   1.440   0.288   6.796  0.9312  0.4981  0.0221
   99SAPS   C26 9920   1.374   0.228   6.981  0.5839  0.7113  0.1182
   99SAPS   H6R 9921   1.346   0.132   6.935 -1.3071  1.1562  0.2495
   99SAPS   C27 9922   1.342   0.247   7.132  0.7812 -0.4186  0.0713
   99SAPS   H7R 9923   1.300   0.150   7.166  2.0327 -1.7478 -1.9274
   99SAPS   H7S 9924   1.261   0.322   7.140  0.8489  0.0636 -2.6014
   99SAPS   C28 9925   1.460   0.278   7.224  0.1100 -0.2289 -0.6031
   99SAPS   H8R 9926   1.553   0.307   7.174 -0.9296  3.3168 -0.7628
   99SAPS   C29 9927   1.454   0.292   7.356  0.6609 -0.2279  0.0712
   99SAPS   H9R 9928   1.538   0.318   7.421 -0.1572  1.4882  0.4988
   99SAPS  C210 9929   1.324   0.277   7.437  0.2594  0.6520  0.6034
   99SAPS  H10R 9930   1.301   0.169   7.436  1.6843  0.2856 -1.5788
   99SAPS  H10S 9931   1.240   0.321   7.379 -0.7276 -0.9502  0.7580
   99SAPS  C211 9932   1.330   0.338   7.569  0.7268  0.1620  0.2498
   99SAPS  H11R 9933   1.314   0.446   7.558  1.2388  0.2090 -0.0663
   99SAPS  C212 9934   1.350   0.269   7.679  0.4749 -0.0923  0.1113
   99SAPS  H12R 9935   1.356   0.313   7.780  2.3940  0.1412 -0.0698
   99SAPS  C213 9936   1.373   0.117   7.695  0.7492 -0.3250  0.5761
   99SAPS  H13R 9937   1.470   0.096   7.746  1.0169 -0.4537  0.0259
   99SAPS  H13S 9938   1.375   0.081   7.590  3.4183 -0.5523  0.6333
   99SAPS  C214 9939   1.257   0.056   7.768 -0.2341  0.1628  0.3513
   99SAPS  H14R 9940   1.171   0.018   7.711 -0.1943  0.6342 -0.0253
   99SAPS  C215 9941   1.240   0.055   7.903  0.3433  0.3532 -0.4857
   99SAPS  H15R 9942   1.154   0.002   7.947  0.3596  0.9181  0.2389
   99SAPS  C216 9943   1.327   0.113   8.009  0.1935  0.9051 -0.4606
   99SAPS  H16R 9944   1.420   0.169   7.983  0.2368  1.3610  0.6163
   99SAPS  H16S 9945   1.374   0.024   8.055 -0.9250  0.7350  0.3903
   99SAPS  C217 9946   1.256   0.202   8.114 -0.0768 -0.1267 -0.4703
   99SAPS  H17R 9947   1.175   0.148   8.167  0.0192 -0.2589 -0.4588
   99SAPS  H17S 9948   1.207   0.285   8.057 -0.8425 -0.6131 -0.5261
   99SAPS  C218 9949   1.366   0.260   8.209  0.4451  0.3234  0.7726
   99SAPS  H18R 9950   1.318   0.344   8.263  1.1061  1.6968 -0.6831
   99SAPS  H18S 9951   1.449   0.306   8.152 -1.7365  0.4087 -2.6198
   99SAPS  C219 9952   1.426   0.156   8.298 -0.8469 -0.0687  0.2934
   99SAPS  H19R 9953   1.490   0.100   8.227 -1.3748  1.3195 -1.3502
   99SAPS  H19S 9954   1.350   0.080   8.325 -0.4124 -1.1232 -1.2973
   99SAPS  C220 9955   1.493   0.217   8.426  0.4883  0.0272 -0.7592
   99SAPS  H20R 9956   1.544   0.143   8.491  0.2957  1.4589  1.1035
   99SAPS  H20S 9957   1.404   0.253   8.483  0.7894 -1.4675  0.7723
   99SAPS  H20T 9958   1.569   0.295   8.407  2.4720 -1.6979 -0.3320
   99SAPS   C33 9959   1.313   1.104   6.914  0.4401 -0.0250 -0.3997
   99SAPS   H3X 9960   1.237   1.184   6.900  1.8974  1.6723  0.8661
   99SAPS   H3Y 9961   1.403   1.141   6.861 -2.0159  4.4542 -1.9183
   99SAPS   C34 9962   1.361   1.083   7.060  0.2716 -1.3120 -0.0019
   99SAPS   H4X 9963   1.435   1.000   7.060  1.6329 -0.1637  1.7845
   99SAPS   H4Y 9964   1.274   1.043   7.118  0.4908 -4.0914 -1.3956
   99SAPS   C35 9965   1.424   1.210   7.123 -0.4489  0.2541  0.2766
   99SAPS   H5X 9966   1.455   1.193   7.229 -1.8116 -3.2751  0.2736
   99SAPS   H5Y 9967   1.339   1.281   7.123 -0.0230  0.7758 -0.7509
   99SAPS   C36 9968   1.548   1.269   7.053  0.1414  0.3340 -0.2310
   99SAPS   H6X 9969   1.503   1.309   6.959 -0.1428 -1.0568 -0.7051
   99SAPS   H6Y 9970   1.628   1.195   7.033  0.6769  0.6660  0.6468
   99SAPS   C37 9971   1.598   1.384   7.133 -0.0198 -0.2582  0.3221
   99SAPS   H7X 9972   1.507   1.435   7.171  0.0287  1.8583 -2.1003
   99SAPS   H7Y 9973   1.651   1.464   7.078  1.7510 -1.6902 -0.1344
   99SAPS   C38 9974   1.697   1.351   7.242 -0.0383  0.4181 -0.1812
   99SAPS   H8X 9975   1.796   1.348   7.193  1.2954 -0.1857  2.3987
   99SAPS   H8Y 9976   1.680   1.248   7.280 -1.9172  0.8728  0.3347
   99SAPS   C39 9977   1.710   1.440   7.364 -0.8619 -0.3877 -0.0551
   99SAPS   H9X 9978   1.752   1.532   7.319  2.9133 -2.0874 -0.4083
   99SAPS   H9Y 9979   1.799   1.398   7.417 -1.0679 -0.1154  0.5107
   99SAPS  C310 9980   1.581   1.441   7.451 -0.3825 -0.1065  0.1719
   99SAPS  H10X 9981   1.563   1.341   7.494 -1.1695 -0.2420 -0.4513
   99SAPS  H10Y 9982   1.496   1.462   7.383 -1.3115 -0.7221  1.1133
   99SAPS  C311 9983   1.600   1.544   7.572  0.0841  0.0913  0.1285
   99SAPS  H11X 9984   1.610   1.642   7.520 -0.4785 -1.5683 -3.4284
   99SAPS  H11Y 9985   1.694   1.537   7.630 -0.4956  0.3085  1.1149
   99SAPS  C312 9986   1.480   1.547   7.662  0.2238 -0.6793 -0.3619
   99SAPS  H12X 9987   1.478   1.448   7.711  0.1574 -0.2608  0.5008
   99SAPS  H12Y 9988   1.384   1.555   7.607 -0.5167  0.0165  0.9872
   99SAPS  C313 9989   1.492   1.648   7.774 -0.2706  0.2504 -0.3156
   99SAPS  H13X 9990   1.422   1.735   7.775 -1.0108 -0.2490  2.9840
   99SAPS  H13Y 9991   1.595   1.688   7.774 -0.5362  0.9531 -0.2454
   99SAPS  C314 9992   1.471   1.588   7.920 -0.6410  0.0573  0.3374
   99SAPS  H14X 9993   1.510   1.662   7.993 -1.1129 -0.2432  0.8975
   99SAPS  H14Y 9994   1.529   1.494   7.918 -1.3808 -0.3949 -0.4194
   99SAPS  C315 9995   1.321   1.561   7.935 -0.3079 -0.5086 -0.2043
   99SAPS  H15X 9996   1.323   1.477   8.009  1.0222  0.3391  0.7503
   99SAPS  H15Y 9997   1.275   1.511   7.846  0.4099 -0.5137 -0.5740
   99SAPS  C316 9998   1.245   1.681   7.984 -0.3238 -0.8152  0.2344
   99SAPS  H16X 9999   1.246   1.764   7.910 -2.1055 -0.0337  1.0268
   99SAPS  H16Y10000   1.297   1.711   8.077 -0.2636 -0.6580  0.1503
   99SAPS  C31710001   1.092   1.656   8.018 -0.2992  0.1487  0.3258
   99SAPS  H17X10002   1.070   1.736   8.093  0.2995 -0.6613  1.4008
   99SAPS  H17Y10003   1.075   1.556   8.064 -0.0769  0.2668  0.6729
   99SAPS  C31810004   1.008   1.666   7.896 -0.0814  0.2819 -0.0739
   99SAPS  H18X10005   0.900   1.650   7.918  0.3374 -2.2423  0.4023
   99SAPS  H18Y10006   1.044   1.590   7.824 -0.5009  0.6439 -0.6829
   99SAPS  H18Z10007   1.020   1.767   7.850  0.4187  1.0607  1.6745
  100SAPS     N10008   5.202   2.402   6.275 -0.2511  0.1734 -0.5489
  100SAPS   HN110009   5.299   2.439   6.285 -0.8536  1.4828  0.9517
  100SAPS   HN210010   5.163   2.398   6.179  0.3238  2.1071 -0.9081
  100SAPS   HN310011   5.142   2.470   6.326  0.1027 -1.6187  2.5008
  100SAPS   C1210012   5.186   2.272   6.346  0.1345  0.3023 -0.2023
  100SAPS  H12A10013   5.102   2.225   6.298 -0.9939  1.0265  0.9961
  100SAPS   C1310014   5.301   2.165   6.337 -0.3066 -0.2965 -0.2227
  100SAPS  O13A10015   5.414   2.180   6.268 -0.2462 -0.0472  0.7384
  100SAPS  O13B10016   5.294   2.064   6.414  0.4172 -0.3539 -0.3995
  100SAPS   C1110017   5.150   2.306   6.490  0.5870  0.0878  0.5598
  100SAPS  H11A10018   5.242   2.355   6.529  1.9067 -0.2354 -1.9265
  100SAPS  H11B10019   5.134   2.207   6.538 -2.3806  0.0325 -0.3474
  100SAPS     P10020   4.899   2.332   6.529 -0.2301  0.1855  0.0134
  100SAPS   O1310021   4.808   2.435   6.483 -0.2745  0.5289  0.5583
  100SAPS   O1410022   4.891   2.199   6.459  0.3330 -0.2958 -0.4117
  100SAPS   O1210023   5.040   2.390   6.495  0.1797 -0.4446 -0.2459
  100SAPS   O1110024   4.890   2.324   6.683 -1.1579 -0.9320 -0.1223
  100SAPS    C110025   4.908   2.430   6.779 -0.5030  1.0592  1.1854
  100SAPS    HA10026   5.006   2.408   6.824  0.2424 -1.3087 -1.3037
  100SAPS    HB10027   4.918   2.533   6.737  0.4137 -0.1483 -1.8160
  100SAPS    C210028   4.796   2.437   6.887 -0.0028  0.1326 -0.3491
  100SAPS    HS10029   4.800   2.537   6.935  1.1869 -0.0276 -0.0790
  100SAPS   O2110030   4.824   2.339   6.993 -0.6497 -0.9779 -0.6641
  100SAPS   C2110031   4.933   2.350   7.070 -0.6959  0.5943 -0.0472
  100SAPS   O2210032   5.012   2.444   7.079  0.6233 -0.3477  0.3532
  100SAPS   C2210033   4.921   2.246   7.184 -0.4311  0.4562 -0.4257
  100SAPS   H2R10034   4.870   2.160   7.136 -0.0027  1.3798 -2.6779
  100SAPS   H2S10035   5.021   2.199   7.201 -0.4896  0.1708 -0.8379
  100SAPS    C310036   4.655   2.419   6.835 -0.1806  0.2879 -0.0754
  100SAPS    HX10037   4.656   2.337   6.760  0.8244  2.2000 -2.2438
  100SAPS    HY10038   4.629   2.506   6.772  2.7005  0.5769 -1.0090
  100SAPS   O3110039   4.559   2.411   6.946  0.7525 -0.2495 -0.4704
  100SAPS   C3110040   4.451   2.336   6.918  0.6138  0.3272 -0.1534
  100SAPS   O3210041   4.427   2.283   6.809 -0.4283 -0.6063 -0.4694
  100SAPS   C3210042   4.390   2.306   7.054  0.1868 -0.3289 -0.0347
  100SAPS   H2X10043   4.365   2.400   7.108  1.1057  0.2477 -0.5875
  100SAPS   H2Y10044   4.468   2.254   7.115 -0.1960  0.2530  0.9771
  100SAPS   C2310045   4.877   2.311   7.318  0.9122 -0.3829 -0.3689
  100SAPS   H3R10046   4.927   2.410   7.329 -1.7725  0.8187  2.2598
  100SAPS   H3S10047   4.926   2.255   7.400  0.9425 -0.1812 -0.2463
  100SAPS   C2410048   4.724   2.303   7.350  0.0639 -0.1795  0.3652
  100SAPS   H4R10049   4.709   2.193   7.343 -0.0865 -0.0766 -1.0614
  100SAPS   H4S10050   4.663   2.354   7.273  1.6146 -0.9015 -1.4049
  100SAPS   C2510051   4.690   2.366   7.483  0.3043  0.2813 -0.5693
  100SAPS   H5R10052   4.699   2.475   7.481  2.0019  0.1951  0.4134
  100SAPS   C2610053   4.655   2.293   7.596  0.1359 -0.1790  0.4908
  100SAPS   H6R10054   4.636   2.350   7.688 -0.2886  0.8207 -0.1945
  100SAPS   C2710055   4.642   2.141   7.603  0.1509  0.7505  0.4527
  100SAPS   H7R10056   4.650   2.081   7.510  0.0858  0.2772  0.7465
  100SAPS   H7S10057   4.543   2.106   7.640  0.1676  1.8653  1.6319
  100SAPS   C2810058   4.745   2.097   7.713 -0.3472 -0.0937  0.5248
  100SAPS   H8R10059   4.851   2.122   7.701 -0.4286 -0.5563 -1.4671
  100SAPS   C2910060   4.717   2.034   7.829  0.4415  0.6268  0.7890
  100SAPS   H9R10061   4.800   2.014   7.899 -0.5304  1.0211  2.0783
  100SAPS  C21010062   4.582   1.991   7.879  0.5321 -0.6613  0.1527
  100SAPS  H10R10063   4.579   1.892   7.930 -2.3611 -0.6987  0.0760
  100SAPS  H10S10064   4.508   1.975   7.798 -0.3432  0.4119  0.7282
  100SAPS  C21110065   4.535   2.107   7.964 -0.2230 -0.0186  0.0033
  100SAPS  H11R10066   4.479   2.191   7.919 -1.5871 -0.3020  1.1216
  100SAPS  C21210067   4.555   2.125   8.093  0.1156  0.4681 -1.0503
  100SAPS  H12R10068   4.499   2.209   8.135  1.6916  1.7011 -1.3123
  100SAPS  C21310069   4.635   2.042   8.194  0.2801  0.0800 -0.7651
  100SAPS  H13R10070   4.697   2.110   8.257  1.2720 -0.4188 -1.1853
  100SAPS  H13S10071   4.706   1.981   8.135 -1.6241 -0.3829 -2.7227
  100SAPS  C21410072   4.546   1.939   8.276  0.4606 -0.4590  0.2614
  100SAPS  H14R10073   4.475   1.872   8.225  0.2888 -2.2247  2.6327
  100SAPS  C21510074   4.558   1.907   8.408 -0.0208 -0.4394 -0.6432
  100SAPS  H15R10075   4.493   1.832   8.457  1.0854 -0.4137  0.9725
  100SAPS  C21610076   4.648   1.987   8.501  0.7920 -0.5800 -0.9164
  100SAPS  H16R10077   4.585   1.991   8.592  1.2212  1.2122 -0.6629
  100SAPS  H16S10078   4.652   2.092   8.464  0.9008 -0.9005 -1.8365
  100SAPS  C21710079   4.796   1.949   8.522  0.3352 -0.2775 -0.4296
  100SAPS  H17R10080   4.831   2.029   8.591 -0.8451  0.4569 -0.6671
  100SAPS  H17S10081   4.848   1.967   8.426  0.6966 -1.0554 -0.3952
  100SAPS  C21810082   4.809   1.820   8.587 -0.6895 -0.1280 -0.8129
  100SAPS  H18R10083   4.755   1.739   8.534 -0.6028 -2.5668  2.5316
  100SAPS  H18S10084   4.756   1.837   8.683 -0.6026  0.3164 -0.8407
  100SAPS  C21910085   4.963   1.773   8.604  0.9143 -0.2762 -0.2999
  100SAPS  H19R10086   5.025   1.855   8.646 -1.6326  1.0979  0.9959
  100SAPS  H19S10087   4.991   1.749   8.499 -0.9011 -1.6616 -0.5044
  100SAPS  C22010088   4.984   1.650   8.690  0.2078 -0.0970 -0.0768
  100SAPS  H20R10089   5.091   1.634   8.712  0.0133  1.8102  2.7719
  100SAPS  H20S10090   4.949   1.566   8.626  0.9581 -1.9738  1.8707
  100SAPS  H20T10091   4.940   1.649   8.792  0.0294 -2.0743 -0.1362
  100SAPS   C3310092   4.273   2.201   7.043  0.1882 -0.2472  0.4575
  100SAPS   H3X10093   4.324   2.104   7.021 -1.0884 -0.3070 -2.7881
  100SAPS   H3Y10094   4.208   2.235   6.960 -1.0916 -0.2724  1.4342
  100SAPS   C3410095   4.183   2.211   7.168 -0.5858  0.1613  0.7177
  100SAPS   H4X10096   4.102   2.135   7.159  0.0938 -0.4201 -0.8324
  100SAPS   H4Y10097   4.143   2.314   7.178 -4.1097 -0.8350 -1.3386
  100SAPS   C3510098   4.257   2.181   7.293 -0.0809 -0.5883 -0.1652
  100SAPS   H5X10099   4.348   2.244   7.304  1.4434 -2.8732  0.8156
  100SAPS   H5Y10100   4.288   2.076   7.312 -1.7293 -0.5433  3.5715
  100SAPS   C3610101   4.169   2.200   7.418  0.0214  0.0082  0.1655
  100SAPS   H6X10102   4.073   2.147   7.403  0.0084  0.2551 -0.6494
  100SAPS   H6Y10103   4.141   2.306   7.439  1.4709  0.5533 -0.5136
  100SAPS   C3710104   4.240   2.146   7.543  0.0660  0.7480 -0.2412
  100SAPS   H7X10105   4.338   2.197   7.553  0.9596 -0.6815 -1.3092
  100SAPS   H7Y10106   4.259   2.037   7.536 -1.4493  0.5183 -1.3523
  100SAPS   C3810107   4.150   2.156   7.668 -0.6042 -0.7092 -0.0206
  100SAPS   H8X10108   4.054   2.108   7.639 -1.4286  0.7229  0.2543
  100SAPS   H8Y10109   4.132   2.265   7.683 -1.0155 -0.7694 -0.0574
  100SAPS   C3910110   4.216   2.096   7.784 -0.4606 -0.4023  0.4991
  100SAPS   H9X10111   4.312   2.144   7.812 -0.4356 -0.4785  0.5434
  100SAPS   H9Y10112   4.249   1.992   7.765 -2.1782 -0.9141  0.1346
  100SAPS  C31010113   4.122   2.080   7.902  0.2295 -0.7316 -0.0608
  100SAPS  H10X10114   4.055   1.993   7.887  0.2694 -0.9343  0.8811
  100SAPS  H10Y10115   4.046   2.161   7.905  1.0189  0.0958 -1.4008
  100SAPS  C31110116   4.194   2.070   8.038 -0.6161 -0.6912  0.5261
  100SAPS  H11X10117   4.277   2.144   8.037 -0.6585 -0.6437  0.4439
  100SAPS  H11Y10118   4.238   1.968   8.042  0.4591 -0.3416 -1.1664
  100SAPS  C31210119   4.100   2.106   8.149 -0.0018  0.5192 -0.2918
  100SAPS  H12X10120   4.011   2.039   8.142 -0.3805  1.1110 -1.4714
  100SAPS  H12Y10121   4.054   2.203   8.121 -1.0507 -0.6275 -2.7867
  100SAPS  C31310122   4.167   2.121   8.281  0.0331 -0.3210  0.4556
  100SAPS  H13X10123   4.260   2.181   8.270  0.0200 -0.2429  0.7674
  100SAPS  H13Y10124   4.184   2.017   8.314 -2.4517 -0.3003  2.0811
  100SAPS  C31410125   4.080   2.192   8.377 -1.1060  0.7674 -0.3164
  100SAPS  H14X10126   3.974   2.157   8.375 -0.2618 -2.2939  1.8256
  100SAPS  H14Y10127   4.070   2.299   8.348  0.0260  0.5096 -1.7961
  100SAPS  C31510128   4.139   2.179   8.524 -0.7969  0.5897  0.3465
  100SAPS  H15X10129   4.165   2.073   8.543 -0.3065  0.1360 -2.4342
  100SAPS  H15Y10130   4.064   2.214   8.598 -0.9384  0.3804  0.3012
  100SAPS  C31610131   4.278   2.260   8.542 -0.1654  0.0404  0.1939
  100SAPS  H16X10132   4.271   2.349   8.475 -1.2310 -0.8814 -0.9818
  100SAPS  H16Y10133   4.351   2.191   8.494 -1.8236 -0.0318 -2.4392
  100SAPS  C31710134   4.329   2.297   8.684  0.1592  0.7879  0.2520
  100SAPS  H17X10135   4.253   2.347   8.748  1.3312 -1.0188  3.2801
  100SAPS  H17Y10136   4.420   2.361   8.674 -0.5535  1.5817 -1.5335
  100SAPS  C31810137   4.374   2.167   8.752  0.0384 -0.2387 -0.4875
  100SAPS  H18X10138   4.286   2.114   8.793 -0.6613  0.9005 -0.4681
  100SAPS  H18Y10139   4.435   2.187   8.843 -1.7432  1.0968  0.4705
  100SAPS  H18Z10140   4.432   2.100   8.685 -0.9768 -1.2008 -0.4326
  101OSM      N10141   2.144   3.118  11.146  0.5790 -0.2601 -0.1866
  101OSM    C1510142   2.268   3.066  11.074 -0.4470 -0.3325 -0.3914
  101OSM   H15A10143   2.302   2.970  11.109 -0.5523  0.1059  0.9835
  101OSM   H15B10144   2.355   3.128  11.089  0.9064 -1.6830 -2.1472
  101OSM   H15C10145   2.259   3.068  10.966  0.2561 -0.8155 -0.4679
  101OSM    C1410146   2.029   3.026  11.132 -0.0115  0.2137  0.0555
  101OSM   H14A10147   1.990   3.022  11.031  0.5126 -0.2936 -0.1305
  101OSM   H14B10148   1.947   3.054  11.197 -2.0116  0.9469 -2.6057
  101OSM   H14C10149   2.061   2.926  11.159  0.0384 -0.1518 -1.2798
  101OSM    C1310150   2.170   3.140  11.295 -0.3327 -0.4726  0.6358
  101OSM   H13A10151   2.220   3.234  11.311  2.2104 -1.3814 -1.3161
  101OSM   H13B10152   2.225   3.052  11.325 -0.2351 -0.9146 -0.7660
  101OSM   H13C10153   2.079   3.146  11.354  1.0861 -1.0140  3.0001
  101OSM    C1210154   2.103   3.252  11.093 -0.5660 -0.1153  0.0083
  101OSM   H12A10155   2.190   3.316  11.087  0.1954 -1.2465 -4.5234
  101OSM   H12B10156   2.034   3.300  11.161  1.2400  1.2210  0.9901
  101OSM    C1110157   2.051   3.258  10.947  0.2157  0.6379  0.3191
  101OSM   H11A10158   2.129   3.210  10.885  1.1837  2.3788  0.1026
  101OSM   H11B10159   2.036   3.363  10.914 -0.4638  0.3558 -0.3008
  101OSM      P10160   1.786   3.263  10.981 -0.1866  0.0269 -0.1786
  101OSM    O1310161   1.676   3.164  10.960  0.7130 -0.0993 -0.1637
  101OSM    O1410162   1.801   3.319  11.117 -0.3202  0.2292  0.1212
  101OSM    O1110163   1.785   3.385  10.886 -0.3100  0.3895 -0.0533
  101OSM    O1210164   1.925   3.192  10.939  0.2955 -0.2416  0.4487
  101OSM    C1S10165   1.799   3.364  10.746  0.0256 -0.5717  1.6658
  101OSM    H1S10166   1.714   3.302  10.713 -0.7490  0.3440  1.8908
  101OSM    H1T10167   1.890   3.310  10.712 -0.2753 -0.8029  1.2206
  101OSM     NF10168   1.825   3.472  10.530  0.5466 -0.1020  0.2927
  101OSM    HNF10169   1.913   3.487  10.487  0.4417 -1.7496 -0.5720
  101OSM    C2S10170   1.805   3.501  10.672 -0.6825 -0.0818  0.6843
  101OSM    H2S10171   1.708   3.552  10.689 -0.9213 -0.7556  1.4416
  101OSM    C3S10172   1.917   3.587  10.738 -1.0003 -0.0677 -0.0568
  101OSM    H3S10173   2.012   3.530  10.727 -0.5588  0.6951 -0.2725
  101OSM     O310174   1.903   3.613  10.878  0.6163 -0.2000  0.8834
  101OSM    HO310175   1.844   3.546  10.912  0.6081 -0.5378  0.2279
  101OSM    C4S10176   1.925   3.719  10.674 -0.0819 -0.2168 -0.6933
  101OSM    H4S10177   1.840   3.785  10.696  0.7146 -0.4044  3.8555
  101OSM    C5S10178   2.023   3.770  10.600  0.1288 -0.4633  0.5154
  101OSM    H5S10179   2.116   3.714  10.583 -0.3574 -0.8206 -1.1651
  101OSM    C6S10180   2.033   3.906  10.536  0.2715  0.0678 -0.0021
  101OSM    H6S10181   2.128   3.942  10.581  0.5512 -2.1488  1.3626
  101OSM    H6T10182   1.958   3.980  10.569  1.6695  0.4642  2.5355
  101OSM    C7S10183   2.064   3.886  10.391  0.3769 -0.1473 -0.0727
  101OSM    H7S10184   1.976   3.840  10.341  0.2748 -0.6087  0.5150
  101OSM    H7T10185   2.156   3.825  10.373  1.1725  1.9266 -4.4900
  101OSM    C8S10186   2.064   4.015  10.316  0.4537  0.2284 -0.3548
  101OSM    H8S10187   2.137   4.087  10.359  1.0681 -1.3737  1.4276
  101OSM    H8T10188   1.967   4.068  10.334  0.4317  0.6225 -1.5679
  101OSM    C9S10189   2.098   3.974  10.165 -0.7168 -0.0207  0.4091
  101OSM    H9S10190   2.009   3.946  10.105  0.3641  2.1878 -2.4642
  101OSM    H9T10191   2.177   3.896  10.165 -0.1165  0.5715  1.6813
  101OSM   C10S10192   2.148   4.088  10.078 -0.7019 -0.3106  0.5460
  101OSM   H10S10193   2.249   4.119  10.112 -1.5444  1.4977  1.5525
  101OSM   H10T10194   2.078   4.174  10.083 -0.9785 -0.5547  0.8989
  101OSM   C11S10195   2.176   4.071   9.931  0.0526 -0.8311  0.4656
  101OSM   H11S10196   2.252   3.992   9.912  0.1667 -0.8402  0.9693
  101OSM   H11T10197   2.213   4.162   9.878 -2.6948  0.7515  1.0845
  101OSM   C12S10198   2.055   4.033   9.852  0.1743 -0.3396  0.1635
  101OSM   H12S10199   1.973   4.103   9.878 -0.6437 -0.3128 -2.2098
  101OSM   H12T10200   2.024   3.929   9.879  3.4408 -1.1390  1.3613
  101OSM   C13S10201   2.076   4.056   9.699 -0.1433  0.1052  0.9466
  101OSM   H13S10202   2.161   3.997   9.659 -1.5979 -1.1881 -0.3833
  101OSM   H13T10203   2.095   4.162   9.671  1.0177  0.0829  1.5996
  101OSM   C14S10204   1.955   4.013   9.620  0.1816 -0.3235  0.0876
  101OSM   H14S10205   1.863   4.074   9.634 -0.3530 -0.3385 -2.7105
  101OSM   H14T10206   1.929   3.905   9.625 -0.8218 -0.0849  0.3286
  101OSM   C15S10207   1.986   4.033   9.464 -0.5450  0.4271 -0.4863
  101OSM   H15S10208   2.086   3.987   9.446  0.8772  2.5377  1.3881
  101OSM   H15T10209   2.000   4.140   9.438  1.7307  0.1681 -0.5619
  101OSM   C16S10210   1.875   3.961   9.385 -0.4476  0.0986  0.3447
  101OSM   H16S10211   1.782   4.014   9.417 -0.9071 -0.1381 -0.5552
  101OSM   H16T10212   1.869   3.852   9.406 -0.5558 -0.1201 -0.7686
  101OSM   C17S10213   1.900   3.971   9.236  0.2990 -0.3757  0.6234
  101OSM   H17S10214   1.970   3.893   9.199 -0.5031 -0.5136 -0.6475
  101OSM   H17T10215   1.942   4.073   9.224  0.0036 -0.4550 -1.3492
  101OSM   C18S10216   1.767   3.962   9.158  0.0970  0.0514 -0.5222
  101OSM   H18S10217   1.784   3.975   9.048 -0.7994  1.2649 -0.5339
  101OSM   H18T10218   1.691   4.035   9.191 -0.6624 -0.8639 -0.2150
  101OSM   H18U10219   1.727   3.861   9.178 -0.6992  0.5877  0.7074
  101OSM    C1F10220   1.727   3.426  10.449  0.3871 -0.2011  0.8906
  101OSM     OF10221   1.614   3.437  10.485  0.6745  0.2556 -0.0905
  101OSM    C2F10222   1.754   3.377  10.310 -1.1624 -0.3688 -0.0537
  101OSM    H2F10223   1.841   3.309  10.320 -1.9022 -1.2287  0.6786
  101OSM    H2G10224   1.791   3.464  10.252  0.9529 -1.4703 -0.4648
  101OSM    C3F10225   1.643   3.309  10.233  0.3545  0.1588  1.1194
  101OSM    H3F10226   1.548   3.365  10.246 -0.1254 -0.2169 -0.5020
  101OSM    H3G10227   1.625   3.209  10.279 -0.1865 -0.6427 -0.7302
  101OSM    C4F10228   1.659   3.284  10.080 -0.1083 -0.8569  0.0346
  101OSM    H4F10229   1.586   3.201  10.067  0.1288 -1.1919  0.7890
  101OSM    H4G10230   1.758   3.263  10.034  0.0015 -0.8396  0.2633
  101OSM    C5F10231   1.601   3.407  10.007 -0.4805 -0.0424  0.4406
  101OSM    H5F10232   1.673   3.488  10.032  0.7417 -1.1883  0.6817
  101OSM    H5G10233   1.493   3.430  10.022 -0.5401  0.5526 -0.7677
  101OSM    C6F10234   1.617   3.379   9.856 -0.4237 -0.0413 -0.0990
  101OSM    H6F10235   1.539   3.305   9.829 -0.7787  0.3079 -0.0236
  101OSM    H6G10236   1.720   3.339   9.841  1.1636  3.4939  0.2558
  101OSM    C7F10237   1.614   3.502   9.770 -0.3360 -0.1715 -0.4665
  101OSM    H7F10238   1.674   3.582   9.819 -1.6449 -1.0774  2.8821
  101OSM    H7G10239   1.512   3.540   9.747 -0.3927  0.9205  1.3572
  101OSM    C8F10240   1.679   3.469   9.634 -0.5447  0.4627 -0.3074
  101OSM    H8F10241   1.613   3.399   9.578  0.3798  0.5269 -1.5200
  101OSM    H8G10242   1.780   3.423   9.645 -0.2526  0.2335 -3.0704
  101OSM    C9F10243   1.709   3.596   9.558  0.2479 -0.7057 -0.3047
  101OSM    H9F10244   1.734   3.689   9.610 -1.6079  0.1855 -0.9083
  101OSM   C10F10245   1.725   3.609   9.428 -0.1730  0.3948  0.2836
  101OSM   H10F10246   1.728   3.710   9.385 -3.6467  0.7727  0.6049
  101OSM   C11F10247   1.701   3.498   9.331 -0.7626 -0.0627 -0.4550
  101OSM   H11F10248   1.596   3.499   9.293 -1.3840  2.0386  1.1364
  101OSM   H11G10249   1.712   3.399   9.382 -3.8145  0.4719  1.5637
  101OSM   C12F10250   1.805   3.510   9.215 -0.1827  0.0868 -0.8281
  101OSM   H12F10251   1.900   3.466   9.253  1.6206  3.0823 -1.4294
  101OSM   H12G10252   1.820   3.619   9.194 -0.7573  0.0367 -1.5254
  101OSM   C13F10253   1.771   3.434   9.091  0.5272  0.4149 -0.3535
  101OSM   H13F10254   1.671   3.471   9.057 -0.1372 -1.1694 -0.1993
  101OSM   H13G10255   1.774   3.328   9.124 -2.6176  0.7527  1.4605
  101OSM   C14F10256   1.868   3.452   8.979 -0.0411 -0.2467  0.4033
  101OSM   H14F10257   1.830   3.407   8.885 -0.3342  2.3414 -0.8183
  101OSM   H14G10258   1.966   3.400   8.983 -1.3165 -2.8468 -0.1965
  101OSM   C15F10259   1.885   3.604   8.936 -0.1127 -0.1226 -1.1798
  101OSM   H15F10260   1.938   3.662   9.015  0.1194  0.9045 -2.0771
  101OSM   H15G10261   1.789   3.659   8.926 -0.6659  0.0053  2.9848
  101OSM   C16F10262   1.961   3.610   8.801 -0.5328  0.1517  0.1420
  101OSM   H16F10263   1.886   3.599   8.720 -1.0744 -0.7153  0.7308
  101OSM   H16G10264   2.033   3.525   8.792  2.4555  2.5058  0.2465
  101OSM   C17F10265   2.052   3.727   8.795  0.6199  0.3743 -0.0334
  101OSM   H17F10266   2.108   3.726   8.699 -0.4160  0.9421 -0.6518
  101OSM   H17G10267   2.129   3.712   8.874  2.4209  1.2331 -1.5455
  101OSM   C18F10268   1.986   3.864   8.799  0.1824  0.1226 -0.6285
  101OSM   H18F10269   2.062   3.943   8.786  1.4118 -0.5357  1.8969
  101OSM   H18G10270   1.929   3.886   8.892  0.4951 -0.3957 -0.3071
  101OSM   H18H10271   1.914   3.879   8.715 -1.2050 -0.8364  0.3309
  102OSM      N10272   1.129   2.472  10.867  0.0879 -0.1638 -0.2873
  102OSM    C1510273   1.114   2.498  11.018  0.3579 -0.0225 -0.6708
  102OSM   H15A10274   1.039   2.438  11.068  2.4325 -0.0043  2.8145
  102OSM   H15B10275   1.100   2.605  11.031 -1.1059 -0.1287 -1.1766
  102OSM   H15C10276   1.203   2.473  11.074 -0.8608 -0.0949  1.3621
  102OSM    C1410277   1.011   2.522  10.786  0.5705  0.5272  0.0730
  102OSM   H14A10278   0.915   2.494  10.827 -0.0684  1.3304 -0.8200
  102OSM   H14B10279   1.025   2.491  10.684  1.2110  0.4420  0.1837
  102OSM   H14C10280   1.014   2.630  10.779  0.9000  0.4232 -1.9037
  102OSM    C1310281   1.252   2.552  10.820  0.3784  0.6049  0.2846
  102OSM   H13A10282   1.262   2.552  10.713 -1.7882  1.9526  0.0165
  102OSM   H13B10283   1.344   2.507  10.853 -0.9365 -2.3783  0.2447
  102OSM   H13C10284   1.238   2.652  10.859 -1.7547 -0.4643  2.5781
  102OSM    C1210285   1.146   2.323  10.842  0.2191  0.6753 -1.0096
  102OSM   H12A10286   1.141   2.302  10.736 -0.3164  1.0937 -1.0708
  102OSM   H12B10287   1.060   2.271  10.881  1.3393 -0.0402  0.6221
  102OSM    C1110288   1.286   2.263  10.894  0.4629  0.1090  0.4759
  102OSM   H11A10289   1.276   2.153  10.890  1.1726  0.0876 -0.9740
  102OSM   H11B10290   1.295   2.292  11.001  0.7690  0.3293  0.3908
  102OSM      P10291   1.484   2.215  10.730 -0.0392 -0.1242  0.0938
  102OSM    O1310292   1.580   2.296  10.661 -0.5585 -0.0779  0.0254
  102OSM    O1410293   1.537   2.110  10.819  0.5592  0.0628 -0.2715
  102OSM    O1110294   1.375   2.152  10.638  0.0159  0.0795 -0.3962
  102OSM    O1210295   1.400   2.309  10.823  0.0487 -0.8972 -0.2705
  102OSM    C1S10296   1.291   2.241  10.564  0.3490  0.2532 -0.1751
  102OSM    H1S10297   1.290   2.351  10.581 -3.6996  0.3223  0.0003
  102OSM    H1T10298   1.188   2.207  10.590  0.4958 -0.3825 -0.4091
  102OSM     NF10299   1.179   2.272  10.335 -0.0252  0.2994  0.7014
  102OSM    HNF10300   1.085   2.240  10.347  0.0660  0.2993  1.4897
  102OSM    C2S10301   1.293   2.206  10.407  0.2010  0.0246  0.2539
  102OSM    H2S10302   1.386   2.238  10.355 -0.1816  0.9894  0.1432
  102OSM    C3S10303   1.300   2.053  10.377 -0.7749 -0.3475  0.2084
  102OSM    H3S10304   1.198   2.012  10.394 -0.9439  0.6417  1.7502
  102OSM     O310305   1.383   1.980  10.465  0.4987 -0.2793 -0.0950
  102OSM    HO310306   1.405   2.045  10.531 -0.8212  1.4804 -1.2838
  102OSM    C4S10307   1.339   2.028  10.236 -0.1515  0.4580  0.0605
  102OSM    H4S10308   1.446   2.004  10.229 -0.1192  0.5579  0.2186
  102OSM    C5S10309   1.265   2.024  10.130  0.0179  0.8968 -0.0358
  102OSM    H5S10310   1.157   2.028  10.148  0.2649  1.0114  1.6279
  102OSM    C6S10311   1.312   1.968   9.992 -0.1346 -0.4742  0.4279
  102OSM    H6S10312   1.254   1.878   9.963 -1.2215  0.6352 -0.9778
  102OSM    H6T10313   1.419   1.939  10.003 -0.0237  0.1676  1.1305
  102OSM    C7S10314   1.281   2.075   9.890  1.1906 -0.1353  0.6034
  102OSM    H7S10315   1.333   2.170   9.914 -0.1401  1.6865 -2.9651
  102OSM    H7T10316   1.174   2.102   9.904  1.0507  0.3766 -1.2041
  102OSM    C8S10317   1.290   2.040   9.735  0.3195  0.5855 -0.3494
  102OSM    H8S10318   1.263   1.933   9.723  0.2650  0.6622 -0.9696
  102OSM    H8T10319   1.393   2.052   9.696  0.3644 -0.8041 -0.7037
  102OSM    C9S10320   1.200   2.135   9.650 -0.2553 -0.0490  0.3063
  102OSM    H9S10321   1.231   2.141   9.543  0.5673  0.5659  0.5719
  102OSM    H9T10322   1.208   2.241   9.681 -1.1657  0.5191 -1.2315
  102OSM   C10S10323   1.046   2.105   9.647  0.2080 -0.0206  0.1048
  102OSM   H10S10324   1.006   2.196   9.599 -2.0925 -0.4814  1.0291
  102OSM   H10T10325   1.027   2.102   9.757 -0.4482  0.3151 -0.0014
  102OSM   C11S10326   1.000   1.980   9.574 -0.6213 -0.0781  0.3567
  102OSM   H11S10327   1.024   1.879   9.615 -0.7593  0.4916  1.8967
  102OSM   H11T10328   1.059   1.977   9.479 -0.5926  0.5363  0.3506
  102OSM   C12S10329   0.848   1.991   9.554  0.0422  0.2347  0.2565
  102OSM   H12S10330   0.817   2.074   9.487  1.5659 -1.3311 -2.5898
  102OSM   H12T10331   0.816   1.999   9.660  3.2552  0.7644  1.2668
  102OSM   C13S10332   0.792   1.869   9.471  0.2208 -0.2232 -0.0660
  102OSM   H13S10333   0.684   1.893   9.467  0.1102 -0.3069  1.8716
  102OSM   H13T10334   0.812   1.781   9.536  2.5231  0.1055 -0.2493
  102OSM   C14S10335   0.856   1.862   9.330 -0.1009 -0.1426  0.0912
  102OSM   H14S10336   0.829   1.764   9.285  1.3278 -0.5519  0.0549
  102OSM   H14T10337   0.966   1.853   9.345  0.2147 -1.6770 -2.5199
  102OSM   C15S10338   0.828   1.995   9.254  0.4824  0.4122 -1.1612
  102OSM   H15S10339   0.875   2.088   9.291 -2.5438  1.7765 -0.4210
  102OSM   H15T10340   0.721   2.017   9.277  0.3623 -0.9495 -0.2636
  102OSM   C16S10341   0.828   1.982   9.100 -0.2168  0.2113 -0.2327
  102OSM   H16S10342   0.740   1.918   9.078  0.7174 -1.7847  1.4878
  102OSM   H16T10343   0.920   1.932   9.063 -0.9310 -0.2400 -1.4507
  102OSM   C17S10344   0.815   2.117   9.023 -0.0079  0.0818 -0.2307
  102OSM   H17S10345   0.867   2.195   9.083 -1.0247 -0.1367  0.9802
  102OSM   H17T10346   0.711   2.156   9.025  0.2088  0.7004  2.1619
  102OSM   C18S10347   0.851   2.097   8.875 -0.3732 -0.0230 -0.3564
  102OSM   H18S10348   0.793   2.007   8.846 -0.3244  0.1727 -1.0857
  102OSM   H18T10349   0.958   2.067   8.872 -0.3257 -0.1254  1.4645
  102OSM   H18U10350   0.821   2.181   8.809 -2.6627 -0.5473 -0.0638
  102OSM    C1F10351   1.186   2.405  10.317  0.0618 -0.5970  0.4133
  102OSM     OF10352   1.294   2.464  10.338  0.2049 -0.1825 -0.0107
  102OSM    C2F10353   1.059   2.474  10.263  0.3101 -0.8484  0.1370
  102OSM    H2F10354   1.005   2.528  10.344 -0.1559  0.5699 -1.0758
  102OSM    H2G10355   0.988   2.396  10.226 -0.0149 -0.2750 -0.4574
  102OSM    C3F10356   1.094   2.564  10.149  0.0780 -0.5178  1.1134
  102OSM    H3F10357   1.151   2.655  10.175  2.2677 -1.9455  1.6008
  102OSM    H3G10358   0.991   2.593  10.120  0.7046  2.3797  1.5325
  102OSM    C4F10359   1.161   2.480  10.033 -0.1126 -1.0724  0.4456
  102OSM    H4F10360   1.102   2.389  10.009 -0.6484 -0.8363  0.8717
  102OSM    H4G10361   1.269   2.459  10.051  1.3159  3.0903 -1.8047
  102OSM    C5F10362   1.170   2.549   9.904 -0.3727  0.0374 -0.3358
  102OSM    H5F10363   1.237   2.489   9.839 -0.2667  0.2832 -0.4520
  102OSM    H5G10364   1.197   2.655   9.918 -0.0618 -0.3287  2.5055
  102OSM    C6F10365   1.031   2.539   9.830 -0.5069  0.0902  0.5113
  102OSM    H6F10366   0.939   2.542   9.892 -1.4873  0.8657 -0.9387
  102OSM    H6G10367   1.026   2.435   9.792 -1.9225 -0.5146  2.2276
  102OSM    C7F10368   1.011   2.651   9.726 -0.0824  0.1745  0.1420
  102OSM    H7F10369   1.097   2.655   9.655 -0.5312  1.7987 -0.3592
  102OSM    H7G10370   1.017   2.747   9.783  0.9894  1.4790 -2.0339
  102OSM    C8F10371   0.865   2.656   9.657 -0.4731 -0.2489 -0.5159
  102OSM    H8F10372   0.794   2.617   9.734 -0.0943 -0.5958 -0.3355
  102OSM    H8G10373   0.865   2.576   9.579 -1.4649  1.0055 -1.8444
  102OSM    C9F10374   0.819   2.795   9.614 -0.4858 -0.4376 -0.1538
  102OSM    H9F10375   0.781   2.852   9.700  2.2067  0.9171  0.2271
  102OSM   C10F10376   0.852   2.845   9.495  0.9042 -0.4593 -0.1828
  102OSM   H10F10377   0.819   2.949   9.480  2.1076  0.7587  4.0884
  102OSM   C11F10378   0.937   2.780   9.391  0.2126  0.3652 -0.0481
  102OSM   H11F10379   0.884   2.733   9.305  0.5237 -0.4762  0.2116
  102OSM   H11G10380   0.997   2.699   9.437  1.1279 -0.4608 -2.5139
  102OSM   C12F10381   1.034   2.887   9.324  0.1388  0.2631  0.2997
  102OSM   H12F10382   1.108   2.834   9.261  0.2050  0.8786 -0.1510
  102OSM   H12G10383   1.080   2.949   9.404  2.4187  0.3334 -0.9816
  102OSM   C13F10384   0.956   2.986   9.232 -0.1988 -0.4990  0.6127
  102OSM   H13F10385   0.908   3.062   9.297 -1.8025 -0.2528 -0.7777
  102OSM   H13G10386   0.877   2.935   9.173 -1.8315  2.5032 -0.0024
  102OSM   C14F10387   1.051   3.064   9.136 -0.3120 -0.3221 -0.8951
  102OSM   H14F10388   1.112   2.987   9.083  1.4251  0.2668  0.1418
  102OSM   H14G10389   1.120   3.135   9.187 -2.1872  0.8402  0.1085
  102OSM   C15F10390   0.972   3.137   9.023 -0.2148 -0.2828  0.1741
  102OSM   H15F10391   0.912   3.060   8.970 -1.3265  0.4915  0.2808
  102OSM   H15G10392   1.043   3.179   8.949  0.4134 -0.2220  0.8012
  102OSM   C16F10393   0.891   3.251   9.076  0.6579 -0.7668  0.1455
  102OSM   H16F10394   0.947   3.331   9.130 -0.5673  0.4832 -0.3645
  102OSM   H16G10395   0.824   3.208   9.153  0.7304 -1.3182 -0.0963
  102OSM   C17F10396   0.799   3.313   8.968 -0.1480 -0.2163  0.0621
  102OSM   H17F10397   0.724   3.379   9.018 -0.4317 -0.0917 -0.5194
  102OSM   H17G10398   0.750   3.235   8.906  0.9254  0.5165 -1.7927
  102OSM   C18F10399   0.865   3.401   8.860 -0.0838 -0.3363 -0.1711
  102OSM   H18F10400   0.910   3.487   8.915 -1.0383  0.7143 -0.9898
  102OSM   H18G10401   0.791   3.433   8.784  1.4582  0.1570 -1.5194
  102OSM   H18H10402   0.940   3.345   8.800  1.2581 -0.5298  1.5996
  103OSM      N10403   4.382   5.673  11.040 -0.1860 -0.7048  0.0136
  103OSM    C1510404   4.300   5.645  11.166 -0.3452 -1.0834  0.1005
  103OSM   H15A10405   4.305   5.722  11.241  0.4661 -2.4072  1.4859
  103OSM   H15B10406   4.333   5.549  11.205 -0.1660 -1.1462 -0.2044
  103OSM   H15C10407   4.195   5.646  11.143 -0.1539 -0.2329 -0.7849
  103OSM    C1410408   4.344   5.805  10.982 -0.3807 -0.0113 -0.1698
  103OSM   H14A10409   4.238   5.816  10.967 -0.7003  0.3549  2.0410
  103OSM   H14B10410   4.391   5.821  10.886  0.1036 -1.9972 -0.3208
  103OSM   H14C10411   4.364   5.883  11.053  0.5499 -0.6399  0.2797
  103OSM    C1310412   4.519   5.692  11.094 -0.8062  0.0627 -0.2306
  103OSM   H13A10413   4.521   5.774  11.164  2.5729  1.2435 -1.5207
  103OSM   H13B10414   4.586   5.730  11.018 -2.6935  1.6115 -1.1992
  103OSM   H13C10415   4.567   5.598  11.118 -0.5776  0.2683  0.1045
  103OSM    C1210416   4.378   5.555  10.945 -0.2103 -0.3753  0.3570
  103OSM   H12A10417   4.415   5.466  10.994 -0.3032 -0.8018 -0.3455
  103OSM   H12B10418   4.445   5.593  10.870  0.3846  1.1754  1.6090
  103OSM    C1110419   4.232   5.513  10.891 -0.4465  0.2656  0.2463
  103OSM   H11A10420   4.264   5.437  10.816 -0.9384  0.6516 -0.3649
  103OSM   H11B10421   4.188   5.603  10.843  0.6881  0.3762 -0.6444
  103OSM      P10422   4.159   5.316  11.043  0.1076  0.1638 -0.2471
  103OSM    O1310423   4.305   5.277  11.068  0.1799 -0.1075 -0.4713
  103OSM    O1410424   4.061   5.291  11.155 -0.0509  1.0206  0.9840
  103OSM    O1110425   4.116   5.246  10.913  0.3687  0.1512  0.4290
  103OSM    O1210426   4.154   5.472  11.003 -0.3745 -0.4266  0.0233
  103OSM    C1S10427   3.972   5.247  10.872 -0.5082  0.6061 -0.4778
  103OSM    H1S10428   3.928   5.349  10.884  0.1231  0.7367  0.8863
  103OSM    H1T10429   3.925   5.178  10.945 -0.4449  0.4020 -0.6313
  103OSM     NF10430   3.798   5.220  10.698 -0.2850 -0.1446  0.6284
  103OSM    HNF10431   3.739   5.140  10.697 -0.1913 -0.2488 -1.4909
  103OSM    C2S10432   3.937   5.197  10.729  0.1145 -0.9806  0.6540
  103OSM    H2S10433   4.001   5.253  10.657 -1.6277  0.2329 -0.0068
  103OSM    C3S10434   3.980   5.044  10.713 -0.2915 -0.7622 -0.3270
  103OSM    H3S10435   3.903   4.980  10.761 -0.4253 -0.3994 -0.0464
  103OSM     O310436   4.105   5.013  10.773  0.4146  0.0062  0.0058
  103OSM    HO310437   4.114   5.089  10.832  0.9346  3.5209 -4.0952
  103OSM    C4S10438   3.982   5.010  10.567 -0.5508  0.2761  0.4044
  103OSM    H4S10439   4.068   5.060  10.520 -2.2757  3.0677  0.0201
  103OSM    C5S10440   3.913   4.914  10.503 -0.5923  0.3061  0.9279
  103OSM    H5S10441   3.837   4.861  10.562 -0.9198 -0.9091 -0.5290
  103OSM    C6S10442   3.951   4.869  10.363  0.3509  0.2579 -0.0932
  103OSM    H6S10443   4.032   4.929  10.318 -0.3451 -0.8393 -3.0120
  103OSM    H6T10444   3.867   4.894  10.294 -0.3418 -1.3577  0.1151
  103OSM    C7S10445   3.949   4.717  10.337 -0.2332  0.4545  0.2417
  103OSM    H7S10446   3.850   4.667  10.347 -0.3162  0.4069 -0.7495
  103OSM    H7T10447   4.007   4.657  10.411 -0.4639 -0.1131 -0.0304
  103OSM    C8S10448   4.006   4.669  10.200 -0.0487 -0.1087 -0.3018
  103OSM    H8S10449   4.023   4.560  10.209 -2.0124 -0.3457  1.3277
  103OSM    H8T10450   4.091   4.736  10.177 -0.8704  1.7834  1.8365
  103OSM    C9S10451   3.898   4.678  10.088 -0.9749 -0.4356  0.2489
  103OSM    H9S10452   3.851   4.779  10.085 -1.8970 -0.8487 -2.8353
  103OSM    H9T10453   3.818   4.605  10.113 -1.4837 -0.3145 -0.9483
  103OSM   C10S10454   3.957   4.639   9.949 -0.2358 -0.3560 -0.9448
  103OSM   H10S10455   3.961   4.528   9.944 -1.9141 -0.8071  3.5073
  103OSM   H10T10456   4.056   4.690   9.943 -0.2243  0.0937  1.7509
  103OSM   C11S10457   3.865   4.685   9.831 -0.5543  0.7533  0.1103
  103OSM   H11S10458   3.860   4.796   9.830  1.4395  0.9099  1.1730
  103OSM   H11T10459   3.767   4.637   9.852 -0.4734  0.7862  0.5631
  103OSM   C12S10460   3.918   4.651   9.695 -0.0855 -0.3087 -0.8395
  103OSM   H12S10461   3.953   4.546   9.688  3.0514  0.5121  0.5719
  103OSM   H12T10462   4.013   4.707   9.679  0.3533 -0.1847  1.7447
  103OSM   C13S10463   3.810   4.682   9.583 -0.6724 -0.4890 -0.5173
  103OSM   H13S10464   3.768   4.784   9.597 -1.5139 -0.8952 -0.0079
  103OSM   H13T10465   3.726   4.611   9.599 -1.4256  0.4889  0.0351
  103OSM   C14S10466   3.869   4.674   9.441  0.2114 -0.4671 -0.2552
  103OSM   H14S10467   3.905   4.570   9.427 -1.8378 -1.1659 -0.7673
  103OSM   H14T10468   3.948   4.749   9.423  1.1577 -1.5033 -0.5136
  103OSM   C15S10469   3.754   4.716   9.347 -0.7209  0.2744  0.0619
  103OSM   H15S10470   3.707   4.816   9.362  1.3401  1.3280 -0.1111
  103OSM   H15T10471   3.672   4.645   9.371  1.0568 -1.6614  0.7206
  103OSM   C16S10472   3.789   4.722   9.200  0.4441  1.0083 -0.2303
  103OSM   H16S10473   3.820   4.625   9.155 -1.1094  0.2993  0.1578
  103OSM   H16T10474   3.867   4.799   9.182  1.6882  0.0925  1.0225
  103OSM   C17S10475   3.666   4.755   9.117 -0.2865 -0.1049  0.4133
  103OSM   H17S10476   3.629   4.853   9.154  0.6694  1.1232 -1.6416
  103OSM   H17T10477   3.578   4.688   9.123 -1.2024  1.0957  0.7389
  103OSM   C18S10478   3.693   4.783   8.972 -0.8011  0.4626 -0.4150
  103OSM   H18S10479   3.732   4.687   8.931 -1.4395 -0.5764  1.3113
  103OSM   H18T10480   3.762   4.870   8.966  0.2828 -0.0447  2.8246
  103OSM   H18U10481   3.597   4.806   8.921 -1.1953 -2.9169 -1.4088
  103OSM    C1F10482   3.748   5.336  10.670  0.4818  0.3851 -0.4604
  103OSM     OF10483   3.819   5.434  10.679 -0.2735 -0.2969  0.2304
  103OSM    C2F10484   3.607   5.344  10.621 -0.9186 -0.2464 -0.9138
  103OSM    H2F10485   3.590   5.450  10.594  0.9806  0.1431 -0.6913
  103OSM    H2G10486   3.530   5.322  10.698  1.0420 -0.0851  1.1995
  103OSM    C3F10487   3.569   5.263  10.493  0.3870 -0.3428 -0.7118
  103OSM    H3F10488   3.464   5.296  10.478 -0.0131  0.7400  3.3303
  103OSM    H3G10489   3.567   5.156  10.523  0.5595 -0.4573 -1.1056
  103OSM    C4F10490   3.661   5.296  10.371  0.1450 -0.4309  0.1773
  103OSM    H4F10491   3.765   5.259  10.387 -0.1980 -1.8600 -0.7689
  103OSM    H4G10492   3.671   5.406  10.359  3.3179 -0.7988 -1.7999
  103OSM    C5F10493   3.608   5.229  10.242 -0.0838 -0.3845  0.3529
  103OSM    H5F10494   3.685   5.247  10.164 -0.3001 -0.3624  0.1446
  103OSM    H5G10495   3.507   5.260  10.208 -0.2219 -2.2546 -1.1190
  103OSM    C6F10496   3.588   5.076  10.277  0.3087 -0.2094  0.1218
  103OSM    H6F10497   3.489   5.066  10.325 -0.2051 -1.0597 -1.0469
  103OSM    H6G10498   3.658   5.047  10.358  1.3983  1.2124 -0.2623
  103OSM    C7F10499   3.622   4.990  10.156  0.1553  0.0892  0.1651
  103OSM    H7F10500   3.604   4.882  10.173 -2.0063  0.5420  1.1419
  103OSM    H7G10501   3.727   5.011  10.126  0.6572 -0.5415  1.4105
  103OSM    C8F10502   3.524   5.021  10.041  0.2380  0.5129  0.4129
  103OSM    H8F10503   3.569   5.120  10.017  1.9741 -0.3345 -0.0157
  103OSM    H8G10504   3.424   5.035  10.086 -0.7484  0.5103 -1.6639
  103OSM    C9F10505   3.507   4.918   9.930  0.3003 -0.0991  0.3912
  103OSM    H9F10506   3.465   4.824   9.969 -1.0290  0.7782  1.1782
  103OSM   C10F10507   3.539   4.924   9.803  0.0399 -0.0953  0.0409
  103OSM   H10F10508   3.513   4.842   9.734 -0.1972 -0.5290  0.6345
  103OSM   C11F10509   3.606   5.045   9.735 -0.7081  0.0276  0.7336
  103OSM   H11F10510   3.675   5.009   9.656  1.0536  1.0188  1.7541
  103OSM   H11G10511   3.675   5.098   9.803  1.5480 -0.5087 -1.0318
  103OSM   C12F10512   3.501   5.135   9.677 -0.4303 -0.1959  0.6161
  103OSM   H12F10513   3.554   5.219   9.628  0.7190 -0.2637  1.6875
  103OSM   H12G10514   3.437   5.189   9.750 -1.1577  2.3733 -1.7574
  103OSM   C13F10515   3.410   5.073   9.560 -0.3171  0.4570 -0.8203
  103OSM   H13F10516   3.352   4.984   9.594  2.1160 -0.6873  0.6236
  103OSM   H13G10517   3.341   5.152   9.525 -2.1559 -1.0276 -0.7342
  103OSM   C14F10518   3.490   5.049   9.434  0.2887 -0.6320 -0.3785
  103OSM   H14F10519   3.427   4.977   9.378 -0.3987 -1.5649  1.4953
  103OSM   H14G10520   3.584   5.000   9.465  1.1620  2.2018  1.9518
  103OSM   C15F10521   3.522   5.180   9.361 -0.1058  0.1221  0.0079
  103OSM   H15F10522   3.605   5.234   9.411  0.1682 -0.5585  0.2981
  103OSM   H15G10523   3.443   5.258   9.359  1.3229  1.6030 -0.2396
  103OSM   C16F10524   3.570   5.149   9.217  0.2030 -0.3095  0.6440
  103OSM   H16F10525   3.493   5.091   9.162 -0.3458  0.9549  0.0386
  103OSM   H16G10526   3.669   5.101   9.204  1.1432  1.7076  0.0820
  103OSM   C17F10527   3.600   5.284   9.151  0.2979 -0.3037 -0.3037
  103OSM   H17F10528   3.676   5.333   9.217  1.3050 -2.2791  0.0570
  103OSM   H17G10529   3.504   5.341   9.161 -0.5974 -1.5283 -1.5783
  103OSM   C18F10530   3.641   5.274   9.004  0.1201  0.2869 -0.0068
  103OSM   H18F10531   3.749   5.250   9.008 -0.1469 -1.6162 -2.1542
  103OSM   H18G10532   3.628   5.372   8.953 -2.8959 -0.1223 -0.1883
  103OSM   H18H10533   3.601   5.194   8.938  1.4128  0.7979 -1.4736
  104OSM      N10534   6.664   4.708  10.801 -0.0518 -0.0351  0.2590
  104OSM    C1510535   6.513   4.720  10.829  0.1173 -0.0250  0.1647
  104OSM   H15A10536   6.490   4.798  10.901 -0.8461 -0.4730  0.3613
  104OSM   H15B10537   6.477   4.625  10.865  0.5019 -0.6616 -1.0997
  104OSM   H15C10538   6.454   4.746  10.742 -2.5058 -2.0403  1.1746
  104OSM    C1410539   6.692   4.643  10.667  0.0114 -0.5805  0.1392
  104OSM   H14A10540   6.623   4.560  10.658  2.3724 -2.4706 -2.1554
  104OSM   H14B10541   6.789   4.595  10.664  0.0346 -0.4868 -0.9557
  104OSM   H14C10542   6.670   4.703  10.580  0.6024 -1.4261 -0.6094
  104OSM    C1310543   6.719   4.848  10.785  0.2841 -0.5075  0.1142
  104OSM   H13A10544   6.702   4.910  10.872  0.3621 -0.2148 -0.0768
  104OSM   H13B10545   6.666   4.897  10.705 -0.0284  1.7883  1.6249
  104OSM   H13C10546   6.825   4.848  10.765  0.6132 -0.5435  1.7270
  104OSM    C1210547   6.737   4.631  10.912 -0.0111 -0.2881  0.3005
  104OSM   H12A10548   6.709   4.527  10.911  0.5321 -0.4554  1.3369
  104OSM   H12B10549   6.695   4.661  11.007 -0.7126 -0.8069  0.1595
  104OSM    C1110550   6.889   4.637  10.911  0.3157 -0.1527 -0.6715
  104OSM   H11A10551   6.923   4.592  11.007 -1.7150  1.7089  1.0253
  104OSM   H11B10552   6.905   4.747  10.919  0.5571 -0.3202  2.7137
  104OSM      P10553   7.048   4.477  10.804 -0.6480 -0.1542 -0.3211
  104OSM    O1310554   7.154   4.516  10.901  0.5062  0.2842  0.3073
  104OSM    O1410555   6.984   4.346  10.825  0.2608  0.3942  0.5311
  104OSM    O1110556   7.112   4.468  10.656 -0.7239 -0.3463  0.3859
  104OSM    O1210557   6.949   4.596  10.789 -0.5751  0.6281  0.6629
  104OSM    C1S10558   7.119   4.579  10.567  0.5401 -0.6698  1.4120
  104OSM    H1S10559   7.179   4.665  10.605  1.8251 -1.2421  0.7185
  104OSM    H1T10560   7.017   4.622  10.556  0.5202 -0.6927  1.5063
  104OSM     NF10561   7.237   4.664  10.354 -0.1726  0.0247  0.3771
  104OSM    HNF10562   7.186   4.685  10.271  1.4330 -1.1765 -0.9729
  104OSM    C2S10563   7.182   4.544  10.428 -0.0348  0.3091  0.7338
  104OSM    H2S10564   7.269   4.477  10.446  0.1822  0.0056 -1.2670
  104OSM    C3S10565   7.075   4.462  10.348  0.1101  0.2897 -0.2240
  104OSM    H3S10566   7.005   4.539  10.309 -1.0829 -1.4136 -1.5882
  104OSM     O310567   6.996   4.372  10.426  0.2304  0.2453 -0.1684
  104OSM    HO310568   7.019   4.378  10.519 -1.0976 -3.0112  0.5281
  104OSM    C4S10569   7.130   4.408  10.222  0.1013  0.5831 -0.2720
  104OSM    H4S10570   7.108   4.469  10.132 -0.2355 -1.0217 -1.3156
  104OSM    C5S10571   7.192   4.287  10.201 -0.5273 -0.1239 -0.0657
  104OSM    H5S10572   7.216   4.224  10.288 -0.2236 -0.1578 -0.1735
  104OSM    C6S10573   7.244   4.239  10.067 -0.1311  0.4179  0.1335
  104OSM    H6S10574   7.182   4.151  10.040  1.3342 -0.2265 -1.3380
  104OSM    H6T10575   7.345   4.198  10.089 -1.1979 -2.0976  0.7162
  104OSM    C7S10576   7.240   4.335   9.944  0.8679  0.7271 -0.1425
  104OSM    H7S10577   7.288   4.431   9.972  1.2630  0.2676  0.8199
  104OSM    H7T10578   7.133   4.361   9.931  0.8767  1.9134  1.7389
  104OSM    C8S10579   7.299   4.279   9.815  0.0413  0.0859 -0.5733
  104OSM    H8S10580   7.265   4.174   9.800  1.1153 -0.1712 -1.2923
  104OSM    H8T10581   7.404   4.255   9.842 -0.7172 -0.3127  2.4590
  104OSM    C9S10582   7.288   4.357   9.684  0.0903 -0.5831  0.0706
  104OSM    H9S10583   7.322   4.457   9.718 -1.1658 -1.0788  3.0817
  104OSM    H9T10584   7.183   4.370   9.652  0.2080  0.7776  0.1513
  104OSM   C10S10585   7.377   4.297   9.575 -0.3773  0.5643 -0.7503
  104OSM   H10S10586   7.331   4.202   9.541 -1.9244  0.2987  1.8017
  104OSM   H10T10587   7.481   4.293   9.616 -0.9530  2.5181  1.0787
  104OSM   C11S10588   7.386   4.386   9.450 -0.2534  0.0714 -0.4450
  104OSM   H11S10589   7.448   4.469   9.488  0.0799 -0.9091  1.2599
  104OSM   H11T10590   7.285   4.433   9.445 -0.5260 -0.6534 -2.7729
  104OSM   C12S10591   7.455   4.332   9.328 -0.0549  0.5701  0.5802
  104OSM   H12S10592   7.408   4.235   9.300  0.4653  0.3889  0.3245
  104OSM   H12T10593   7.558   4.306   9.358 -0.8526 -1.3370  1.9148
  104OSM   C13S10594   7.459   4.425   9.202  0.5913  0.0427  1.0465
  104OSM   H13S10595   7.490   4.529   9.229  0.5254  0.0580  1.0622
  104OSM   H13T10596   7.352   4.426   9.174  0.1553 -1.2821  2.5256
  104OSM   C14S10597   7.542   4.356   9.089 -0.3289  0.4875 -0.0851
  104OSM   H14S10598   7.490   4.260   9.067 -0.4515  0.5786 -0.1943
  104OSM   H14T10599   7.643   4.331   9.127 -0.8366  0.7971  1.5663
  104OSM   C15S10600   7.561   4.441   8.962  0.9695 -1.0589  0.2591
  104OSM   H15S10601   7.636   4.397   8.892 -1.1175  0.8471 -3.4819
  104OSM   H15T10602   7.597   4.542   8.993  0.1552  0.0401 -2.1199
  104OSM   C16S10603   7.431   4.456   8.883  0.3140  0.1921  0.2180
  104OSM   H16S10604   7.360   4.496   8.958  0.2969 -1.0989  0.9144
  104OSM   H16T10605   7.406   4.354   8.846 -2.1051  1.6455 -2.5327
  104OSM   C17S10606   7.434   4.552   8.760  0.1558 -0.2466 -0.3969
  104OSM   H17S10607   7.474   4.497   8.672 -0.9189 -2.2506  0.3225
  104OSM   H17T10608   7.498   4.637   8.792 -0.1994  0.6519 -1.9756
  104OSM   C18S10609   7.301   4.622   8.731  0.1996  0.2553 -0.6601
  104OSM   H18S10610   7.226   4.548   8.696 -0.8984  0.6558  0.7931
  104OSM   H18T10611   7.313   4.692   8.645 -1.3865 -0.8809 -1.8885
  104OSM   H18U10612   7.261   4.673   8.821  0.1188 -1.2489  0.1868
  104OSM    C1F10613   7.326   4.739  10.412  0.2206  0.0982 -0.1913
  104OSM     OF10614   7.390   4.705  10.510 -0.8033  0.1363 -0.5401
  104OSM    C2F10615   7.359   4.867  10.336 -0.8184 -0.1127 -0.0192
  104OSM    H2F10616   7.391   4.937  10.416  1.4970  0.3124 -1.2255
  104OSM    H2G10617   7.265   4.901  10.288 -0.1454 -0.7852 -1.8826
  104OSM    C3F10618   7.471   4.829  10.236  0.4632  0.2380 -0.1235
  104OSM    H3F10619   7.429   4.765  10.156 -0.6369 -0.8697  1.2767
  104OSM    H3G10620   7.558   4.781  10.286 -0.5207  1.2133  2.7427
  104OSM    C4F10621   7.532   4.945  10.158  0.6429 -0.2033  0.2649
  104OSM    H4F10622   7.598   4.909  10.076 -0.7668 -1.4111 -0.3846
  104OSM    H4G10623   7.581   5.021  10.223 -0.5291 -0.0195  0.9772
  104OSM    C5F10624   7.415   5.025  10.083  0.4617 -0.2696 -0.1934
  104OSM    H5F10625   7.334   5.062  10.149 -1.0138  3.2624 -3.5571
  104OSM    H5G10626   7.376   4.950  10.012  1.3458 -2.5883  1.6584
  104OSM    C6F10627   7.482   5.147  10.014 -0.0076  0.1835 -0.0540
  104OSM    H6F10628   7.555   5.110   9.939 -0.4572 -1.0238  0.0870
  104OSM    H6G10629   7.524   5.208  10.096 -3.6958  1.4469  1.1143
  104OSM    C7F10630   7.390   5.236   9.929  0.2986 -0.2445  0.3295
  104OSM    H7F10631   7.450   5.328   9.914  2.7846 -1.8628 -0.3299
  104OSM    H7G10632   7.308   5.270   9.996 -0.9396 -0.4300 -1.0413
  104OSM    C8F10633   7.344   5.177   9.799 -0.4948 -0.2915  0.0573
  104OSM    H8F10634   7.291   5.082   9.821  1.6443 -1.9813 -1.5304
  104OSM    H8G10635   7.435   5.157   9.737  0.7592  1.8119  1.1138
  104OSM    C9F10636   7.244   5.265   9.724  0.4259  0.0380 -0.6518
  104OSM    H9F10637   7.147   5.283   9.772  0.2111 -1.6433 -0.3788
  104OSM   C10F10638   7.264   5.336   9.612 -0.4298  0.3085  0.1457
  104OSM   H10F10639   7.178   5.392   9.574  1.1274  0.6102 -3.2352
  104OSM   C11F10640   7.390   5.352   9.524 -0.5856 -0.0928 -0.4862
  104OSM   H11F10641   7.471   5.287   9.563 -0.7554  0.8255  1.5548
  104OSM   H11G10642   7.431   5.455   9.514 -0.4272 -0.0828  0.1768
  104OSM   C12F10643   7.368   5.308   9.381 -0.0860 -0.1364  0.1283
  104OSM   H12F10644   7.332   5.203   9.382 -0.3670 -0.0364  1.1253
  104OSM   H12G10645   7.466   5.308   9.330 -0.1898  0.6285 -0.0900
  104OSM   C13F10646   7.282   5.401   9.293  0.6100  0.0412  0.2505
  104OSM   H13F10647   7.333   5.499   9.286  0.2282  0.2638  0.5254
  104OSM   H13G10648   7.179   5.414   9.333  0.0975  1.7845 -1.5278
  104OSM   C14F10649   7.257   5.332   9.157 -0.1097 -0.5029 -0.1186
  104OSM   H14F10650   7.230   5.226   9.176 -0.1097 -0.4256  0.3488
  104OSM   H14G10651   7.352   5.335   9.099  0.4032  1.2862  0.7302
  104OSM   C15F10652   7.149   5.391   9.064  0.5251  0.3840 -0.6515
  104OSM   H15F10653   7.168   5.500   9.052  3.9118 -0.0547 -0.2874
  104OSM   H15G10654   7.054   5.381   9.120  0.7819  2.7386  0.3181
  104OSM   C16F10655   7.141   5.318   8.932 -0.6460 -0.6318  0.2269
  104OSM   H16F10656   7.096   5.218   8.950 -1.7950 -0.3721 -0.9943
  104OSM   H16G10657   7.245   5.303   8.899  0.1349 -0.2377  2.3477
  104OSM   C17F10658   7.055   5.388   8.832 -1.1927 -0.1828 -0.3771
  104OSM   H17F10659   6.966   5.430   8.885 -0.9871 -1.0295  0.6629
  104OSM   H17G10660   7.014   5.303   8.774 -1.0990 -0.2297 -0.3736
  104OSM   C18F10661   7.124   5.491   8.745  0.1911 -0.0058  0.3482
  104OSM   H18F10662   7.179   5.558   8.814  0.3455  0.2973 -0.0614
  104OSM   H18G10663   7.050   5.548   8.683 -0.5947 -1.5863 -0.2338
  104OSM   H18H10664   7.189   5.442   8.669 -0.8805 -0.2447 -0.4455
  105OSM      N10665   6.083   4.321  10.675  0.0396  0.2797  0.2572
  105OSM    C1510666   6.029   4.249  10.553 -0.4863 -0.1035 -0.0741
  105OSM   H15A10667   5.976   4.160  10.582  0.1789 -0.4652  0.0428
  105OSM   H15B10668   6.106   4.227  10.481  1.1724  0.8669  1.3414
  105OSM   H15C10669   5.965   4.320  10.502 -0.3492  0.9958  1.2444
  105OSM    C1410670   5.969   4.397  10.741 -0.5597 -0.0698 -0.0807
  105OSM   H14A10671   5.922   4.468  10.675  0.6220 -0.8414 -1.8132
  105OSM   H14B10672   6.000   4.454  10.828  0.8118 -0.5589 -0.2239
  105OSM   H14C10673   5.888   4.335  10.776 -1.5501  1.7551  1.0827
  105OSM    C1310674   6.136   4.218  10.772 -0.6221 -0.5253 -0.5032
  105OSM   H13A10675   6.183   4.259  10.860  0.0035  0.7847 -1.4123
  105OSM   H13B10676   6.202   4.146  10.727 -0.3517 -0.7920  0.3000
  105OSM   H13C10677   6.052   4.170  10.819 -0.2802 -0.0294  0.6473
  105OSM    C1210678   6.185   4.423  10.618 -0.7928  0.1703 -0.7907
  105OSM   H12A10679   6.122   4.498  10.572 -0.5378  1.0991  0.3168
  105OSM   H12B10680   6.247   4.373  10.546 -0.6335  0.2424 -0.7041
  105OSM    C1110681   6.276   4.488  10.720  0.4112 -0.4167 -0.6772
  105OSM   H11A10682   6.228   4.574  10.770  1.0612  0.1377 -0.9903
  105OSM   H11B10683   6.361   4.534  10.664 -0.1270  0.4155 -0.8296
  105OSM      P10684   6.469   4.313  10.803 -0.3203 -0.5251  0.2588
  105OSM    O1310685   6.580   4.376  10.878  0.8230  0.1274 -0.4375
  105OSM    O1410686   6.429   4.171  10.843 -0.4817  0.0845 -0.1140
  105OSM    O1110687   6.505   4.309  10.647 -0.0334 -0.1194  0.1088
  105OSM    O1210688   6.341   4.402  10.819  0.5184 -0.2956  0.3247
  105OSM    C1S10689   6.628   4.250  10.605  0.9405 -0.5154  0.1321
  105OSM    H1S10690   6.623   4.143  10.634 -0.5587 -1.1501 -2.1968
  105OSM    H1T10691   6.714   4.293  10.661 -2.1621  1.6366  3.7538
  105OSM     NF10692   6.754   4.197  10.411  0.3383  0.2792  0.4229
  105OSM    HNF10693   6.829   4.262  10.410 -0.1483  0.8473  0.3646
  105OSM    C2S10694   6.630   4.252  10.449 -1.0363  0.2594  0.1617
  105OSM    H2S10695   6.545   4.187  10.419 -1.5800 -0.4031  2.8134
  105OSM    C3S10696   6.604   4.392  10.392 -0.6293 -0.2566 -0.0490
  105OSM    H3S10697   6.694   4.448  10.425 -0.2151 -0.7598 -0.3203
  105OSM     O310698   6.497   4.465  10.449 -0.3602 -0.1034  0.1494
  105OSM    HO310699   6.475   4.402  10.518 -2.1484 -0.8974 -1.0795
  105OSM    C4S10700   6.588   4.403  10.243  0.0804  0.1844 -0.3404
  105OSM    H4S10701   6.489   4.370  10.206 -1.9316 -1.2251  5.3441
  105OSM    C5S10702   6.681   4.459  10.167 -0.4230  0.3126 -0.3829
  105OSM    H5S10703   6.770   4.500  10.217  0.0189 -1.8586  0.7270
  105OSM    C6S10704   6.661   4.478  10.015 -0.0208  0.7527 -0.2885
  105OSM    H6S10705   6.701   4.571   9.970  0.6097  0.8201  0.3942
  105OSM    H6T10706   6.553   4.474   9.993  0.1696 -0.2530 -1.1064
  105OSM    C7S10707   6.725   4.369   9.928  0.2272  0.4185  1.0164
  105OSM    H7S10708   6.696   4.268   9.963  0.5506 -0.6698 -1.6138
  105OSM    H7T10709   6.836   4.372   9.925  0.2453  1.5160 -2.9777
  105OSM    C8S10710   6.671   4.357   9.787  0.4563  0.0695 -0.2719
  105OSM    H8S10711   6.700   4.444   9.724 -3.9422  0.7090 -1.7391
  105OSM    H8T10712   6.560   4.356   9.788  0.4279  0.4309  2.2341
  105OSM    C9S10713   6.712   4.223   9.711  0.4233 -1.0983 -0.3583
  105OSM    H9S10714   6.694   4.144   9.787 -0.9256  0.2545  0.7782
  105OSM    H9T10715   6.820   4.226   9.684  0.6458  0.3452  0.5619
  105OSM   C10S10716   6.627   4.203   9.585 -0.2632 -0.2219  0.4069
  105OSM   H10S10717   6.518   4.203   9.609 -0.4580  1.1471 -0.3717
  105OSM   H10T10718   6.650   4.107   9.534  0.3415  0.2836 -0.2845
  105OSM   C11S10719   6.644   4.317   9.478  0.2256 -0.5629  0.0968
  105OSM   H11S10720   6.745   4.350   9.445  0.1954  0.3646  0.8862
  105OSM   H11T10721   6.600   4.410   9.520  1.9360  1.5411 -2.4303
  105OSM   C12S10722   6.556   4.270   9.352 -0.8463 -0.3707  0.1046
  105OSM   H12S10723   6.459   4.226   9.383  0.3995 -1.1028  3.3313
  105OSM   H12T10724   6.603   4.180   9.306 -0.8841 -0.1083 -0.4566
  105OSM   C13S10725   6.553   4.375   9.247  0.1435  0.1871  0.0267
  105OSM   H13S10726   6.657   4.395   9.213  0.4874 -1.0556  0.2886
  105OSM   H13T10727   6.508   4.469   9.287  0.8733  0.5281  0.0524
  105OSM   C14S10728   6.483   4.332   9.121  0.5544 -0.0044  0.3384
  105OSM   H14S10729   6.375   4.353   9.135  0.6810  1.2072 -0.3635
  105OSM   H14T10730   6.502   4.223   9.108 -1.4911 -0.2995 -0.6075
  105OSM   C15S10731   6.548   4.397   8.996  0.0015  0.2593  0.3667
  105OSM   H15S10732   6.507   4.336   8.912 -1.9824  2.9276 -0.7307
  105OSM   H15T10733   6.658   4.381   8.992  0.3308  2.4422 -1.3285
  105OSM   C16S10734   6.506   4.541   8.960 -0.2364  0.2184  0.7426
  105OSM   H16S10735   6.533   4.600   9.050  1.8965 -1.2922  1.1805
  105OSM   H16T10736   6.399   4.540   8.931 -0.6523  1.3533  2.1592
  105OSM   C17S10737   6.582   4.600   8.838 -0.2102 -0.5986 -0.5320
  105OSM   H17S10738   6.687   4.621   8.869  0.4875 -1.1731 -2.4210
  105OSM   H17T10739   6.541   4.700   8.815  1.0805  0.1912  0.4304
  105OSM   C18S10740   6.591   4.513   8.715  0.5164  0.3852  0.0026
  105OSM   H18S10741   6.488   4.480   8.690  0.9917 -0.8573 -0.4060
  105OSM   H18T10742   6.635   4.413   8.736  4.5213  2.1746  1.0189
  105OSM   H18U10743   6.637   4.559   8.625  0.4101 -2.0991 -1.4233
  105OSM    C1F10744   6.766   4.062  10.411 -1.1577 -0.1758  0.2220
  105OSM     OF10745   6.671   3.989  10.450  0.0581 -0.3884  0.2775
  105OSM    C2F10746   6.901   4.001  10.370  0.0760  0.2056  0.1066
  105OSM    H2F10747   6.955   3.974  10.463 -0.7225 -1.8775 -0.0015
  105OSM    H2G10748   6.965   4.085  10.332  1.2977 -0.6177  0.2895
  105OSM    C3F10749   6.894   3.875  10.295 -0.0979 -0.0313 -0.0139
  105OSM    H3F10750   6.816   3.815  10.346 -0.0704 -0.0897 -0.0414
  105OSM    H3G10751   6.994   3.826  10.298 -0.4178 -0.8724 -1.9362
  105OSM    C4F10752   6.850   3.882  10.147  0.0464  0.2728  0.3739
  105OSM    H4F10753   6.750   3.927  10.131  0.4589  0.7004 -1.1611
  105OSM    H4G10754   6.842   3.780  10.104  1.3603  1.3308 -2.6554
  105OSM    C5F10755   6.958   3.960  10.057  0.2050  0.0907  0.8647
  105OSM    H5F10756   7.058   3.911  10.058  0.2857 -0.0997 -2.7568
  105OSM    H5G10757   6.965   4.065  10.093  2.4238 -0.5573  2.5269
  105OSM    C6F10758   6.917   3.942   9.908 -0.1738 -0.7121  0.1481
  105OSM    H6F10759   6.811   3.973   9.900 -0.8016 -1.6784  3.3440
  105OSM    H6G10760   6.910   3.836   9.878  1.1442 -0.7605 -0.0671
  105OSM    C7F10761   7.020   4.010   9.816 -0.0853  0.0047  0.3402
  105OSM    H7F10762   7.122   3.978   9.849  0.4342  0.4650 -0.7696
  105OSM    H7G10763   7.025   4.121   9.806 -0.6470 -0.1382 -2.1434
  105OSM    C8F10764   6.999   3.968   9.677 -0.0977  0.0048  0.0674
  105OSM    H8F10765   6.899   4.009   9.651  0.1695  1.1778  0.7937
  105OSM    H8G10766   6.995   3.857   9.674 -0.2438 -0.0693  1.9964
  105OSM    C9F10767   7.087   4.041   9.580  0.2370 -0.7200  0.4501
  105OSM    H9F10768   7.192   4.037   9.614  0.8932 -1.8905 -1.4981
  105OSM   C10F10769   7.069   4.111   9.463  0.5143  0.2401  0.0778
  105OSM   H10F10770   7.156   4.163   9.420  0.8370 -0.5003 -0.1913
  105OSM   C11F10771   6.939   4.147   9.396  0.3805  0.1901 -0.4323
  105OSM   H11F10772   6.922   4.257   9.404 -1.5869 -0.1697  1.0430
  105OSM   H11G10773   6.856   4.101   9.454 -1.0748  2.4495 -0.5824
  105OSM   C12F10774   6.945   4.107   9.251 -0.4051  0.2021  1.0881
  105OSM   H12F10775   6.837   4.113   9.225 -0.4763 -1.4573  0.9199
  105OSM   H12G10776   6.987   4.007   9.228  1.3910  0.7972  1.6760
  105OSM   C13F10777   6.999   4.221   9.157 -0.1942  0.2124 -0.1075
  105OSM   H13F10778   7.089   4.263   9.208 -0.5239  0.4915  0.2419
  105OSM   H13G10779   6.915   4.293   9.152 -1.7553 -1.5897 -2.3148
  105OSM   C14F10780   7.037   4.182   9.008 -0.2302  0.3742 -0.3001
  105OSM   H14F10781   7.026   4.280   8.955  1.8232  0.7016 -0.2082
  105OSM   H14G10782   6.962   4.110   8.971  0.9554 -0.8818 -0.3392
  105OSM   C15F10783   7.175   4.131   8.992 -1.4163 -0.0219  0.1016
  105OSM   H15F10784   7.180   4.037   9.050  0.2429 -0.2622 -0.3872
  105OSM   H15G10785   7.246   4.207   9.030  1.4102 -0.7275 -3.2424
  105OSM   C16F10786   7.217   4.109   8.846  0.1347 -0.3656 -1.1479
  105OSM   H16F10787   7.164   4.022   8.804  1.2536 -1.3477 -0.5951
  105OSM   H16G10788   7.324   4.080   8.835  0.6475 -0.0129  1.9639
  105OSM   C17F10789   7.188   4.226   8.751  0.0099 -0.0687 -0.0853
  105OSM   H17F10790   7.216   4.318   8.806  0.2257 -1.1962  1.7611
  105OSM   H17G10791   7.081   4.238   8.721  0.1731 -0.3778 -0.7917
  105OSM   C18F10792   7.268   4.230   8.620 -0.1182 -0.0495  0.5607
  105OSM   H18F10793   7.374   4.260   8.635 -0.2494  1.8772 -1.7041
  105OSM   H18G10794   7.227   4.314   8.561 -2.7209 -1.7696 -0.2557
  105OSM   H18H10795   7.264   4.138   8.556  0.0719  1.3908 -1.6395
  106OSM      N10796   1.332   1.648  10.838  0.0395  0.1472  0.1392
  106OSM    C1510797   1.455   1.680  10.922 -0.2573  0.7807 -0.1997
  106OSM   H15A10798   1.422   1.754  10.993 -2.0747  0.6484 -0.8793
  106OSM   H15B10799   1.535   1.721  10.862  0.9498 -1.0777  0.0711
  106OSM   H15C10800   1.488   1.597  10.983 -0.1185 -0.3011 -1.6903
  106OSM    C1410801   1.369   1.535  10.757 -1.0356  0.8174  0.4302
  106OSM   H14A10802   1.419   1.463  10.820 -0.7878  1.6985  1.2586
  106OSM   H14B10803   1.448   1.559  10.687 -1.2256  0.2488  0.0122
  106OSM   H14C10804   1.290   1.485  10.703  0.5242 -2.0992  0.6330
  106OSM    C1310805   1.221   1.579  10.918 -0.3574 -0.3725  0.6827
  106OSM   H13A10806   1.271   1.510  10.984 -0.7690 -0.4226  0.9478
  106OSM   H13B10807   1.137   1.530  10.871 -0.8295 -2.8940  3.7747
  106OSM   H13C10808   1.190   1.646  10.996 -1.2977 -0.6372  0.5464
  106OSM    C1210809   1.292   1.759  10.744 -0.0023 -0.0490 -0.8114
  106OSM   H12A10810   1.204   1.730  10.689 -0.2102 -1.6129  0.2680
  106OSM   H12B10811   1.375   1.768  10.675  2.0922  0.9343  1.6542
  106OSM    C1110812   1.273   1.895  10.807  0.5713 -0.0040 -0.3701
  106OSM   H11A10813   1.252   1.973  10.731  2.3029  0.6807 -0.1843
  106OSM   H11B10814   1.363   1.936  10.856 -0.0587 -0.2907  1.0910
  106OSM      P10815   1.026   1.917  10.881  0.0907  0.2357 -0.4099
  106OSM    O1310816   0.938   1.807  10.927  0.7473  0.5485 -0.2291
  106OSM    O1410817   0.982   2.048  10.932  0.0675  0.0540  0.2066
  106OSM    O1110818   1.015   1.933  10.728  0.6841 -0.1649  0.3350
  106OSM    O1210819   1.175   1.891  10.914 -0.0080  0.2647  0.3093
  106OSM    C1S10820   0.903   1.946  10.646  0.0608 -0.4231  0.5621
  106OSM    H1S10821   0.884   2.055  10.634 -1.2963 -0.8054 -1.1739
  106OSM    H1T10822   0.808   1.903  10.684 -0.5245 -0.2519 -0.6621
  106OSM     NF10823   0.860   1.940  10.400  0.2239  0.5101 -0.0141
  106OSM    HNF10824   0.796   1.876  10.358  1.1889 -1.5239  1.4474
  106OSM    C2S10825   0.943   1.895  10.506 -0.3841  0.7208  0.3546
  106OSM    H2S10826   1.047   1.923  10.479  0.0588  1.1492  2.3297
  106OSM    C3S10827   0.961   1.736  10.499 -0.1050 -0.2638  0.5257
  106OSM    H3S10828   0.865   1.684  10.521  0.2881 -0.1289  2.9091
  106OSM     O310829   1.026   1.688  10.608  0.0941  0.7836 -0.1773
  106OSM    HO310830   1.014   1.760  10.670  1.9229  2.8440 -2.0329
  106OSM    C4S10831   1.028   1.692  10.368  0.3022  0.4752  0.2796
  106OSM    H4S10832   0.963   1.646  10.293  1.5402  0.3896 -0.7675
  106OSM    C5S10833   1.160   1.675  10.341 -0.0745 -0.3412  0.1551
  106OSM    H5S10834   1.231   1.701  10.421 -1.5798 -0.1188  1.4608
  106OSM    C6S10835   1.216   1.618  10.211 -0.2671  0.1107 -0.8209
  106OSM    H6S10836   1.274   1.525  10.226  1.3149  1.3761  1.3612
  106OSM    H6T10837   1.298   1.687  10.181  0.8837  0.8852  3.4837
  106OSM    C7S10838   1.118   1.592  10.092 -0.8894 -0.5463 -0.0570
  106OSM    H7S10839   1.045   1.676  10.086 -2.4833 -1.9552 -1.3903
  106OSM    H7T10840   1.063   1.500  10.119  1.9950 -1.9331  1.6047
  106OSM    C8S10841   1.187   1.564   9.962  0.1999 -0.1614  0.0594
  106OSM    H8S10842   1.231   1.462   9.970 -0.5478 -0.4056  1.3141
  106OSM    H8T10843   1.273   1.631   9.940 -1.0078  1.0250 -1.2764
  106OSM    C9S10844   1.088   1.564   9.842  0.3095  0.7973 -0.1694
  106OSM    H9S10845   1.029   1.658   9.845  1.8147  1.8221 -1.2136
  106OSM    H9T10846   1.020   1.477   9.858  0.3815  0.7470 -0.1359
  106OSM   C10S10847   1.149   1.556   9.701 -0.1216  0.2298 -0.2387
  106OSM   H10S10848   1.209   1.464   9.713  0.5818  0.9023  1.8683
  106OSM   H10T10849   1.206   1.650   9.683  1.1448 -0.2081  1.2522
  106OSM   C11S10850   1.035   1.531   9.599  0.0226 -0.1041  0.3341
  106OSM   H11S10851   0.997   1.624   9.550  0.8900  0.1600  0.1506
  106OSM   H11T10852   0.947   1.481   9.644 -0.9002  0.4277 -0.8125
  106OSM   C12S10853   1.077   1.435   9.484  0.2186  0.0702 -0.3766
  106OSM   H12S10854   0.981   1.396   9.444 -2.5253  3.3349  2.2948
  106OSM   H12T10855   1.139   1.349   9.518  0.5087  0.8930  1.3013
  106OSM   C13S10856   1.164   1.503   9.374 -0.2856  0.0721  0.3555
  106OSM   H13S10857   1.191   1.418   9.308  0.6011 -0.3140  1.1958
  106OSM   H13T10858   1.257   1.535   9.426 -0.2373 -1.8455  1.5497
  106OSM   C14S10859   1.107   1.612   9.289 -0.1090  0.1059 -0.8014
  106OSM   H14S10860   1.101   1.710   9.341 -1.2572  0.7518 -2.1070
  106OSM   H14T10861   1.004   1.585   9.258 -0.6454  2.1753 -0.9255
  106OSM   C15S10862   1.192   1.634   9.169 -0.2617 -0.3041  0.8168
  106OSM   H15S10863   1.240   1.536   9.149 -0.1437 -0.1539  0.3361
  106OSM   H15T10864   1.277   1.705   9.180 -1.3943  0.8883  2.2536
  106OSM   C16S10865   1.113   1.679   9.039 -0.3111 -0.2851 -0.6273
  106OSM   H16S10866   1.076   1.783   9.051 -0.1833  0.0115 -2.4595
  106OSM   H16T10867   1.025   1.611   9.028 -0.4470 -0.5934  1.8776
  106OSM   C17S10868   1.199   1.666   8.914 -0.4286  0.2939  0.4668
  106OSM   H17S10869   1.268   1.579   8.921  0.0805  0.6303 -0.2214
  106OSM   H17T10870   1.264   1.757   8.922 -1.6606  1.2647 -0.1771
  106OSM   C18S10871   1.106   1.677   8.797 -0.3282 -1.0034 -0.2463
  106OSM   H18S10872   1.056   1.776   8.799 -0.4508 -1.0677  0.9814
  106OSM   H18T10873   1.032   1.597   8.821  0.6646 -1.3249  2.1217
  106OSM   H18U10874   1.170   1.681   8.707 -1.4725 -1.8303 -1.1230
  106OSM    C1F10875   0.862   2.061  10.340  0.9386  0.4276  0.6770
  106OSM     OF10876   0.932   2.150  10.380 -0.2329  0.2414 -0.1013
  106OSM    C2F10877   0.785   2.076  10.205  0.0001  0.8430 -0.0771
  106OSM    H2F10878   0.736   1.978  10.187  0.9581  0.3131  0.1353
  106OSM    H2G10879   0.854   2.114  10.127  2.3645  1.7737  2.3333
  106OSM    C3F10880   0.674   2.192  10.225 -0.5636  0.2865  0.6235
  106OSM    H3F10881   0.727   2.288  10.242 -2.3354  1.4936 -0.2285
  106OSM    H3G10882   0.629   2.169  10.324 -1.1238  1.5754  0.6925
  106OSM    C4F10883   0.582   2.197  10.100 -0.5298  0.1462 -0.1095
  106OSM    H4F10884   0.485   2.237  10.135  0.7444  2.8060  0.6141
  106OSM    H4G10885   0.560   2.100  10.050 -0.0321 -1.1261  2.0275
  106OSM    C5F10886   0.638   2.276   9.984 -0.3914 -0.6471  0.0465
  106OSM    H5F10887   0.567   2.279   9.899  0.3237  3.0463 -0.5876
  106OSM    H5G10888   0.735   2.230   9.956 -0.4153 -0.4086 -0.4323
  106OSM    C6F10889   0.664   2.430  10.015  0.8505  0.2200  0.2060
  106OSM    H6F10890   0.695   2.485   9.923 -0.4594 -0.9381 -0.9872
  106OSM    H6G10891   0.749   2.435  10.086  1.4589 -4.4792  0.1046
  106OSM    C7F10892   0.549   2.506  10.081 -0.6621 -0.5711 -0.1707
  106OSM    H7F10893   0.527   2.472  10.185 -0.1864  0.0695  0.1381
  106OSM    H7G10894   0.472   2.479  10.006  0.2992  2.3236 -2.3765
  106OSM    C8F10895   0.574   2.657  10.065 -0.5259  0.4990  0.1809
  106OSM    H8F10896   0.490   2.721  10.098  0.1848  1.0963  0.8592
  106OSM    H8G10897   0.601   2.679   9.959  3.0806 -1.5418  0.4944
  106OSM    C9F10898   0.684   2.700  10.159 -0.3025 -0.4314  0.8494
  106OSM    H9F10899   0.674   2.639  10.250  0.2710 -1.4853  0.2231
  106OSM   C10F10900   0.776   2.800  10.143 -0.4040 -0.1878 -0.3869
  106OSM   H10F10901   0.847   2.809  10.226 -2.1135  1.3282  0.9833
  106OSM   C11F10902   0.788   2.906  10.038 -0.2655  0.0419 -0.0845
  106OSM   H11F10903   0.779   2.851   9.942  1.0766  0.9027 -0.7291
  106OSM   H11G10904   0.888   2.954  10.034 -0.7672  1.0445 -2.6257
  106OSM   C12F10905   0.681   3.016  10.052 -0.4795  0.8107 -0.6135
  106OSM   H12F10906   0.737   3.086  10.117  0.5353 -1.6686  1.3126
  106OSM   H12G10907   0.586   2.976  10.093  0.6392 -0.5962  0.7383
  106OSM   C13F10908   0.654   3.097   9.924  0.2321  0.4518 -0.3745
  106OSM   H13F10909   0.580   3.170   9.962 -0.5688 -0.5391  0.0115
  106OSM   H13G10910   0.608   3.029   9.849 -0.3832 -1.6537  1.7646
  106OSM   C14F10911   0.779   3.154   9.865  0.8202 -0.3633  0.6366
  106OSM   H14F10912   0.847   3.080   9.818 -1.1894 -0.9309 -1.5181
  106OSM   H14G10913   0.843   3.200   9.943  1.4006  0.1260 -0.1097
  106OSM   C15F10914   0.749   3.246   9.744 -0.5039  0.5247  0.0790
  106OSM   H15F10915   0.727   3.350   9.778  3.0091  1.7888 -1.1021
  106OSM   H15G10916   0.662   3.217   9.681  1.2086  1.4429 -2.8917
  106OSM   C16F10917   0.861   3.258   9.643 -0.5534 -0.2025  0.2779
  106OSM   H16F10918   0.885   3.156   9.606 -1.4648 -0.2631 -0.1774
  106OSM   H16G10919   0.951   3.294   9.698 -0.8416  2.5522 -0.9044
  106OSM   C17F10920   0.827   3.361   9.537  0.5817  0.8788 -0.3487
  106OSM   H17F10921   0.809   3.454   9.595 -1.4006  2.1149 -2.7487
  106OSM   H17G10922   0.726   3.338   9.498  0.2784 -0.1022  0.9666
  106OSM   C18F10923   0.924   3.394   9.424  0.5159  0.1621  0.5004
  106OSM   H18F10924   0.870   3.462   9.354  0.7904 -1.6967 -1.6285
  106OSM   H18G10925   0.964   3.304   9.374  0.6047  1.0248 -1.0558
  106OSM   H18H10926   1.014   3.448   9.460  0.5481 -0.1201  0.8446
  107OSM      N10927   2.995   5.290  11.155 -0.7840 -0.2396  0.2868
  107OSM    C1510928   2.898   5.230  11.248  0.5643 -0.2795  0.1078
  107OSM   H15A10929   2.822   5.293  11.290  0.5724  1.4589 -2.2897
  107OSM   H15B10930   2.947   5.195  11.338  1.9336  2.7259  0.6498
  107OSM   H15C10931   2.855   5.139  11.208  1.0824 -0.8780  0.8934
  107OSM    C1410932   3.051   5.415  11.221  0.1477  0.2471  0.7544
  107OSM   H14A10933   3.124   5.459  11.155 -0.0535 -0.8657 -0.2454
  107OSM   H14B10934   3.098   5.396  11.317 -1.8470  0.4940  1.8398
  107OSM   H14C10935   2.973   5.488  11.233 -0.0881  0.2092 -0.4455
  107OSM    C1310936   3.103   5.195  11.128 -0.4089  0.5630  0.4188
  107OSM   H13A10937   3.059   5.100  11.102  1.8980 -0.0609 -1.5141
  107OSM   H13B10938   3.170   5.180  11.212 -1.1049  1.2138  1.1054
  107OSM   H13C10939   3.166   5.227  11.047  0.2080  0.5018  0.8630
  107OSM    C1210940   2.928   5.332  11.022  0.2951  0.0609  0.2397
  107OSM   H12A10941   2.845   5.395  11.050  1.3977  1.6368  0.1004
  107OSM   H12B10942   2.882   5.246  10.975 -4.4475  2.8791 -1.0000
  107OSM    C1110943   3.010   5.411  10.925 -0.8768 -0.0637  0.7740
  107OSM   H11A10944   2.968   5.429  10.824 -0.4835  2.7366  1.0286
  107OSM   H11B10945   3.093   5.342  10.896 -0.1700  1.5396 -1.2081
  107OSM      P10946   2.984   5.663  10.954 -0.3153  0.0610  0.2769
  107OSM    O1310947   2.860   5.635  11.023 -0.1706 -0.3213  0.1832
  107OSM    O1410948   3.068   5.773  11.000 -0.1490  0.0990  0.0116
  107OSM    O1110949   2.953   5.675  10.803 -0.3436  0.3924 -0.0408
  107OSM    O1210950   3.064   5.534  10.965 -0.6856 -0.1617 -1.0192
  107OSM    C1S10951   3.060   5.677  10.713 -0.3472 -0.2607  0.4669
  107OSM    H1S10952   3.115   5.581  10.709  2.2364  1.1466 -2.4255
  107OSM    H1T10953   3.136   5.756  10.734 -1.1916  0.6480  0.2142
  107OSM     NF10954   3.121   5.677  10.480  0.0580 -0.1247 -0.6427
  107OSM    HNF10955   3.168   5.752  10.433  2.0911 -0.8703  0.0777
  107OSM    C2S10956   3.021   5.714  10.568  0.4786  0.5154  0.2116
  107OSM    H2S10957   2.928   5.655  10.554  1.2834 -0.9651  0.8376
  107OSM    C3S10958   2.987   5.870  10.555 -0.5091 -0.4678  0.6503
  107OSM    H3S10959   3.086   5.918  10.568  0.0696 -1.8819  1.6682
  107OSM     O310960   2.897   5.909  10.658 -0.7265  0.0382 -0.4660
  107OSM    HO310961   2.917   5.845  10.726 -2.3823 -1.9699 -1.7360
  107OSM    C4S10962   2.925   5.892  10.417  0.5492  0.9362  0.5739
  107OSM    H4S10963   2.998   5.919  10.339 -2.2116  1.5882 -1.9868
  107OSM    C5S10964   2.799   5.876  10.375  0.5520 -0.2068  0.0484
  107OSM    H5S10965   2.720   5.835  10.439  0.5035  1.0815  0.8521
  107OSM    C6S10966   2.749   5.889  10.236 -0.3708  0.0466 -0.0800
  107OSM    H6S10967   2.675   5.972  10.229  0.2896  0.6946  0.5558
  107OSM    H6T10968   2.701   5.794  10.204 -0.4529 -0.4089  1.3609
  107OSM    C7S10969   2.864   5.910  10.132 -0.2053 -0.2044  0.8383
  107OSM    H7S10970   2.949   5.841  10.153  2.2501  1.2299 -3.3135
  107OSM    H7T10971   2.908   6.012  10.134 -0.9164  0.1035  1.2620
  107OSM    C8S10972   2.813   5.882   9.984  0.1830  0.3578 -0.4443
  107OSM    H8S10973   2.718   5.938   9.974 -0.4400 -0.0098  2.4635
  107OSM    H8T10974   2.779   5.778   9.963 -1.0976  0.8579 -0.9146
  107OSM    C9S10975   2.913   5.928   9.873  0.1083  0.1811 -0.4030
  107OSM    H9S10976   3.005   5.866   9.882 -1.5239 -2.4146 -0.5809
  107OSM    H9T10977   2.934   6.036   9.893 -2.5980  0.5525  0.9630
  107OSM   C10S10978   2.859   5.917   9.735  0.1440 -0.0624 -0.5248
  107OSM   H10S10979   2.769   5.982   9.721 -0.1875 -0.9716 -3.2316
  107OSM   H10T10980   2.816   5.816   9.717  0.0795 -0.3696  1.2217
  107OSM   C11S10981   2.956   5.939   9.618 -1.1369  0.0211 -0.5311
  107OSM   H11S10982   3.043   5.873   9.637 -2.5515 -1.9424 -0.5401
  107OSM   H11T10983   2.988   6.045   9.607  0.9687 -0.1480  2.6279
  107OSM   C12S10984   2.888   5.894   9.489 -0.0241  0.4116 -0.3312
  107OSM   H12S10985   2.784   5.931   9.475 -0.3149 -0.1264  0.3372
  107OSM   H12T10986   2.881   5.784   9.495  0.0266  0.4201 -0.0594
  107OSM   C13S10987   2.974   5.920   9.366  0.2396 -0.2935 -0.2623
  107OSM   H13S10988   3.073   5.878   9.395  0.1362  0.6639  1.5840
  107OSM   H13T10989   2.979   6.030   9.356  2.0370 -0.3114  0.0161
  107OSM   C14S10990   2.913   5.854   9.244  0.7991  0.4228  0.1411
  107OSM   H14S10991   2.810   5.881   9.213  0.9553 -1.3099 -2.1900
  107OSM   H14T10992   2.919   5.744   9.255  2.7813  0.0820 -3.0475
  107OSM   C15S10993   3.002   5.880   9.119 -0.1041 -0.1907 -0.2111
  107OSM   H15S10994   3.104   5.842   9.140 -0.1093 -0.6392 -0.9599
  107OSM   H15T10995   3.003   5.989   9.098 -1.1564 -0.3227 -1.0320
  107OSM   C16S10996   2.948   5.807   8.994 -1.3861  0.3076  0.8341
  107OSM   H16S10997   2.848   5.848   8.970 -0.8379 -0.0909 -2.6157
  107OSM   H16T10998   2.932   5.698   9.006 -0.0898  0.1458  1.3486
  107OSM   C17S10999   3.030   5.836   8.873  0.0626  0.1486 -0.1174
  107OSM   H17S11000   3.137   5.846   8.902  0.4605  2.2278 -2.0705
  107OSM   H17T11001   3.008   5.929   8.817  1.5052  0.0183 -0.9698
  107OSM   C18S11002   3.018   5.737   8.756 -0.1238  0.5576 -0.2823
  107OSM   H18S11003   3.049   5.636   8.792 -0.9708 -0.2320 -1.6658
  107OSM   H18T11004   3.079   5.760   8.666  0.7039 -2.3739 -0.5836
  107OSM   H18U11005   2.912   5.723   8.725  0.2633  0.5708 -1.6573
  107OSM    C1F11006   3.167   5.548  10.459  0.2051  0.9549  0.2167
  107OSM     OF11007   3.105   5.449  10.504  0.6398 -0.2130  0.1078
  107OSM    C2F11008   3.303   5.532  10.392  0.0263  0.4314 -0.1567
  107OSM    H2F11009   3.369   5.476  10.462 -0.6237 -1.8593 -1.2511
  107OSM    H2G11010   3.348   5.629  10.362  2.2364 -0.1831  0.8961
  107OSM    C3F11011   3.287   5.448  10.260  0.2046  0.1624 -0.3538
  107OSM    H3F11012   3.234   5.353  10.280 -0.0613  0.2971 -0.4182
  107OSM    H3G11013   3.391   5.424  10.228  0.4744  0.9736 -0.1423
  107OSM    C4F11014   3.215   5.539  10.158  0.2337  0.2576  0.4905
  107OSM    H4F11015   3.259   5.640  10.173  0.2947  0.2788  0.1601
  107OSM    H4G11016   3.108   5.554  10.183  0.6446  1.3417  1.6711
  107OSM    C5F11017   3.237   5.482  10.018 -0.0907 -0.0600 -0.2063
  107OSM    H5F11018   3.161   5.403  10.003 -1.1625  1.3264 -2.5494
  107OSM    H5G11019   3.340   5.440  10.010  0.0696  0.3899 -0.5427
  107OSM    C6F11020   3.203   5.592   9.918  0.3517 -0.6334  0.2213
  107OSM    H6F11021   3.282   5.670   9.923  0.1607 -0.2200 -2.1409
  107OSM    H6G11022   3.114   5.638   9.967  0.2980 -2.0992  1.5886
  107OSM    C7F11023   3.175   5.520   9.783 -0.1046 -1.1911 -1.0545
  107OSM    H7F11024   3.082   5.461   9.798 -1.9156  2.1413  2.5360
  107OSM    H7G11025   3.264   5.460   9.755  0.3580 -0.6548 -0.7475
  107OSM    C8F11026   3.160   5.624   9.667  0.2613  0.4663  0.3829
  107OSM    H8F11027   3.245   5.695   9.652  1.0642 -0.1876  1.6133
  107OSM    H8G11028   3.071   5.688   9.687  1.4549  1.9699  1.1158
  107OSM    C9F11029   3.117   5.565   9.538 -0.2538  0.4126 -0.2257
  107OSM    H9F11030   3.009   5.546   9.546 -0.1063 -0.4642 -0.1329
  107OSM   C10F11031   3.204   5.535   9.440 -0.2034 -0.2468  0.1991
  107OSM   H10F11032   3.170   5.488   9.346  3.1624 -0.4768 -1.0575
  107OSM   C11F11033   3.352   5.565   9.423 -0.2080  0.0359 -0.1545
  107OSM   H11F11034   3.411   5.471   9.416 -0.7590 -0.3863  0.6354
  107OSM   H11G11035   3.385   5.606   9.521 -1.3131  0.5459  0.0213
  107OSM   C12F11036   3.371   5.666   9.309  0.5549 -0.2943 -0.2633
  107OSM   H12F11037   3.480   5.683   9.294  0.1823  0.7393 -2.0808
  107OSM   H12G11038   3.318   5.761   9.329  1.8442 -0.1507  3.1004
  107OSM   C13F11039   3.334   5.607   9.174  0.7196 -0.3048  0.0636
  107OSM   H13F11040   3.225   5.592   9.157  0.8150  0.1604 -1.0005
  107OSM   H13G11041   3.372   5.504   9.185 -1.3376 -0.9496  1.8741
  107OSM   C14F11042   3.398   5.683   9.050 -0.6061 -0.8269 -0.4340
  107OSM   H14F11043   3.507   5.684   9.072 -1.0298  1.5565  2.2207
  107OSM   H14G11044   3.351   5.783   9.043 -2.8298 -1.8885 -1.9329
  107OSM   C15F11045   3.376   5.615   8.919 -0.1981  0.4150  0.5840
  107OSM   H15F11046   3.265   5.601   8.918 -0.1308 -0.1391  0.2592
  107OSM   H15G11047   3.421   5.514   8.908 -0.1364  0.6298 -1.6158
  107OSM   C16F11048   3.403   5.684   8.787  0.1399  0.5503  0.8184
  107OSM   H16F11049   3.361   5.786   8.772 -1.2004 -0.1910 -0.8460
  107OSM   H16G11050   3.362   5.618   8.707  1.6491  2.3649 -1.5941
  107OSM   C17F11051   3.547   5.678   8.758  0.5009  0.3730 -0.1579
  107OSM   H17F11052   3.567   5.645   8.653 -0.2418  1.3847 -0.6365
  107OSM   H17G11053   3.606   5.596   8.805  0.8064  0.0873 -1.0043
  107OSM   C18F11054   3.623   5.811   8.775  0.2125  0.3780  0.5127
  107OSM   H18F11055   3.618   5.844   8.881  2.0574 -2.0516  1.4377
  107OSM   H18G11056   3.573   5.870   8.695  0.2168  0.6357  0.6997
  107OSM   H18H11057   3.733   5.801   8.761 -0.1383 -1.7371 -1.3542
  108OSM      N11058   6.116   5.021  11.300  0.6483  0.1907  0.2167
  108OSM    C1511059   6.097   4.870  11.302 -0.1132  0.5588 -0.1699
  108OSM   H15A11060   6.127   4.824  11.209  1.1861  0.5340  0.2384
  108OSM   H15B11061   5.991   4.850  11.304  0.1145 -0.8568 -0.7337
  108OSM   H15C11062   6.153   4.834  11.387  2.3127  0.9615 -1.4797
  108OSM    C1411063   6.081   5.085  11.429  0.0360  0.5436 -0.2359
  108OSM   H14A11064   6.091   5.192  11.425 -1.7350  0.6988 -1.4944
  108OSM   H14B11065   6.131   5.042  11.515 -1.8761 -1.8331 -0.2041
  108OSM   H14C11066   5.983   5.052  11.460  0.1490 -0.8130 -1.2153
  108OSM    C1311067   6.260   5.044  11.267  0.3845  0.0716 -0.5854
  108OSM   H13A11068   6.333   4.988  11.323 -2.3145 -1.7176  1.3668
  108OSM   H13B11069   6.278   5.150  11.278  0.4884 -0.0367  0.2977
  108OSM   H13C11070   6.285   5.018  11.165  2.6535 -0.9817  0.1635
  108OSM    C1211071   6.023   5.086  11.192  0.0828 -0.1734 -0.2134
  108OSM   H12A11072   6.048   5.191  11.192  0.3216 -0.2181  0.6925
  108OSM   H12B11073   5.925   5.081  11.239  0.5255 -0.3242  0.7174
  108OSM    C1111074   6.021   5.029  11.041  0.1861  0.1886  0.5805
  108OSM   H11A11075   5.951   5.090  10.980  1.3227 -0.7171 -1.7226
  108OSM   H11B11076   5.978   4.927  11.040  2.2812 -0.7713 -1.4217
  108OSM      P11077   6.203   4.910  10.894 -0.0581  0.1887 -0.0767
  108OSM    O1311078   6.330   4.943  10.833 -0.6641 -0.6017  0.6833
  108OSM    O1411079   6.210   4.785  10.974 -0.1405  0.6987 -0.0842
  108OSM    O1111080   6.097   4.889  10.780 -0.3004 -0.3750  0.4676
  108OSM    O1211081   6.151   5.033  10.982  0.0109 -0.5340  0.5331
  108OSM    C1S11082   6.037   4.978  10.692 -0.1701  0.4307 -0.2560
  108OSM    H1S11083   6.124   5.017  10.635  0.1617 -0.0248 -0.0645
  108OSM    H1T11084   5.990   5.060  10.751  1.5558  0.6340  0.9140
  108OSM     NF11085   5.876   5.016  10.493 -0.5450  0.1327 -0.4137
  108OSM    HNF11086   5.783   5.046  10.511 -0.5335 -0.4790  0.6855
  108OSM    C2S11087   5.939   4.913  10.584 -0.1421 -0.3125 -0.3548
  108OSM    H2S11088   6.007   4.849  10.525  0.5603  0.3492 -0.2805
  108OSM    C3S11089   5.832   4.819  10.640  0.2138  0.1222 -0.1191
  108OSM    H3S11090   5.759   4.884  10.694 -0.6143 -0.5233 -0.4364
  108OSM     O311091   5.874   4.732  10.745  0.0341  0.5259 -0.1884
  108OSM    HO311092   5.966   4.759  10.752  0.0596  0.9575 -1.8019
  108OSM    C4S11093   5.764   4.745  10.529  0.3691  0.3317 -0.2593
  108OSM    H4S11094   5.661   4.775  10.507  0.5538  1.3368  0.1458
  108OSM    C5S11095   5.816   4.640  10.465  0.3485  0.2907 -0.2950
  108OSM    H5S11096   5.917   4.604  10.487 -0.8342 -1.7407  2.3532
  108OSM    C6S11097   5.736   4.571  10.350 -0.7748  0.3213 -0.0019
  108OSM    H6S11098   5.775   4.600  10.250  0.0886 -2.6775 -0.6301
  108OSM    H6T11099   5.625   4.571  10.359 -0.9512 -0.3670 -1.7352
  108OSM    C7S11100   5.771   4.418  10.349 -0.2856  0.5534  0.0265
  108OSM    H7S11101   5.703   4.365  10.419 -0.9077 -0.0928 -1.0349
  108OSM    H7T11102   5.874   4.400  10.385 -0.8071 -3.2620  0.0098
  108OSM    C8S11103   5.764   4.358  10.212  0.1461  0.3180 -0.4313
  108OSM    H8S11104   5.818   4.432  10.149  0.2590  1.4671  0.9661
  108OSM    H8T11105   5.662   4.359  10.167  0.4933  2.1571 -1.2486
  108OSM    C9S11106   5.834   4.223  10.202  0.2185  0.7555 -0.1024
  108OSM    H9S11107   5.803   4.164  10.291 -1.3282  0.7549 -0.6205
  108OSM    H9T11108   5.942   4.248  10.192  0.1841  0.9508  0.0083
  108OSM   C10S11109   5.796   4.145  10.075  0.2137 -0.3139  0.4333
  108OSM   H10S11110   5.788   4.212   9.987 -2.5721  0.2725  1.0571
  108OSM   H10T11111   5.697   4.097  10.083 -0.6526  1.5229  1.1338
  108OSM   C11S11112   5.895   4.039  10.022 -0.6254  0.0789 -0.5037
  108OSM   H11S11113   5.904   3.957  10.096  2.2030 -0.9365 -1.8154
  108OSM   H11T11114   5.987   4.102  10.014 -1.1830  0.8121 -1.2951
  108OSM   C12S11115   5.870   3.990   9.877  0.2042  0.1265  0.2991
  108OSM   H12S11116   5.880   4.082   9.815  0.7059 -1.1117 -1.5446
  108OSM   H12T11117   5.767   3.950   9.867  0.2955 -0.1028  0.2737
  108OSM   C13S11118   5.979   3.890   9.819  0.5030 -0.1244 -0.2517
  108OSM   H13S11119   5.966   3.795   9.877  0.1042 -0.3351 -0.6800
  108OSM   H13T11120   6.082   3.930   9.825  0.0050  1.3166 -0.9362
  108OSM   C14S11121   5.942   3.854   9.671  0.6375  0.4339 -0.2919
  108OSM   H14S11122   5.950   3.942   9.604  2.3473 -0.6127 -1.5491
  108OSM   H14T11123   5.838   3.816   9.667  0.4958  0.4868  1.6474
  108OSM   C15S11124   6.044   3.756   9.613  0.4875 -0.5069  0.3861
  108OSM   H15S11125   6.142   3.807   9.599  0.0608  0.0403 -0.6580
  108OSM   H15T11126   6.010   3.736   9.510  1.8699 -1.8373  0.1662
  108OSM   C16S11127   6.065   3.624   9.692 -0.3830  0.8182 -0.5666
  108OSM   H16S11128   5.971   3.579   9.729  1.1310 -1.3115  0.9738
  108OSM   H16T11129   6.124   3.651   9.783  0.5669 -0.6439 -0.7194
  108OSM   C17S11130   6.144   3.521   9.608  0.0965 -1.1434  0.3254
  108OSM   H17S11131   6.253   3.540   9.606 -0.0710 -0.1955 -0.5426
  108OSM   H17T11132   6.113   3.537   9.503  1.9819 -3.2816 -0.6618
  108OSM   C18S11133   6.115   3.379   9.656 -0.5173  0.6391  0.1094
  108OSM   H18S11134   6.011   3.341   9.649 -0.0623 -0.6258  0.0158
  108OSM   H18T11135   6.146   3.370   9.762 -0.5770  0.3417  0.1017
  108OSM   H18U11136   6.183   3.307   9.606 -0.8516 -0.7803  1.6271
  108OSM    C1F11137   5.949   5.084  10.399  0.9516 -0.2150 -0.7441
  108OSM     OF11138   6.068   5.089  10.399 -0.2021  0.1044 -0.2736
  108OSM    C2F11139   5.878   5.160  10.294  0.2592 -0.0921 -0.3184
  108OSM    H2F11140   5.875   5.269  10.319  4.8525  1.1195 -3.6627
  108OSM    H2G11141   5.777   5.112  10.291  0.1968 -0.4752  3.4330
  108OSM    C3F11142   5.947   5.141  10.159 -0.2044  0.9214 -1.2296
  108OSM    H3F11143   5.970   5.033  10.150  1.0802  0.9447  1.0023
  108OSM    H3G11144   6.038   5.205  10.164  0.0251  0.4982  0.8416
  108OSM    C4F11145   5.868   5.190  10.036  0.0982 -0.1477  0.3671
  108OSM    H4F11146   5.833   5.295  10.032 -1.6989 -0.7225 -2.6710
  108OSM    H4G11147   5.774   5.132  10.023 -1.3900  2.6115 -2.8575
  108OSM    C5F11148   5.958   5.162   9.909  0.8985 -0.0807  0.0868
  108OSM    H5F11149   6.009   5.063   9.914  0.0304 -0.6505 -1.5758
  108OSM    H5G11150   6.036   5.241   9.905 -1.1004  1.9317 -0.8064
  108OSM    C6F11151   5.866   5.163   9.788  0.5598  0.4421  0.5360
  108OSM    H6F11152   5.807   5.256   9.802  0.7098  0.6192  0.0129
  108OSM    H6G11153   5.791   5.081   9.783 -1.0301  1.7743  1.4189
  108OSM    C7F11154   5.937   5.170   9.654  0.0665 -0.1143 -0.2908
  108OSM    H7F11155   6.046   5.148   9.665  0.0716 -1.2762 -2.2426
  108OSM    H7G11156   5.938   5.273   9.612  1.3244 -0.6609 -1.6822
  108OSM    C8F11157   5.888   5.088   9.536  0.0067  0.3183  0.2944
  108OSM    H8F11158   5.879   4.985   9.577 -1.1106 -0.3209 -1.4632
  108OSM    H8G11159   5.967   5.099   9.459 -1.2257 -0.2666 -1.0975
  108OSM    C9F11160   5.764   5.149   9.480 -0.0962  0.4053  0.0332
  108OSM    H9F11161   5.696   5.194   9.554  1.5727  2.5663  0.3362
  108OSM   C10F11162   5.743   5.188   9.356 -0.6215  0.2070 -0.3433
  108OSM   H10F11163   5.644   5.234   9.343 -0.0358  1.4810 -0.4472
  108OSM   C11F11164   5.828   5.156   9.237 -0.3958 -0.0034  0.2545
  108OSM   H11F11165   5.936   5.152   9.264 -0.4367 -0.6727  0.3495
  108OSM   H11G11166   5.802   5.231   9.159 -1.3457  0.1446  0.7092
  108OSM   C12F11167   5.783   5.024   9.170 -0.2327 -0.8068 -0.1970
  108OSM   H12F11168   5.672   5.024   9.173 -0.2779  1.6386  0.0803
  108OSM   H12G11169   5.810   4.938   9.236 -1.1087 -0.4889  0.5911
  108OSM   C13F11170   5.828   5.006   9.026 -0.2964 -0.1544  0.0343
  108OSM   H13F11171   5.935   5.018   8.998 -0.5988 -0.3209 -1.2325
  108OSM   H13G11172   5.773   5.084   8.970 -1.0126  2.0781  3.5071
  108OSM   C14F11173   5.775   4.874   8.967 -0.1190  0.8459  0.5623
  108OSM   H14F11174   5.816   4.786   9.020 -0.2327 -1.4693 -2.8354
  108OSM   H14G11175   5.816   4.858   8.865  1.5961  0.1528  1.3267
  108OSM   C15F11176   5.619   4.855   8.961 -0.5140 -0.4462 -0.5666
  108OSM   H15F11177   5.582   4.860   9.065 -2.7750 -0.5373 -1.3135
  108OSM   H15G11178   5.591   4.756   8.919  0.7089 -0.8580 -0.4487
  108OSM   C16F11179   5.550   4.961   8.865  0.3544  0.7988 -0.4813
  108OSM   H16F11180   5.586   4.927   8.765  2.5062  0.6712  0.2745
  108OSM   H16G11181   5.598   5.060   8.883  0.5366  0.1388  3.7278
  108OSM   C17F11182   5.402   4.963   8.883  0.5296  0.4785 -0.1800
  108OSM   H17F11183   5.363   5.002   8.979  2.1774  3.2135 -0.5269
  108OSM   H17G11184   5.373   4.856   8.876 -0.2723  0.4784  2.2630
  108OSM   C18F11185   5.336   5.044   8.770 -0.0880 -0.1820 -0.4272
  108OSM   H18F11186   5.380   5.146   8.770 -1.2333  0.3313 -0.9513
  108OSM   H18G11187   5.228   5.049   8.794 -0.0362  0.7947 -0.3262
  108OSM   H18H11188   5.355   4.995   8.672  1.0730 -3.0554  1.1171
  109OSM      N11189   6.296   5.701  10.992  0.2250  0.3784  0.1575
  109OSM    C1511190   6.254   5.581  11.065  0.5028 -0.0609  0.6696
  109OSM   H15A11191   6.151   5.556  11.047  0.8713 -1.6840  0.6905
  109OSM   H15B11192   6.262   5.589  11.173  3.3775 -0.3917  0.5627
  109OSM   H15C11193   6.317   5.496  11.044  2.7808  2.0820 -1.9487
  109OSM    C1411194   6.224   5.824  11.050 -0.9013 -0.2517 -0.3508
  109OSM   H14A11195   6.118   5.818  11.031 -1.4757 -2.7154  2.8424
  109OSM   H14B11196   6.255   5.916  11.002 -0.5947 -0.0128  0.2922
  109OSM   H14C11197   6.239   5.826  11.157  0.8801 -1.6323 -0.5141
  109OSM    C1311198   6.440   5.722  10.998 -0.2705 -0.3433 -0.9243
  109OSM   H13A11199   6.483   5.638  10.945 -1.5396 -1.8478  0.2960
  109OSM   H13B11200   6.481   5.734  11.097  0.0440 -2.8565 -0.6705
  109OSM   H13C11201   6.458   5.814  10.946  0.7834 -0.5937 -1.0167
  109OSM    C1211202   6.261   5.676  10.845 -0.3311 -0.0843 -0.3530
  109OSM   H12A11203   6.301   5.756  10.784 -1.3530  0.2606 -0.5768
  109OSM   H12B11204   6.154   5.684  10.832 -0.5469 -3.1083 -1.1634
  109OSM    C1111205   6.302   5.551  10.776 -0.2345  0.9409  0.2397
  109OSM   H11A11206   6.260   5.550  10.673  0.5261  0.6669 -0.0758
  109OSM   H11B11207   6.253   5.462  10.821  0.9139 -0.9316 -2.0067
  109OSM      P11208   6.547   5.584  10.667  0.2950 -0.0377  0.4987
  109OSM    O1311209   6.661   5.644  10.732 -0.3503 -0.3129  0.0357
  109OSM    O1411210   6.570   5.478  10.567  0.6984  0.1861 -0.4758
  109OSM    O1111211   6.461   5.703  10.596  0.3667  0.6011 -0.5821
  109OSM    O1211212   6.442   5.527  10.773  0.5349  0.6698  0.1588
  109OSM    C1S11213   6.530   5.782  10.497  0.0861  0.8211  0.4423
  109OSM    H1S11214   6.598   5.720  10.436 -0.7665 -1.0890  1.3315
  109OSM    H1T11215   6.590   5.864  10.542 -0.7299  1.3660  0.5672
  109OSM     NF11216   6.512   5.897  10.289  0.1284  0.0091 -0.3908
  109OSM    HNF11217   6.510   5.995  10.273 -1.1979 -0.0438 -0.7405
  109OSM    C2S11218   6.430   5.842  10.399 -0.9560 -0.3385  0.0300
  109OSM    H2S11219   6.385   5.749  10.358 -0.1056 -1.2734  1.1391
  109OSM    C3S11220   6.330   5.945  10.451  0.4951  0.5062  0.2067
  109OSM    H3S11221   6.378   6.042  10.477  0.4248  0.9108 -1.0865
  109OSM     O311222   6.264   5.898  10.565  0.2665 -0.3636 -0.3432
  109OSM    HO311223   6.316   5.820  10.584 -0.2116 -0.5203  0.3585
  109OSM    C4S11224   6.219   5.979  10.345  0.2571 -0.5840 -0.1299
  109OSM    H4S11225   6.159   5.891  10.318  0.3222 -0.6106 -0.1900
  109OSM    C5S11226   6.200   6.099  10.293 -0.3802  0.1455 -0.0989
  109OSM    H5S11227   6.258   6.190  10.315  0.4153 -0.5106  0.5806
  109OSM    C6S11228   6.104   6.120  10.179  0.3318 -0.1080 -0.0088
  109OSM    H6S11229   6.028   6.200  10.190 -1.7980 -1.9098 -0.8310
  109OSM    H6T11230   6.049   6.025  10.167 -1.3749  0.8229  0.1633
  109OSM    C7S11231   6.194   6.146  10.057  0.2405  0.7665  0.5088
  109OSM    H7S11232   6.268   6.064  10.039 -0.5897  0.5771 -2.5448
  109OSM    H7T11233   6.247   6.243  10.070  1.3003  0.7511 -2.8674
  109OSM    C8S11234   6.099   6.157   9.932 -0.1096  0.5819 -0.2685
  109OSM    H8S11235   6.028   6.241   9.946  0.7395  1.2530  0.0893
  109OSM    H8T11236   6.044   6.061   9.939 -1.6429  1.3830 -1.0100
  109OSM    C9S11237   6.161   6.184   9.801 -1.2672 -0.3587  0.0006
  109OSM    H9S11238   6.240   6.106   9.790  0.2771  0.7490  2.4297
  109OSM    H9T11239   6.217   6.279   9.798  0.8884 -1.5718 -2.1118
  109OSM   C10S11240   6.058   6.167   9.692  0.1434 -0.2124  0.1220
  109OSM   H10S11241   5.970   6.230   9.718 -0.6574 -1.3766  0.3437
  109OSM   H10T11242   6.025   6.061   9.692 -2.7519  0.5874  0.1717
  109OSM   C11S11243   6.101   6.208   9.558 -0.9843 -0.4004  0.8100
  109OSM   H11S11244   6.184   6.149   9.512 -1.2149  0.4275 -0.7348
  109OSM   H11T11245   6.128   6.315   9.572 -2.7007  0.0536  0.7511
  109OSM   C12S11246   5.999   6.181   9.447  0.4157 -0.4947 -0.5088
  109OSM   H12S11247   5.898   6.201   9.488  1.2935  1.2944  0.9256
  109OSM   H12T11248   5.999   6.073   9.421  1.3902 -0.5327 -0.3861
  109OSM   C13S11249   6.041   6.253   9.315  0.3136  0.1015 -0.3894
  109OSM   H13S11250   6.151   6.263   9.298  0.4580  0.4231  0.6753
  109OSM   H13T11251   6.007   6.358   9.330 -1.6359 -0.4597 -0.6164
  109OSM   C14S11252   5.968   6.188   9.197 -0.7344 -0.3804  0.4165
  109OSM   H14S11253   5.858   6.193   9.184 -0.5482 -0.3069 -1.3384
  109OSM   H14T11254   5.988   6.079   9.199 -0.6979 -0.4129 -1.0260
  109OSM   C15S11255   6.041   6.242   9.065  0.2828 -0.3054 -0.1280
  109OSM   H15S11256   6.149   6.253   9.089  0.0239 -1.9219  2.1123
  109OSM   H15T11257   6.009   6.348   9.069  0.3830 -0.3088  2.0215
  109OSM   C16S11258   6.003   6.175   8.929 -0.8511  0.2257  0.4028
  109OSM   H16S11259   5.895   6.198   8.926 -1.1912 -1.3178 -2.5998
  109OSM   H16T11260   6.022   6.067   8.915  2.0780  0.4656  1.6429
  109OSM   C17S11261   6.062   6.248   8.814  0.1206 -0.1286 -0.6646
  109OSM   H17S11262   6.170   6.224   8.814 -0.1155 -1.2589  0.2265
  109OSM   H17T11263   6.040   6.357   8.819  0.0784 -0.0959 -1.3837
  109OSM   C18S11264   5.996   6.205   8.682 -0.4453  0.1516 -0.0341
  109OSM   H18S11265   5.887   6.222   8.691 -0.1656  1.3270  1.8471
  109OSM   H18T11266   6.007   6.096   8.663 -2.3593  0.1808 -1.6108
  109OSM   H18U11267   6.030   6.255   8.589  0.5306  0.3679  0.4229
  109OSM    C1F11268   6.598   5.834  10.204  0.2799  0.1395 -0.5987
  109OSM     OF11269   6.602   5.713  10.190  0.5669 -0.6536  0.0371
  109OSM    C2F11270   6.689   5.932  10.138 -0.8423  0.6234  0.0535
  109OSM    H2F11271   6.779   5.945  10.202  0.3464 -1.9661 -0.9518
  109OSM    H2G11272   6.631   6.026  10.134 -0.1045  1.0465 -1.8430
  109OSM    C3F11273   6.727   5.892   9.995 -0.3184 -0.0233 -0.5905
  109OSM    H3F11274   6.791   5.801   9.993 -1.6817 -1.3226  3.8105
  109OSM    H3G11275   6.786   5.973   9.946  2.7927  0.2590  3.1159
  109OSM    C4F11276   6.602   5.879   9.909  0.5953 -0.4127  0.2408
  109OSM    H4F11277   6.526   5.961   9.912 -0.7835 -1.5761 -1.0922
  109OSM    H4G11278   6.539   5.791   9.933  0.6334 -0.3137  0.7283
  109OSM    C5F11279   6.646   5.868   9.764 -0.1512 -0.8238  0.0877
  109OSM    H5F11280   6.720   5.785   9.755  0.2523 -0.2961 -1.7084
  109OSM    H5G11281   6.705   5.960   9.745 -3.1181  1.4147  0.9191
  109OSM    C6F11282   6.540   5.860   9.655  0.8607  0.3000 -0.4846
  109OSM    H6F11283   6.437   5.838   9.689  0.8013 -0.6993 -1.2434
  109OSM    H6G11284   6.571   5.775   9.590 -1.9614 -1.8298  0.7307
  109OSM    C7F11285   6.523   5.981   9.566  0.0915 -0.2652  0.8044
  109OSM    H7F11286   6.524   6.078   9.621 -1.2464  1.4197 -1.8887
  109OSM    H7G11287   6.421   5.964   9.524  0.2965  1.4941 -0.5392
  109OSM    C8F11288   6.624   5.993   9.450 -0.8736 -0.9717 -0.3318
  109OSM    H8F11289   6.609   5.916   9.372  3.7133 -0.7774 -1.6979
  109OSM    H8G11290   6.724   5.976   9.496 -1.1627  2.0313  1.7345
  109OSM    C9F11291   6.608   6.135   9.389 -0.0482  0.7952  0.5610
  109OSM    H9F11292   6.674   6.209   9.436  1.4668 -1.1687  1.7043
  109OSM   C10F11293   6.518   6.155   9.288 -0.1187  0.0089 -0.4211
  109OSM   H10F11294   6.511   6.260   9.253 -1.2592 -0.0724 -0.4686
  109OSM   C11F11295   6.435   6.051   9.218  0.1878 -0.8509  0.7382
  109OSM   H11F11296   6.329   6.030   9.244  0.4918 -2.4729  0.8005
  109OSM   H11G11297   6.480   5.949   9.216  0.0527 -0.9168 -1.3870
  109OSM   C12F11298   6.445   6.084   9.063  0.1637 -0.4699 -0.9716
  109OSM   H12F11299   6.394   6.182   9.053  1.7489  0.5668  0.6266
  109OSM   H12G11300   6.380   6.005   9.018 -1.3826 -1.3141  2.4408
  109OSM   C13F11301   6.588   6.069   9.022  0.4939 -0.3587  0.2669
  109OSM   H13F11302   6.622   5.969   9.056  1.1443  0.1892  1.2831
  109OSM   H13G11303   6.653   6.148   9.067  3.2265 -1.7148 -1.0183
  109OSM   C14F11304   6.611   6.065   8.868 -0.1909 -0.0696 -0.7624
  109OSM   H14F11305   6.719   6.082   8.846  0.1604 -0.5675  0.5056
  109OSM   H14G11306   6.558   6.156   8.831 -4.3160 -2.1684 -0.4787
  109OSM   C15F11307   6.563   5.932   8.788  0.3403  0.3066  0.6656
  109OSM   H15F11308   6.464   5.897   8.822  0.9579 -2.4940 -0.1506
  109OSM   H15G11309   6.640   5.856   8.815 -1.0570 -0.5525  2.4186
  109OSM   C16F11310   6.565   5.960   8.633  0.9844 -0.3399 -0.7319
  109OSM   H16F11311   6.589   5.861   8.588  2.1347 -0.4083 -0.0109
  109OSM   H16G11312   6.639   6.035   8.598 -1.1190  1.2581 -1.9695
  109OSM   C17F11313   6.427   6.008   8.585  0.1361  0.5366 -0.1822
  109OSM   H17F11314   6.385   6.092   8.645 -1.6929  0.3178 -1.0938
  109OSM   H17G11315   6.355   5.925   8.602  0.4793 -0.0653 -1.5636
  109OSM   C18F11316   6.418   6.048   8.437  0.3879  0.4992 -0.9414
  109OSM   H18F11317   6.508   6.005   8.387 -1.3541 -2.1686 -1.9966
  109OSM   H18G11318   6.417   6.158   8.427 -1.4909  0.5081 -0.9646
  109OSM   H18H11319   6.325   6.013   8.386  0.9302 -0.3472 -1.3755
  110OSM      N11320   1.598   4.653  11.067 -0.4723  0.3832 -0.5805
  110OSM    C1511321   1.738   4.617  11.110 -0.8654  0.6288  0.2761
  110OSM   H15A11322   1.739   4.513  11.138  2.4275  0.4123 -0.2682
  110OSM   H15B11323   1.770   4.662  11.203 -0.6782 -0.0298  0.5355
  110OSM   H15C11324   1.812   4.631  11.033 -0.2255 -0.2933  0.7040
  110OSM    C1411325   1.506   4.626  11.182 -0.1547  0.8311 -0.3489
  110OSM   H14A11326   1.404   4.645  11.154  0.0941  2.9028 -0.0464
  110OSM   H14B11327   1.523   4.689  11.269  1.3521 -0.0263  0.0088
  110OSM   H14C11328   1.517   4.524  11.215  1.4220  0.2896 -2.3476
  110OSM    C1311329   1.601   4.801  11.036  0.2826  0.7768 -0.5308
  110OSM   H13A11330   1.680   4.809  10.963 -1.6372  0.1246 -2.8201
  110OSM   H13B11331   1.628   4.862  11.121 -2.0884  1.9793 -0.5701
  110OSM   H13C11332   1.512   4.849  10.998 -0.0533  0.9196  0.4292
  110OSM    C1211333   1.560   4.575  10.944  0.2967  0.1535 -0.5061
  110OSM   H12A11334   1.547   4.472  10.975  2.6949 -0.3692 -1.0043
  110OSM   H12B11335   1.644   4.577  10.876  1.1812  1.8221  0.5927
  110OSM    C1111336   1.445   4.625  10.857  0.3462 -0.1710 -0.3474
  110OSM   H11A11337   1.451   4.580  10.756 -1.7518 -0.3813 -0.4210
  110OSM   H11B11338   1.455   4.734  10.836 -0.2365 -0.0822 -0.1728
  110OSM      P11339   1.254   4.466  10.922  0.3904  0.0821 -0.1002
  110OSM    O1311340   1.345   4.358  10.968  0.3840 -0.5075 -0.2767
  110OSM    O1411341   1.116   4.479  10.983  0.0763  0.0272  0.3913
  110OSM    O1111342   1.239   4.459  10.760 -0.4291 -0.3748 -0.7810
  110OSM    O1211343   1.323   4.602  10.931  0.0400 -0.2176 -0.2375
  110OSM    C1S11344   1.131   4.394  10.696 -0.0508  0.2389  0.0143
  110OSM    H1S11345   1.040   4.452  10.722  0.4862  0.0520  2.6717
  110OSM    H1T11346   1.117   4.295  10.745  1.9167 -0.1664 -0.1325
  110OSM     NF11347   1.023   4.327  10.505  0.1547  0.2153  0.6263
  110OSM    HNF11348   1.025   4.229  10.490 -0.5910  0.5384 -1.9786
  110OSM    C2S11349   1.146   4.383  10.547  0.7658  0.3465 -0.0460
  110OSM    H2S11350   1.152   4.487  10.509 -0.6969  0.3583 -0.3091
  110OSM    C3S11351   1.277   4.315  10.519  0.4423 -0.3588  0.0048
  110OSM    H3S11352   1.277   4.218  10.573 -0.8837 -0.3784  0.0084
  110OSM     O311353   1.384   4.394  10.569 -0.1661 -0.6492  0.4670
  110OSM    HO311354   1.343   4.439  10.643 -0.0202  0.2161  0.0361
  110OSM    C4S11355   1.282   4.290  10.369  0.0402 -0.2078  0.0979
  110OSM    H4S11356   1.301   4.382  10.312 -0.3358 -1.1838 -1.6700
  110OSM    C5S11357   1.277   4.166  10.310 -0.3433 -0.7032  0.5951
  110OSM    H5S11358   1.269   4.079  10.376 -0.2625  0.1805  1.8106
  110OSM    C6S11359   1.275   4.147  10.159  0.4075  0.4548  0.4155
  110OSM    H6S11360   1.196   4.070  10.144 -0.7243  1.8353 -1.0078
  110OSM    H6T11361   1.371   4.101  10.125  1.3713  0.6184  2.7126
  110OSM    C7S11362   1.235   4.273  10.071 -0.4561  0.0527 -0.1028
  110OSM    H7S11363   1.313   4.350  10.087  0.4583 -0.8007 -0.3513
  110OSM    H7T11364   1.142   4.321  10.107  0.3703  0.8953  0.9846
  110OSM    C8S11365   1.219   4.249   9.926  0.0488  0.6161  0.6180
  110OSM    H8S11366   1.129   4.187   9.906  1.5989 -1.8012  0.7495
  110OSM    H8T11367   1.309   4.198   9.885 -1.0398 -2.0337  1.3109
  110OSM    C9S11368   1.203   4.379   9.849  0.3880  0.7444 -0.2288
  110OSM    H9S11369   1.297   4.437   9.861  0.6552  0.6099 -1.5684
  110OSM    H9T11370   1.131   4.445   9.904  1.0866  0.9303  0.4849
  110OSM   C10S11371   1.160   4.358   9.702 -0.0789  0.4162 -0.2528
  110OSM   H10S11372   1.064   4.303   9.690  1.8200 -2.8654 -1.8550
  110OSM   H10T11373   1.223   4.281   9.653 -2.3292 -1.0998 -0.9333
  110OSM   C11S11374   1.148   4.477   9.609 -0.2543 -0.4531 -1.0074
  110OSM   H11S11375   1.254   4.511   9.612  0.0286 -1.2327  2.6846
  110OSM   H11T11376   1.083   4.551   9.661  1.7973 -0.8203  2.4441
  110OSM   C12S11377   1.091   4.439   9.470  0.4816 -0.5403  0.0867
  110OSM   H12S11378   0.981   4.452   9.476  0.0785  0.8422 -5.3107
  110OSM   H12T11379   1.120   4.334   9.449 -0.4241 -0.7049 -0.3782
  110OSM   C13S11380   1.141   4.529   9.354  0.3693 -0.0481  0.4641
  110OSM   H13S11381   1.250   4.513   9.335  0.6053  0.9908  0.8818
  110OSM   H13T11382   1.132   4.636   9.382 -3.4994 -0.7729  2.6391
  110OSM   C14S11383   1.067   4.534   9.216  0.2449 -0.0536  1.4183
  110OSM   H14S11384   0.957   4.552   9.220  0.3370  0.7077  0.8650
  110OSM   H14T11385   1.082   4.447   9.149  1.7163  0.3096  1.2544
  110OSM   C15S11386   1.121   4.647   9.130 -0.2064 -0.2872  0.5938
  110OSM   H15S11387   1.218   4.612   9.089  1.0151  0.6413  2.5531
  110OSM   H15T11388   1.140   4.740   9.188 -0.3202 -0.0677  0.2841
  110OSM   C16S11389   1.047   4.671   8.998  0.0920  0.0635 -0.7129
  110OSM   H16S11390   0.946   4.711   9.024  1.4264  1.0018  4.1694
  110OSM   H16T11391   1.024   4.572   8.955  1.0355 -0.2865 -0.4453
  110OSM   C17S11392   1.114   4.761   8.892  0.1825 -0.3583 -1.2777
  110OSM   H17S11393   1.206   4.707   8.861  1.8355 -1.0634  3.9216
  110OSM   H17T11394   1.136   4.857   8.942 -1.3748 -0.8686  0.4886
  110OSM   C18S11395   1.023   4.797   8.779 -0.3634 -0.1612 -0.2941
  110OSM   H18S11396   0.959   4.712   8.748 -0.0155 -0.2047 -0.9279
  110OSM   H18T11397   1.079   4.832   8.690  1.5467 -0.6215  0.6782
  110OSM   H18U11398   0.956   4.876   8.818  1.8615  3.6269 -3.3794
  110OSM    C1F11399   0.915   4.408  10.487 -0.3665 -0.4347  0.1204
  110OSM     OF11400   0.911   4.533  10.510 -0.2162 -0.0707  0.2578
  110OSM    C2F11401   0.795   4.336  10.438 -0.3154 -0.5802 -0.5186
  110OSM    H2F11402   0.713   4.409  10.452  0.0648 -0.5312  2.0527
  110OSM    H2G11403   0.786   4.240  10.494  0.9066 -1.0466 -1.0835
  110OSM    C3F11404   0.813   4.309  10.284  0.0168  0.4361 -0.0324
  110OSM    H3F11405   0.727   4.247  10.250  1.7290 -1.0988 -1.8276
  110OSM    H3G11406   0.901   4.240  10.285 -0.3348 -0.0347  1.2709
  110OSM    C4F11407   0.834   4.438  10.206  0.3927 -0.2684  0.0325
  110OSM    H4F11408   0.924   4.494  10.239  1.1133 -1.9921  1.1050
  110OSM    H4G11409   0.747   4.504  10.221  0.1774 -0.1367 -1.6096
  110OSM    C5F11410   0.844   4.415  10.051  0.5703 -0.1560  0.2908
  110OSM    H5F11411   0.775   4.342  10.004  0.8748 -0.9512  1.0479
  110OSM    H5G11412   0.950   4.386  10.034  0.3921 -1.8527  1.7657
  110OSM    C6F11413   0.813   4.555   9.981  0.0487 -0.5147  0.3709
  110OSM    H6F11414   0.878   4.633  10.027 -1.2292  1.0236 -0.3199
  110OSM    H6G11415   0.707   4.581   9.998  0.3774  0.6734  0.7190
  110OSM    C7F11416   0.845   4.544   9.827 -0.1612  0.7858 -1.1933
  110OSM    H7F11417   0.810   4.445   9.792 -1.7730  1.2035 -0.8184
  110OSM    H7G11418   0.956   4.547   9.828 -0.1404  0.1080  0.0062
  110OSM    C8F11419   0.792   4.656   9.736  0.7427  0.1546 -0.5447
  110OSM    H8F11420   0.681   4.646   9.734  0.7918 -2.3482  2.0246
  110OSM    H8G11421   0.821   4.629   9.632 -1.6319 -2.0609 -0.7498
  110OSM    C9F11422   0.829   4.797   9.761  0.6812 -0.1349  0.0594
  110OSM    H9F11423   0.827   4.833   9.865  0.8203 -1.4280  0.5259
  110OSM   C10F11424   0.860   4.884   9.660  0.4589  0.4283  0.2482
  110OSM   H10F11425   0.872   4.989   9.691 -0.2407  0.7109 -0.3998
  110OSM   C11F11426   0.865   4.865   9.510  0.3176 -0.3419  0.7336
  110OSM   H11F11427   0.874   4.756   9.486 -1.2342 -1.0616  3.0811
  110OSM   H11G11428   0.956   4.919   9.477 -0.5666  0.2423 -0.8782
  110OSM   C12F11429   0.729   4.921   9.457  0.1679 -0.4443 -0.0206
  110OSM   H12F11430   0.720   5.027   9.490  3.8858 -0.1772  0.5004
  110OSM   H12G11431   0.642   4.873   9.507  1.5211 -2.6210  0.3566
  110OSM   C13F11432   0.707   4.923   9.303 -0.2333  0.0386 -0.1996
  110OSM   H13F11433   0.626   4.997   9.288  0.3561  0.9032  0.7209
  110OSM   H13G11434   0.683   4.818   9.276  2.1635 -1.0506  1.5213
  110OSM   C14F11435   0.833   4.960   9.208  0.3467 -0.2186 -0.7476
  110OSM   H14F11436   0.908   4.884   9.238  2.5196  1.9557 -0.3682
  110OSM   H14G11437   0.871   5.058   9.245 -0.1992 -0.2696 -0.0254
  110OSM   C15F11438   0.798   4.973   9.059 -0.3618  0.1429  0.1890
  110OSM   H15F11439   0.739   4.881   9.038  1.5533 -1.7032  2.3797
  110OSM   H15G11440   0.898   4.957   9.012 -0.2296 -1.8453  1.0312
  110OSM   C16F11441   0.711   5.089   9.023  0.5239 -0.4423  0.0577
  110OSM   H16F11442   0.772   5.171   9.068  2.5521 -1.7187 -0.2522
  110OSM   H16G11443   0.614   5.091   9.078  0.4768  0.0710 -0.0336
  110OSM   C17F11444   0.713   5.115   8.872  0.2021 -0.4669  0.2117
  110OSM   H17F11445   0.814   5.140   8.832 -0.0666  2.7135  1.2129
  110OSM   H17G11446   0.652   5.208   8.863 -1.5535 -1.7816 -4.5929
  110OSM   C18F11447   0.648   5.017   8.770  0.7662 -0.0068  0.2866
  110OSM   H18F11448   0.705   4.923   8.754 -0.1717 -0.4876 -0.3894
  110OSM   H18G11449   0.633   5.063   8.670  1.2621  1.4337  0.8519
  110OSM   H18H11450   0.551   4.995   8.819  0.8057 -2.0024 -0.4211
  111OSM      N11451   2.388   0.446  11.197 -1.0878  0.1851 -0.0799
  111OSM    C1511452   2.292   0.414  11.317 -0.4406 -0.9007 -0.0697
  111OSM   H15A11453   2.306   0.472  11.407 -2.6943 -0.0348 -0.2000
  111OSM   H15B11454   2.323   0.311  11.331  1.2472 -0.3523  0.3480
  111OSM   H15C11455   2.190   0.425  11.281 -0.8999 -0.5148  1.2883
  111OSM    C1411456   2.529   0.470  11.244  0.1646 -0.3453 -0.5049
  111OSM   H14A11457   2.520   0.543  11.323 -0.8837 -1.0813  0.0788
  111OSM   H14B11458   2.597   0.509  11.170 -0.6349 -1.4522 -1.8891
  111OSM   H14C11459   2.579   0.385  11.288 -1.7595 -1.0160  0.5064
  111OSM    C1311460   2.383   0.321  11.113  0.0595 -0.6271  0.4085
  111OSM   H13A11461   2.430   0.248  11.177 -0.6969 -0.2972  1.3725
  111OSM   H13B11462   2.433   0.327  11.018  0.3844  0.5789  0.6376
  111OSM   H13C11463   2.282   0.283  11.102  0.7977 -2.4109 -0.6771
  111OSM    C1211464   2.341   0.566  11.119  0.4177  0.3958 -0.2050
  111OSM   H12A11465   2.237   0.553  11.095  0.6468 -0.4266 -0.8173
  111OSM   H12B11466   2.401   0.581  11.030 -0.2900  1.2277 -0.5636
  111OSM    C1111467   2.377   0.698  11.192  0.0515 -0.1074  0.0295
  111OSM   H11A11468   2.485   0.722  11.185  0.0186 -0.4036 -2.9070
  111OSM   H11B11469   2.357   0.694  11.301  0.6562  0.0169  0.1481
  111OSM      P11470   2.172   0.855  11.155 -0.0885 -0.2513 -0.2521
  111OSM    O1311471   2.083   0.731  11.158 -0.2194  0.1541  0.4376
  111OSM    O1411472   2.174   0.947  11.273 -0.1823  0.5763  0.1520
  111OSM    O1111473   2.129   0.948  11.033 -0.0616 -0.1872 -0.7844
  111OSM    O1211474   2.319   0.807  11.128 -0.2778  0.0375 -0.4109
  111OSM    C1S11475   2.199   0.947  10.909 -0.0701  0.7653 -1.2829
  111OSM    H1S11476   2.272   0.863  10.910 -1.2368 -0.2835  0.0855
  111OSM    H1T11477   2.261   1.038  10.897  3.3802 -1.3085 -0.5813
  111OSM     NF11478   2.165   0.929  10.661  0.1549  0.3557  0.0483
  111OSM    HNF11479   2.159   1.020  10.621  0.3016  0.8131  1.0415
  111OSM    C2S11480   2.096   0.922  10.792 -0.6687 -0.5636 -0.2613
  111OSM    H2S11481   2.070   0.815  10.805  1.0452 -1.0283 -0.3104
  111OSM    C3S11482   1.971   1.015  10.792  0.7313 -0.0761  0.7506
  111OSM    H3S11483   2.017   1.114  10.776 -0.7247  0.5003 -0.0267
  111OSM     O311484   1.902   1.034  10.912 -0.5822  1.1132 -0.3345
  111OSM    HO311485   1.967   1.008  10.977  2.0766  2.9390 -2.0685
  111OSM    C4S11486   1.877   0.971  10.686  0.3630  0.6575  0.8033
  111OSM    H4S11487   1.818   0.882  10.713 -0.1143  0.3204 -1.1746
  111OSM    C5S11488   1.849   1.049  10.581 -0.0974  0.3102  0.0943
  111OSM    H5S11489   1.902   1.145  10.568 -1.4938  0.9045 -1.8283
  111OSM    C6S11490   1.754   1.026  10.466 -0.2109 -0.1582  0.0723
  111OSM    H6S11491   1.814   1.037  10.373  1.3531  0.9136  1.1643
  111OSM    H6T11492   1.667   1.095  10.455 -0.6977 -1.0170 -2.1316
  111OSM    C7S11493   1.690   0.888  10.486  0.2499 -0.9163 -0.0161
  111OSM    H7S11494   1.629   0.886  10.579  0.2019 -1.4670 -0.0592
  111OSM    H7T11495   1.760   0.802  10.482  1.1681 -0.2551  1.2531
  111OSM    C8S11496   1.578   0.877  10.373  0.0849  0.8485 -0.5562
  111OSM    H8S11497   1.507   0.963  10.372  0.9084  1.5381 -0.4663
  111OSM    H8T11498   1.514   0.787  10.391 -0.7809  1.2750 -1.4203
  111OSM    C9S11499   1.630   0.862  10.227 -0.6719  0.0246  0.2976
  111OSM    H9S11500   1.705   0.782  10.217  2.9046  3.1464 -0.1978
  111OSM    H9T11501   1.682   0.952  10.188 -1.1177 -0.7919 -2.3540
  111OSM   C10S11502   1.519   0.835  10.133 -0.6562 -0.0046 -0.2320
  111OSM   H10S11503   1.444   0.916  10.135  1.0424  1.6235  0.6895
  111OSM   H10T11504   1.464   0.743  10.162  2.9729 -2.5984 -0.8343
  111OSM   C11S11505   1.577   0.816   9.993  0.6031  0.1639  0.6427
  111OSM   H11S11506   1.653   0.735   9.989 -2.6193 -3.1047 -3.6157
  111OSM   H11T11507   1.635   0.909   9.975 -0.3416  0.7343  0.4752
  111OSM   C12S11508   1.490   0.794   9.870 -0.4139  0.2989  0.1173
  111OSM   H12S11509   1.402   0.861   9.873 -0.9750 -0.4238 -0.0128
  111OSM   H12T11510   1.455   0.689   9.877  1.4050 -0.3269  0.5788
  111OSM   C13S11511   1.567   0.805   9.743 -0.6357  0.2979  1.3542
  111OSM   H13S11512   1.655   0.737   9.743  0.1261  1.2164 -0.0767
  111OSM   H13T11513   1.623   0.900   9.733  0.4376 -0.2343  2.0012
  111OSM   C14S11514   1.491   0.768   9.616  0.6827  0.1827  0.7325
  111OSM   H14S11515   1.426   0.855   9.595 -0.8748 -1.3100 -0.9130
  111OSM   H14T11516   1.424   0.681   9.629  0.0780  0.0237 -2.6566
  111OSM   C15S11517   1.577   0.732   9.490  0.2337 -0.3774  0.0019
  111OSM   H15S11518   1.653   0.656   9.520  2.5651  1.4674 -0.8611
  111OSM   H15T11519   1.625   0.829   9.462 -1.0092  0.6165  1.1701
  111OSM   C16S11520   1.496   0.692   9.371  0.3800 -0.2850 -0.3927
  111OSM   H16S11521   1.406   0.639   9.409  0.8028 -1.8869 -1.5457
  111OSM   H16T11522   1.553   0.615   9.316 -1.1026 -0.3813 -1.8668
  111OSM   C17S11523   1.453   0.807   9.276  0.2045  0.3894 -0.4680
  111OSM   H17S11524   1.539   0.874   9.255  0.4597  0.2918  0.2343
  111OSM   H17T11525   1.382   0.876   9.325  0.0746  0.2693 -0.4865
  111OSM   C18S11526   1.396   0.762   9.142  0.4547 -0.1249  0.3738
  111OSM   H18S11527   1.324   0.678   9.147 -2.6026  2.2937  0.1745
  111OSM   H18T11528   1.475   0.735   9.069 -1.8662 -1.2383 -1.8622
  111OSM   H18U11529   1.348   0.849   9.092  3.8797  1.1150 -1.0534
  111OSM    C1F11530   2.257   0.843  10.624 -0.7223  0.3945  0.6600
  111OSM     OF11531   2.280   0.747  10.690  0.3104 -0.0914 -0.0360
  111OSM    C2F11532   2.327   0.864  10.500 -0.0296 -0.1052  0.5021
  111OSM    H2F11533   2.436   0.849  10.511 -0.1844 -0.3586  1.7804
  111OSM    H2G11534   2.322   0.972  10.473  2.1673  0.2437  1.3283
  111OSM    C3F11535   2.274   0.778  10.383  0.0164 -0.7130 -1.2394
  111OSM    H3F11536   2.165   0.788  10.369  0.2173  1.4127 -1.6383
  111OSM    H3G11537   2.285   0.669  10.400 -2.4734 -0.5933  2.2101
  111OSM    C4F11538   2.338   0.819  10.257 -0.6197 -0.3430  0.8076
  111OSM    H4F11539   2.449   0.810  10.247 -0.5379  1.7720 -1.1396
  111OSM    H4G11540   2.303   0.921  10.229 -2.2502 -1.5334 -1.8247
  111OSM    C5F11541   2.290   0.746  10.130  0.0451 -0.2777 -0.5450
  111OSM    H5F11542   2.184   0.769  10.104 -0.0115  0.9028  0.6332
  111OSM    H5G11543   2.294   0.636  10.151 -2.2684 -0.1153  1.2057
  111OSM    C6F11544   2.375   0.800  10.012 -0.3067 -0.3323 -0.0339
  111OSM    H6F11545   2.482   0.790  10.039 -1.1535 -0.4791  3.8609
  111OSM    H6G11546   2.369   0.908   9.989  0.9033 -0.1795  0.3052
  111OSM    C7F11547   2.336   0.720   9.883 -0.3476  0.5215 -0.4774
  111OSM    H7F11548   2.253   0.772   9.830 -1.7358 -1.3146 -0.2333
  111OSM    H7G11549   2.316   0.620   9.928 -2.3340  1.5474  1.0592
  111OSM    C8F11550   2.454   0.694   9.791  0.1638 -0.1154  0.6038
  111OSM    H8F11551   2.536   0.657   9.857 -0.6714 -0.8588  1.2672
  111OSM    H8G11552   2.479   0.795   9.753 -0.4220  0.4067  1.5348
  111OSM    C9F11553   2.415   0.599   9.678  0.6976  0.0202 -0.2288
  111OSM    H9F11554   2.421   0.491   9.699  0.5559  0.2063  0.7932
  111OSM   C10F11555   2.370   0.632   9.558 -0.3139 -0.6423  0.2687
  111OSM   H10F11556   2.352   0.554   9.483 -0.9431 -0.4314  0.1931
  111OSM   C11F11557   2.349   0.770   9.500 -0.6322 -0.5818 -0.3464
  111OSM   H11F11558   2.328   0.848   9.577  0.7688 -0.3795 -0.1515
  111OSM   H11G11559   2.261   0.753   9.434  0.2925 -0.8402 -1.5416
  111OSM   C12F11560   2.459   0.821   9.408 -0.8568 -0.5164  0.0368
  111OSM   H12F11561   2.556   0.828   9.462 -0.8756 -2.0526  0.3076
  111OSM   H12G11562   2.423   0.920   9.374  0.8932  0.4465  0.8631
  111OSM   C13F11563   2.493   0.741   9.278  0.3145  0.6804 -0.0220
  111OSM   H13F11564   2.401   0.743   9.215 -1.1269 -1.4657  1.8521
  111OSM   H13G11565   2.517   0.634   9.291  0.0747  0.7978  1.6724
  111OSM   C14F11566   2.605   0.803   9.196  0.4143 -0.1239  0.8177
  111OSM   H14F11567   2.699   0.770   9.244  1.1121 -0.4565 -0.7008
  111OSM   H14G11568   2.591   0.913   9.184 -1.1304 -0.5026 -1.8364
  111OSM   C15F11569   2.613   0.738   9.052  0.1553  0.0799 -0.6520
  111OSM   H15F11570   2.532   0.665   9.031  2.1469 -2.3245 -0.5007
  111OSM   H15G11571   2.707   0.679   9.051 -0.1202 -0.3957 -2.3205
  111OSM   C16F11572   2.603   0.837   8.935  1.0189 -1.1882  0.6750
  111OSM   H16F11573   2.681   0.915   8.946  1.3172 -1.4968  0.7661
  111OSM   H16G11574   2.500   0.879   8.926  0.1126 -3.7621 -2.8136
  111OSM   C17F11575   2.627   0.769   8.797 -0.3477 -0.1101  0.4588
  111OSM   H17F11576   2.606   0.836   8.710 -0.8723  1.5650  1.8223
  111OSM   H17G11577   2.540   0.701   8.781  0.8819 -1.4651 -0.7334
  111OSM   C18F11578   2.760   0.706   8.773 -0.2164  1.0778 -0.2330
  111OSM   H18F11579   2.797   0.697   8.669  2.7415  0.5089  0.7673
  111OSM   H18G11580   2.758   0.604   8.817  3.6143  0.7583 -0.4450
  111OSM   H18H11581   2.836   0.765   8.829  0.6527 -0.2114 -0.0180
  112OSM      N11582   2.591   5.891  10.825 -0.1682  0.4211  0.1541
  112OSM    C1511583   2.653   5.754  10.831 -0.0858  0.0204  0.4396
  112OSM   H15A11584   2.677   5.731  10.934  1.4818 -1.6440 -0.2657
  112OSM   H15B11585   2.742   5.745  10.771 -0.3707 -1.8699  0.2458
  112OSM   H15C11586   2.579   5.687  10.790 -0.1115 -1.7264  3.1220
  112OSM    C1411587   2.682   5.987  10.894  0.4452  0.9363  0.2943
  112OSM   H14A11588   2.639   6.086  10.892  1.8061  1.5438  0.0155
  112OSM   H14B11589   2.779   6.000  10.848  0.3008 -1.1774 -0.7170
  112OSM   H14C11590   2.687   5.963  10.999 -0.0620 -0.1784  0.0778
  112OSM    C1311591   2.582   5.939  10.680 -0.2491 -0.4480  0.1450
  112OSM   H13A11592   2.539   6.038  10.674  1.0164  0.1159 -0.0032
  112OSM   H13B11593   2.522   5.869  10.623  0.0338 -0.6647  0.1139
  112OSM   H13C11594   2.680   5.942  10.635 -0.3293 -1.3138 -0.1017
  112OSM    C1211595   2.455   5.899  10.896  0.0230  0.0253  0.2490
  112OSM   H12A11596   2.402   5.991  10.879 -2.0825 -1.3557 -0.9994
  112OSM   H12B11597   2.463   5.902  11.004 -1.3851 -1.5911  0.4316
  112OSM    C1111598   2.362   5.781  10.856 -0.4136  0.1441  0.3116
  112OSM   H11A11599   2.360   5.780  10.745  3.4335 -1.1266  0.0864
  112OSM   H11B11600   2.262   5.800  10.900 -1.6836 -0.6450 -2.0847
  112OSM      P11601   2.351   5.519  10.868 -0.6196  0.3152 -0.4774
  112OSM    O1311602   2.405   5.424  10.963  0.0988  0.7658 -0.1995
  112OSM    O1411603   2.204   5.526  10.856 -0.3686  0.0652 -0.1495
  112OSM    O1111604   2.418   5.503  10.724  0.0072  0.4480  0.2170
  112OSM    O1211605   2.406   5.659  10.913  0.3463  0.4749  0.1535
  112OSM    C1S11606   2.515   5.401  10.702 -0.0410  0.3097  0.7461
  112OSM    H1S11607   2.457   5.310  10.731 -1.6746  0.7911 -0.8488
  112OSM    H1T11608   2.606   5.409  10.765  0.2333  2.9078  0.1132
  112OSM     NF11609   2.644   5.268  10.539 -0.3262  0.2028  0.1518
  112OSM    HNF11610   2.738   5.283  10.511 -0.5088  1.9164  0.3868
  112OSM    C2S11611   2.557   5.387  10.552  0.0106 -0.0320  0.5207
  112OSM    H2S11612   2.473   5.356  10.485  1.0739 -0.6803 -0.5440
  112OSM    C3S11613   2.618   5.521  10.493  0.5219 -0.2541 -0.5621
  112OSM    H3S11614   2.697   5.552  10.564 -1.2590  0.0077  1.3824
  112OSM     O311615   2.517   5.626  10.495  0.5720  0.1799 -0.5895
  112OSM    HO311616   2.467   5.590  10.569 -0.0598  0.0830 -1.0592
  112OSM    C4S11617   2.658   5.508  10.351 -0.4575  0.2271  0.2941
  112OSM    H4S11618   2.575   5.488  10.281  0.9447  1.1788 -1.7401
  112OSM    C5S11619   2.785   5.519  10.307 -0.0285 -0.0427 -0.3324
  112OSM    H5S11620   2.859   5.525  10.388 -0.4478 -2.7144  0.3546
  112OSM    C6S11621   2.842   5.510  10.161  0.1550  0.1172 -0.3795
  112OSM    H6S11622   2.922   5.433  10.158 -1.2980 -1.5011  0.4736
  112OSM    H6T11623   2.882   5.604  10.118 -1.6937  0.4325 -1.5723
  112OSM    C7S11624   2.730   5.473  10.054  0.1523 -0.1783 -0.0819
  112OSM    H7S11625   2.661   5.560  10.061 -1.3845 -1.3939  0.4407
  112OSM    H7T11626   2.677   5.380  10.085  0.3332  0.3315  1.8666
  112OSM    C8S11627   2.776   5.455   9.910 -0.3468 -0.2504 -0.3424
  112OSM    H8S11628   2.800   5.348   9.889 -1.5908 -0.3430 -1.4477
  112OSM    H8T11629   2.867   5.519   9.905 -1.0880  1.2296  2.7950
  112OSM    C9S11630   2.671   5.492   9.808 -0.3616 -0.1588 -0.5470
  112OSM    H9S11631   2.642   5.598   9.824  0.0000 -0.0677 -0.4812
  112OSM    H9T11632   2.582   5.426   9.815 -1.6805  1.6904  1.1103
  112OSM   C10S11633   2.728   5.497   9.664 -0.1936 -0.0711  0.9068
  112OSM   H10S11634   2.762   5.394   9.640 -0.5599  0.3143 -1.4733
  112OSM   H10T11635   2.808   5.573   9.658 -0.6657  0.5540  2.0412
  112OSM   C11S11636   2.631   5.532   9.549  0.5072 -0.0782  0.2766
  112OSM   H11S11637   2.625   5.642   9.542  0.0579 -0.1079  0.1708
  112OSM   H11T11638   2.533   5.487   9.576  0.5138  0.2956  0.9576
  112OSM   C12S11639   2.684   5.476   9.414  0.0002 -0.4666 -0.3284
  112OSM   H12S11640   2.745   5.384   9.429  0.8264 -0.0621 -1.1157
  112OSM   H12T11641   2.755   5.558   9.391  0.9132 -0.9185  0.7704
  112OSM   C13S11642   2.599   5.467   9.294  0.1321 -0.0056  0.4896
  112OSM   H13S11643   2.514   5.537   9.308  1.1276  1.4304 -0.3331
  112OSM   H13T11644   2.557   5.367   9.267 -0.6446  0.3637  0.3055
  112OSM   C14S11645   2.661   5.538   9.164 -0.2853  0.0176 -0.2317
  112OSM   H14S11646   2.712   5.635   9.181  0.1265  0.4235 -3.2125
  112OSM   H14T11647   2.581   5.555   9.089 -1.7197 -1.4927  0.8814
  112OSM   C15S11648   2.772   5.459   9.091 -0.5805  0.5471 -0.0600
  112OSM   H15S11649   2.855   5.437   9.162  0.2459 -2.6578 -1.8395
  112OSM   H15T11650   2.806   5.532   9.014 -2.8062  2.0032  0.2436
  112OSM   C16S11651   2.721   5.338   9.014 -0.5998  0.0589  0.0766
  112OSM   H16S11652   2.685   5.275   9.099 -0.2607 -1.8959 -1.1619
  112OSM   H16T11653   2.809   5.298   8.958 -0.6298 -0.8622  0.6591
  112OSM   C17S11654   2.602   5.367   8.920 -0.3194  0.3907 -0.5644
  112OSM   H17S11655   2.514   5.402   8.976  0.0673 -0.4620  0.6153
  112OSM   H17T11656   2.573   5.268   8.877  2.6541 -1.3322  0.9985
  112OSM   C18S11657   2.635   5.471   8.809  0.2311 -0.2487  0.6305
  112OSM   H18S11658   2.728   5.440   8.756  1.6495  1.1118  2.1977
  112OSM   H18T11659   2.640   5.569   8.862 -0.6582  0.1833 -0.0617
  112OSM   H18U11660   2.553   5.479   8.735  2.3192 -0.0514 -1.8190
  112OSM    C1F11661   2.608   5.141  10.562 -0.0911 -0.2354  0.3352
  112OSM     OF11662   2.518   5.120  10.643 -0.2023 -0.4389 -0.3359
  112OSM    C2F11663   2.689   5.030  10.503 -0.5513  0.1506 -0.7135
  112OSM    H2F11664   2.746   4.973  10.579 -1.2818 -0.5868 -0.7113
  112OSM    H2G11665   2.764   5.064  10.427 -0.2050 -0.7526 -0.7853
  112OSM    C3F11666   2.594   4.933  10.432  0.5071 -0.3595 -0.1449
  112OSM    H3F11667   2.521   4.891  10.504 -1.8147 -0.6408 -2.5227
  112OSM    H3G11668   2.653   4.848  10.392  1.3324  0.6378 -1.1334
  112OSM    C4F11669   2.513   4.998  10.312 -0.0105 -0.5134 -0.0039
  112OSM    H4F11670   2.452   5.077  10.361 -0.8729 -1.0796 -0.1370
  112OSM    H4G11671   2.442   4.921  10.272 -0.4085 -0.6296  0.9028
  112OSM    C5F11672   2.596   5.045  10.193  0.5744 -0.7328  0.1362
  112OSM    H5F11673   2.674   4.968  10.177 -0.3160 -1.9539  1.4535
  112OSM    H5G11674   2.641   5.145  10.211 -0.1440 -0.0204 -1.6878
  112OSM    C6F11675   2.514   5.053  10.067  0.0943  0.3290  1.3428
  112OSM    H6F11676   2.438   5.133  10.077 -0.5818 -0.1110  0.0264
  112OSM    H6G11677   2.455   4.961  10.045  1.6850 -0.3881 -0.1752
  112OSM    C7F11678   2.590   5.092   9.941 -0.5500  0.2162  0.0561
  112OSM    H7F11679   2.676   5.025   9.920  0.1162  0.6015  1.3823
  112OSM    H7G11680   2.635   5.191   9.961 -0.0997  0.0115  0.0730
  112OSM    C8F11681   2.507   5.088   9.811  1.1274  0.0069 -0.5212
  112OSM    H8F11682   2.412   5.145   9.821 -0.4087 -2.2109 -1.5252
  112OSM    H8G11683   2.490   4.978   9.803  1.9518 -0.3088  1.4683
  112OSM    C9F11684   2.580   5.141   9.689  0.4620 -1.1914  0.3782
  112OSM    H9F11685   2.590   5.250   9.690 -2.8342 -0.8053  2.2047
  112OSM   C10F11686   2.641   5.059   9.600 -0.5188 -0.2281  0.0746
  112OSM   H10F11687   2.692   5.106   9.514 -3.0340  1.1396 -0.7693
  112OSM   C11F11688   2.641   4.911   9.585  0.6460 -0.1851 -0.5740
  112OSM   H11F11689   2.549   4.862   9.621 -0.7484  1.3090 -1.9160
  112OSM   H11G11690   2.732   4.864   9.628  1.2806  0.2151 -1.4411
  112OSM   C12F11691   2.635   4.872   9.431  0.3314  0.0994  0.6754
  112OSM   H12F11692   2.635   4.761   9.426  4.3520  0.0345 -1.6730
  112OSM   H12G11693   2.731   4.910   9.390 -1.0752  3.4524  0.1745
  112OSM   C13F11694   2.517   4.917   9.349 -0.6490 -0.4636 -0.1607
  112OSM   H13F11695   2.501   5.025   9.366  1.0038 -0.2206 -0.0332
  112OSM   H13G11696   2.432   4.856   9.388 -0.6507  0.2842  1.0308
  112OSM   C14F11697   2.529   4.900   9.193 -1.2546 -0.1566  0.4967
  112OSM   H14F11698   2.432   4.912   9.140 -0.9706 -1.1462 -0.2960
  112OSM   H14G11699   2.550   4.792   9.174 -1.3976 -0.2228  0.7083
  112OSM   C15F11700   2.639   4.989   9.127 -0.3322  0.4665 -0.5664
  112OSM   H15F11701   2.681   5.070   9.190  0.9973 -0.7773  0.2117
  112OSM   H15G11702   2.596   5.032   9.034  1.0337  0.8711 -1.0339
  112OSM   C16F11703   2.762   4.910   9.075  0.9808  0.0750 -0.2085
  112OSM   H16F11704   2.803   4.846   9.156  2.5043  0.7536 -0.4104
  112OSM   H16G11705   2.842   4.985   9.061 -1.5368  3.2164  1.1046
  112OSM   C17F11706   2.724   4.841   8.944  0.2418 -0.7124 -0.5992
  112OSM   H17F11707   2.686   4.912   8.867 -2.9239 -1.2296  0.3432
  112OSM   H17G11708   2.631   4.785   8.966 -0.0134  0.0320  0.3249
  112OSM   C18F11709   2.836   4.755   8.876  0.4533 -0.2293  0.2621
  112OSM   H18F11710   2.903   4.820   8.817  0.6600  0.4549  1.2342
  112OSM   H18G11711   2.784   4.678   8.816  0.6986 -0.2854  0.1211
  112OSM   H18H11712   2.893   4.705   8.958  2.9745  0.5508 -0.9168
  113OSM      N11713   4.924   2.179  11.348 -0.0751 -0.4657 -0.4005
  113OSM    C1511714   4.992   2.250  11.462 -0.1698  0.3677 -0.1843
  113OSM   H15A11715   5.093   2.215  11.476  0.3020  1.5151 -0.6436
  113OSM   H15B11716   4.940   2.250  11.557 -0.8228 -0.0792 -0.5316
  113OSM   H15C11717   5.007   2.353  11.434 -1.6115  0.9179  0.9226
  113OSM    C1411718   4.900   2.035  11.378 -0.2100  0.3269 -0.4261
  113OSM   H14A11719   4.862   1.976  11.296  2.5179 -2.3795  0.0657
  113OSM   H14B11720   4.838   2.026  11.466  0.4077  1.1580  0.1107
  113OSM   H14C11721   4.996   1.989  11.398  0.0457  1.7929  2.0680
  113OSM    C1311722   4.789   2.244  11.332  0.5282  0.2709  0.0831
  113OSM   H13A11723   4.733   2.207  11.247  0.9024  0.3395 -0.1922
  113OSM   H13B11724   4.797   2.351  11.316 -1.8870  0.2952 -1.4753
  113OSM   H13C11725   4.720   2.231  11.414 -0.4258 -1.7871 -0.9647
  113OSM    C1211726   5.008   2.196  11.220 -0.0610 -0.3979  0.5948
  113OSM   H12A11727   4.958   2.142  11.141 -0.9238  0.5869  0.4616
  113OSM   H12B11728   5.102   2.146  11.242  1.3045  2.5102  1.8486
  113OSM    C1111729   5.035   2.341  11.160  0.2548  0.1183  0.1643
  113OSM   H11A11730   4.942   2.402  11.162  0.7107  0.8248  0.3958
  113OSM   H11B11731   5.076   2.331  11.058  2.1230  0.7672  0.7996
  113OSM      P11732   5.276   2.426  11.189  0.1062 -0.1094 -0.1339
  113OSM    O1311733   5.350   2.516  11.279  0.4057 -0.1725  0.2827
  113OSM    O1411734   5.343   2.301  11.159 -0.1578  0.3647  0.9583
  113OSM    O1111735   5.236   2.505  11.055  0.0850 -0.1326  0.0164
  113OSM    O1211736   5.126   2.415  11.244 -0.1952 -0.2239  0.0039
  113OSM    C1S11737   5.321   2.488  10.941 -0.2173  0.0565  0.1601
  113OSM    H1S11738   5.325   2.379  10.918 -1.9995 -0.1020  0.4763
  113OSM    H1T11739   5.424   2.524  10.962 -0.1867 -0.1853  0.4329
  113OSM     NF11740   5.366   2.543  10.709 -0.5223  0.3115  0.0117
  113OSM    HNF11741   5.459   2.575  10.698 -0.2282 -0.8893 -1.3363
  113OSM    C2S11742   5.285   2.584  10.825  0.6692 -0.1473  0.1327
  113OSM    H2S11743   5.177   2.567  10.805  0.2604  0.3082  1.7748
  113OSM    C3S11744   5.298   2.730  10.865 -0.5148 -0.3686  0.6423
  113OSM    H3S11745   5.407   2.741  10.880 -0.2122 -1.8106 -0.3433
  113OSM     O311746   5.235   2.768  10.989  0.1173  0.4428 -0.4478
  113OSM    HO311747   5.224   2.681  11.029  3.6427 -1.0493 -2.1628
  113OSM    C4S11748   5.259   2.829  10.756 -0.2086  0.1513  0.0387
  113OSM    H4S11749   5.328   2.841  10.671  0.9851  0.5395  1.0377
  113OSM    C5S11750   5.142   2.887  10.743  0.6456  0.0647  0.0548
  113OSM    H5S11751   5.064   2.860  10.816 -0.5290 -1.2866 -1.6410
  113OSM    C6S11752   5.095   2.981  10.633 -0.5270 -0.1392  1.6768
  113OSM    H6S11753   5.122   3.087  10.651  1.6269  0.4007 -3.1635
  113OSM    H6T11754   4.984   2.979  10.632 -0.5305 -1.7318  0.0603
  113OSM    C7S11755   5.139   2.940  10.500 -0.0204  0.0686 -0.5641
  113OSM    H7S11756   5.103   2.838  10.474 -2.0604  0.3053  1.0509
  113OSM    H7T11757   5.249   2.931  10.494  0.1713  1.7891 -0.0015
  113OSM    C8S11758   5.095   3.036  10.390 -0.4676  0.1253 -0.3966
  113OSM    H8S11759   5.128   3.139  10.416  0.1369 -0.2386  0.2973
  113OSM    H8T11760   4.984   3.039  10.392 -0.4550  0.2338  0.1564
  113OSM    C9S11761   5.139   2.999  10.251 -0.5544  0.5761  0.2178
  113OSM    H9S11762   5.094   2.900  10.232  1.4250 -0.3909  0.3387
  113OSM    H9T11763   5.250   2.995  10.264 -0.3817 -0.6236 -1.4057
  113OSM   C10S11764   5.106   3.104  10.155 -0.0026  0.1214 -0.3509
  113OSM   H10S11765   5.147   3.197  10.200 -0.1642  0.6291 -1.2157
  113OSM   H10T11766   4.995   3.111  10.159  0.0680  0.5959  1.2141
  113OSM   C11S11767   5.161   3.087  10.016 -0.1033  0.4506  0.8420
  113OSM   H11S11768   5.127   2.998   9.958  1.3224  0.1131  0.4810
  113OSM   H11T11769   5.271   3.091  10.028 -0.2598  1.3148  2.1103
  113OSM   C12S11770   5.123   3.194   9.913 -0.1646  0.2985  0.0821
  113OSM   H12S11771   5.161   3.289   9.956 -1.1298  0.2362  1.1259
  113OSM   H12T11772   5.013   3.201   9.903  0.0157 -0.1508 -3.6824
  113OSM   C13S11773   5.189   3.170   9.778 -0.0708 -0.4842 -0.0510
  113OSM   H13S11774   5.133   3.087   9.731 -1.1467  1.2016 -1.8777
  113OSM   H13T11775   5.291   3.133   9.800 -0.8727 -2.6250  0.3936
  113OSM   C14S11776   5.178   3.286   9.685  0.3846 -0.8174  0.6475
  113OSM   H14S11777   5.228   3.380   9.718 -1.1769  0.8509 -1.4572
  113OSM   H14T11778   5.070   3.308   9.678  0.3885 -0.1763  2.1608
  113OSM   C15S11779   5.221   3.262   9.541 -0.2216 -0.5203 -0.3082
  113OSM   H15S11780   5.169   3.173   9.500 -2.3051  1.5986 -2.6769
  113OSM   H15T11781   5.331   3.246   9.534 -0.2454 -0.2517 -1.6623
  113OSM   C16S11782   5.180   3.389   9.456  0.5455  0.5130  0.7597
  113OSM   H16S11783   5.231   3.486   9.477 -2.1815  1.9671  1.0574
  113OSM   H16T11784   5.071   3.406   9.462  0.5581  0.7682  0.3085
  113OSM   C17S11785   5.201   3.375   9.300  0.6529 -0.0735  1.0518
  113OSM   H17S11786   5.307   3.375   9.269 -0.3596 -0.2852 -2.8389
  113OSM   H17T11787   5.162   3.467   9.252  2.5475  0.5538  0.6523
  113OSM   C18S11788   5.129   3.256   9.235 -0.6810 -0.0366  0.4241
  113OSM   H18S11789   5.023   3.228   9.256 -1.9895  2.2565 -2.2765
  113OSM   H18T11790   5.187   3.165   9.259  0.9449  0.5581 -1.0296
  113OSM   H18U11791   5.144   3.264   9.125  1.7348 -0.2673  0.6874
  113OSM    C1F11792   5.345   2.442  10.632  0.1582  0.2593  0.5453
  113OSM     OF11793   5.258   2.360  10.666  0.3462 -0.3105  0.1180
  113OSM    C2F11794   5.438   2.434  10.515  0.2960  0.7531  0.5194
  113OSM    H2F11795   5.409   2.347  10.452 -0.9482  1.5162 -0.0125
  113OSM    H2G11796   5.535   2.399  10.556 -0.1414 -0.0410  0.8934
  113OSM    C3F11797   5.452   2.566  10.439  1.3643  0.4951 -0.0913
  113OSM    H3F11798   5.535   2.551  10.367  0.6562 -0.1820 -0.7859
  113OSM    H3G11799   5.482   2.647  10.509 -1.1666 -0.6954  2.5718
  113OSM    C4F11800   5.326   2.602  10.351  0.4577  0.8527 -0.2706
  113OSM    H4F11801   5.341   2.706  10.313  1.0160 -0.2724 -3.4924
  113OSM    H4G11802   5.238   2.589  10.417  0.0648 -2.5051 -1.2449
  113OSM    C5F11803   5.326   2.523  10.215 -0.1734 -0.0643 -0.7624
  113OSM    H5F11804   5.350   2.416  10.233 -0.5513 -0.1258 -0.6223
  113OSM    H5G11805   5.400   2.558  10.139 -0.9286 -0.3922 -1.6660
  113OSM    C6F11806   5.186   2.530  10.154 -0.6174  0.0197 -0.9188
  113OSM    H6F11807   5.154   2.634  10.129 -1.1882 -0.4483 -2.2249
  113OSM    H6G11808   5.113   2.482  10.223 -0.4906 -0.3526 -1.0415
  113OSM    C7F11809   5.181   2.450  10.024  0.2841  0.3434  0.5762
  113OSM    H7F11810   5.204   2.342  10.035  0.5711  0.3972  0.5046
  113OSM    H7G11811   5.250   2.491   9.946 -2.1276 -0.0670 -1.9480
  113OSM    C8F11812   5.042   2.459   9.951 -0.3697  0.5864 -0.1993
  113OSM    H8F11813   5.024   2.568   9.945 -2.4763  0.6049  3.4208
  113OSM    H8G11814   4.972   2.419  10.028  0.8002  2.1194  1.7435
  113OSM    C9F11815   5.026   2.386   9.818 -0.2959  0.2007  0.2664
  113OSM    H9F11816   5.006   2.278   9.832  0.5925 -0.3478 -2.1058
  113OSM   C10F11817   5.029   2.423   9.690  0.3621 -0.4699  0.9677
  113OSM   H10F11818   4.997   2.354   9.610 -2.4204  0.6351  0.9836
  113OSM   C11F11819   5.057   2.563   9.638  0.3036 -0.8097 -0.0736
  113OSM   H11F11820   5.101   2.609   9.729  2.8563  0.0999 -1.6637
  113OSM   H11G11821   4.970   2.617   9.595  0.3750 -0.2517  0.4664
  113OSM   C12F11822   5.169   2.574   9.531 -0.0222  0.6917 -0.6176
  113OSM   H12F11823   5.131   2.501   9.456  0.9662 -0.7121  0.1999
  113OSM   H12G11824   5.262   2.532   9.576 -0.3478  0.1736 -0.4245
  113OSM   C13F11825   5.179   2.715   9.469  0.3788 -0.0154 -1.3514
  113OSM   H13F11826   5.179   2.799   9.542  0.6783 -1.1865  0.0398
  113OSM   H13G11827   5.094   2.721   9.398 -0.3485  1.6363 -0.4020
  113OSM   C14F11828   5.309   2.745   9.397  0.0114 -0.3885 -0.3745
  113OSM   H14F11829   5.392   2.750   9.471  1.9184  1.5919 -2.4554
  113OSM   H14G11830   5.305   2.844   9.345  1.6819 -0.8433 -1.4470
  113OSM   C15F11831   5.348   2.649   9.281 -0.4832  0.3308  0.0869
  113OSM   H15F11832   5.394   2.553   9.315  0.6931  0.6832 -0.4398
  113OSM   H15G11833   5.435   2.688   9.225  0.0202 -1.1397 -0.2043
  113OSM   C16F11834   5.234   2.619   9.183 -0.6463  0.2602 -0.0706
  113OSM   H16F11835   5.228   2.706   9.115  1.7262  1.6538  1.3499
  113OSM   H16G11836   5.136   2.592   9.227 -0.4544  1.5217  1.1990
  113OSM   C17F11837   5.284   2.497   9.094  0.5216  0.3693  0.0931
  113OSM   H17F11838   5.315   2.405   9.149 -1.6213 -1.4284 -1.5263
  113OSM   H17G11839   5.373   2.522   9.031 -0.3346  0.7111 -1.0040
  113OSM   C18F11840   5.182   2.453   8.987 -0.5358 -0.6402 -0.0409
  113OSM   H18F11841   5.096   2.427   9.053  1.8931  0.3318  3.8954
  113OSM   H18G11842   5.220   2.372   8.921 -0.6168 -0.3661 -0.4266
  113OSM   H18H11843   5.147   2.536   8.923  0.8289  0.0144  0.0205
  114OSM      N11844   1.671   5.597  11.187  0.1944 -0.3572  0.4501
  114OSM    C1511845   1.765   5.554  11.077 -0.3970 -0.0427  0.6245
  114OSM   H15A11846   1.836   5.476  11.101  0.5151  0.7392  0.5419
  114OSM   H15B11847   1.837   5.633  11.058 -1.1789  0.8709  1.3373
  114OSM   H15C11848   1.715   5.534  10.984 -1.1272 -1.9391  1.3789
  114OSM    C1411849   1.560   5.505  11.191  0.3042  0.4760 -0.0267
  114OSM   H14A11850   1.475   5.561  11.228  0.4578  0.1185  0.9112
  114OSM   H14B11851   1.574   5.431  11.269 -4.2409 -1.1657 -0.5009
  114OSM   H14C11852   1.530   5.463  11.096  0.0948  1.1135 -0.2427
  114OSM    C1311853   1.747   5.591  11.315 -0.0344 -0.2628  0.8139
  114OSM   H13A11854   1.842   5.642  11.315  0.3802 -0.9753  2.3101
  114OSM   H13B11855   1.761   5.485  11.331  1.6793 -0.2022 -0.0689
  114OSM   H13C11856   1.695   5.628  11.402 -0.2082  0.6802  0.3232
  114OSM    C1211857   1.606   5.735  11.169  0.2136 -0.0921 -0.4569
  114OSM   H12A11858   1.685   5.810  11.169  1.6809 -1.5741 -0.3562
  114OSM   H12B11859   1.547   5.753  11.257  0.4241 -2.7905  0.3344
  114OSM    C1111860   1.519   5.775  11.048  0.1748  0.3723 -0.6563
  114OSM   H11A11861   1.578   5.759  10.955  1.1530  1.4758 -0.2421
  114OSM   H11B11862   1.509   5.885  11.056  0.3474  0.3527 -0.1865
  114OSM      P11863   1.299   5.714  10.938 -0.0551  0.1459 -0.0075
  114OSM    O1311864   1.209   5.597  10.922  0.1060  0.3716  0.7390
  114OSM    O1411865   1.246   5.853  10.959  0.1329  0.1508 -0.2808
  114OSM    O1111866   1.399   5.719  10.811 -0.1640 -0.1530  0.1387
  114OSM    O1211867   1.398   5.692  11.051  0.6328 -0.4266  0.0777
  114OSM    C1S11868   1.461   5.597  10.772  0.0240 -0.0748 -0.0856
  114OSM    H1S11869   1.399   5.505  10.760 -0.8458  0.6856 -1.7134
  114OSM    H1T11870   1.541   5.565  10.843 -1.4082 -1.6463  0.8891
  114OSM     NF11871   1.605   5.494  10.596  0.2961  0.0000 -0.7942
  114OSM    HNF11872   1.692   5.475  10.641  1.3154  1.0848 -2.2292
  114OSM    C2S11873   1.545   5.620  10.638 -0.2891  0.3997  0.2190
  114OSM    H2S11874   1.470   5.665  10.569  0.9922  1.7285 -0.3597
  114OSM    C3S11875   1.647   5.738  10.653 -0.1203 -0.0551 -0.0812
  114OSM    H3S11876   1.717   5.705  10.733 -2.9038  0.3541  2.7079
  114OSM     O311877   1.585   5.859  10.703  0.4163  0.5787  0.5400
  114OSM    HO311878   1.502   5.829  10.741 -0.3736 -1.7265 -2.6095
  114OSM    C4S11879   1.735   5.759  10.527  0.1924  0.0815  0.5734
  114OSM    H4S11880   1.828   5.700  10.534 -0.0513 -0.3403  0.3058
  114OSM    C5S11881   1.709   5.848  10.421  0.0632  0.2352 -0.3242
  114OSM    H5S11882   1.627   5.920  10.431  0.5990  0.6171  1.6108
  114OSM    C6S11883   1.791   5.853  10.294  0.8594  0.7085  0.9119
  114OSM    H6S11884   1.889   5.903  10.309  1.3759  0.5900 -1.7057
  114OSM    H6T11885   1.738   5.910  10.215  0.8164 -0.2094  0.2590
  114OSM    C7S11886   1.821   5.708  10.237  0.4469  0.3347  0.1643
  114OSM    H7S11887   1.728   5.648  10.245 -0.3740  1.3323 -1.5391
  114OSM    H7T11888   1.890   5.652  10.305 -0.0815  1.6486  1.8414
  114OSM    C8S11889   1.870   5.695  10.089  0.2233  0.8852  0.2437
  114OSM    H8S11890   1.900   5.589  10.076 -0.1271  0.8712 -0.5116
  114OSM    H8T11891   1.955   5.767  10.079  0.3282  0.8182  0.6518
  114OSM    C9S11892   1.767   5.728   9.983 -0.4965 -1.2609  0.0011
  114OSM    H9S11893   1.727   5.826  10.015 -1.0095 -2.1439  2.2410
  114OSM    H9T11894   1.681   5.658   9.992 -1.6284 -0.5281 -3.5054
  114OSM   C10S11895   1.801   5.731   9.835  0.0074 -0.7377  0.6487
  114OSM   H10S11896   1.709   5.742   9.773 -0.3608  1.3546  1.4682
  114OSM   H10T11897   1.865   5.644   9.809  0.3569 -0.5241  0.7870
  114OSM   C11S11898   1.883   5.854   9.797 -0.4171 -0.1769 -0.4313
  114OSM   H11S11899   1.964   5.864   9.872 -1.0800  1.4966  0.1039
  114OSM   H11T11900   1.823   5.947   9.807  0.3285  0.1190  1.7548
  114OSM   C12S11901   1.930   5.843   9.653  0.0051 -0.2653  0.8314
  114OSM   H12S11902   1.973   5.744   9.627  0.1944  0.4409 -1.8266
  114OSM   H12T11903   2.003   5.923   9.630 -1.6000  0.4535 -2.2565
  114OSM   C13S11904   1.822   5.898   9.558  0.4673 -0.4520 -0.6019
  114OSM   H13S11905   1.802   6.005   9.578 -0.4317 -0.3932 -1.7155
  114OSM   H13T11906   1.726   5.850   9.585  0.3240 -0.6295 -1.3949
  114OSM   C14S11907   1.842   5.883   9.404  0.7254  0.2012  0.3007
  114OSM   H14S11908   1.753   5.884   9.337  1.6869  3.3168 -1.1071
  114OSM   H14T11909   1.878   5.778   9.397 -0.2023 -0.1005 -0.0698
  114OSM   C15S11910   1.943   5.983   9.337 -0.1551 -0.2572 -0.4544
  114OSM   H15S11911   2.036   5.979   9.397  0.3574 -0.6279 -1.2584
  114OSM   H15T11912   1.903   6.082   9.370  1.7515  0.2627  0.3913
  114OSM   C16S11913   1.973   5.966   9.189  0.3659 -0.3701 -0.2426
  114OSM   H16S11914   1.979   5.858   9.163 -0.9463  0.1029 -2.8229
  114OSM   H16T11915   2.073   6.009   9.164  0.7057 -1.5197 -0.9373
  114OSM   C17S11916   1.861   6.025   9.102 -0.4703  0.1566 -0.8166
  114OSM   H17S11917   1.868   6.131   9.133  0.6504 -0.3865  0.9545
  114OSM   H17T11918   1.761   5.985   9.129 -0.6079 -0.5210 -2.2189
  114OSM   C18S11919   1.884   6.017   8.956  0.3878 -0.7390 -0.2465
  114OSM   H18S11920   1.980   6.067   8.932 -1.0713  2.2527 -0.2929
  114OSM   H18T11921   1.817   6.085   8.899  2.7692  1.5199 -0.5405
  114OSM   H18U11922   1.871   5.915   8.915 -2.2223  0.2543 -2.1176
  114OSM    C1F11923   1.534   5.387  10.561 -0.0840  0.1522  0.3791
  114OSM     OF11924   1.409   5.390  10.548 -0.2559 -0.2250  0.1317
  114OSM    C2F11925   1.617   5.264  10.537 -0.2406  0.1169  0.4993
  114OSM    H2F11926   1.572   5.183  10.598 -0.5268 -1.5060 -1.7379
  114OSM    H2G11927   1.720   5.290  10.571 -0.8795  1.9981  1.1145
  114OSM    C3F11928   1.619   5.221  10.390  0.2416  0.5627 -0.3170
  114OSM    H3F11929   1.513   5.235  10.359 -0.4874  1.7270  2.4166
  114OSM    H3G11930   1.656   5.116  10.393 -0.6106  0.1742 -1.9818
  114OSM    C4F11931   1.709   5.307  10.306 -0.6542 -0.7409 -0.4850
  114OSM    H4F11932   1.806   5.334  10.352 -1.0354 -1.1149  0.5476
  114OSM    H4G11933   1.655   5.403  10.288 -0.0844 -0.3629 -0.1932
  114OSM    C5F11934   1.737   5.244  10.165 -0.9548 -0.2944 -0.3259
  114OSM    H5F11935   1.647   5.184  10.139 -0.6075 -1.3595  0.8269
  114OSM    H5G11936   1.815   5.165  10.173 -1.4154 -0.5834  3.4363
  114OSM    C6F11937   1.776   5.344  10.057  0.3923  0.1353 -0.5761
  114OSM    H6F11938   1.886   5.362  10.063  0.3272  0.4393 -0.2659
  114OSM    H6G11939   1.714   5.436  10.066  0.1442 -0.1322  0.5547
  114OSM    C7F11940   1.759   5.276   9.921 -0.4892  0.4839 -0.2058
  114OSM    H7F11941   1.649   5.276   9.909 -0.8346  0.7561  2.4648
  114OSM    H7G11942   1.787   5.169   9.936 -2.7568  0.1923  2.9918
  114OSM    C8F11943   1.824   5.347   9.802 -0.3298  0.1122  0.2313
  114OSM    H8F11944   1.931   5.370   9.823 -0.2620 -1.3507  1.8146
  114OSM    H8G11945   1.778   5.448   9.813 -0.9152  0.0695 -1.5950
  114OSM    C9F11946   1.796   5.271   9.677  0.2802 -0.5247 -0.5013
  114OSM    H9F11947   1.823   5.164   9.675 -0.0715 -0.6183 -0.3146
  114OSM   C10F11948   1.725   5.325   9.573  0.3932  0.1146  0.7234
  114OSM   H10F11949   1.703   5.268   9.481 -0.8668  1.4776  0.1456
  114OSM   C11F11950   1.659   5.461   9.577  0.4139 -0.0960  0.4756
  114OSM   H11F11951   1.721   5.545   9.614 -1.4616  3.0759 -2.9605
  114OSM   H11G11952   1.556   5.455   9.618  0.4636 -3.9248  0.3913
  114OSM   C12F11953   1.640   5.501   9.436  0.3633 -0.0349  0.1510
  114OSM   H12F11954   1.585   5.598   9.435  0.9879  0.3244 -0.0563
  114OSM   H12G11955   1.566   5.435   9.387  2.6300  0.2070 -3.9838
  114OSM   C13F11956   1.759   5.504   9.341 -0.8328 -0.0278  0.3039
  114OSM   H13F11957   1.788   5.400   9.313  1.0206  0.8146 -1.1544
  114OSM   H13G11958   1.846   5.549   9.393 -0.0853  0.1309 -1.0294
  114OSM   C14F11959   1.741   5.575   9.202 -0.4365  1.1201 -0.9318
  114OSM   H14F11960   1.842   5.595   9.162 -0.3368  0.8559 -0.8145
  114OSM   H14G11961   1.705   5.677   9.229  0.4109  1.2472 -0.2659
  114OSM   C15F11962   1.635   5.510   9.110 -0.0704  0.0594  0.9274
  114OSM   H15F11963   1.538   5.474   9.151 -0.9808 -1.5592 -2.2278
  114OSM   H15G11964   1.682   5.416   9.075 -0.2782  1.1169 -2.5783
  114OSM   C16F11965   1.602   5.592   8.983  0.3636 -0.2953  0.3864
  114OSM   H16F11966   1.554   5.688   9.011  2.3607  0.8839 -0.0628
  114OSM   H16G11967   1.533   5.523   8.931 -0.1812 -1.7937  2.9255
  114OSM   C17F11968   1.725   5.615   8.889  0.1917  0.1187 -0.9311
  114OSM   H17F11969   1.800   5.535   8.871  2.4602  2.1321 -0.9549
  114OSM   H17G11970   1.785   5.692   8.941 -2.8965  1.4191  0.9889
  114OSM   C18F11971   1.670   5.662   8.751 -0.1153 -0.7934 -0.5980
  114OSM   H18F11972   1.599   5.746   8.766 -0.8621 -0.8570 -3.2349
  114OSM   H18G11973   1.613   5.585   8.696 -0.1959 -2.0727  1.1869
  114OSM   H18H11974   1.753   5.685   8.681 -0.1568  0.2673 -0.3207
  115OSM      N11975   5.002   5.201  10.981 -0.1191 -0.2028  0.3778
  115OSM    C1511976   4.994   5.233  10.834  0.9871  0.0346 -0.3053
  115OSM   H15A11977   5.085   5.216  10.777  0.2950 -0.1088 -1.3998
  115OSM   H15B11978   4.970   5.336  10.815  1.3963  0.0794 -0.5993
  115OSM   H15C11979   4.908   5.180  10.797 -1.0057  1.7147  1.6679
  115OSM    C1411980   5.114   5.267  11.037 -0.2342 -0.7035  0.1606
  115OSM   H14A11981   5.117   5.374  11.020 -0.9090 -0.3609  1.9095
  115OSM   H14B11982   5.208   5.234  10.995  1.0274  0.0229  2.2157
  115OSM   H14C11983   5.125   5.257  11.144 -1.1146 -1.3237  0.2006
  115OSM    C1311984   4.890   5.253  11.051  0.5833 -0.0879 -0.5648
  115OSM   H13A11985   4.905   5.271  11.157 -0.4373  1.0931 -0.5977
  115OSM   H13B11986   4.806   5.185  11.049 -0.9960  1.7048  0.6171
  115OSM   H13C11987   4.862   5.350  11.015  2.3766  1.0946  1.0277
  115OSM    C1211988   5.008   5.049  11.015 -0.1986 -0.1222 -0.2149
  115OSM   H12A11989   4.905   5.015  11.010 -0.1409 -0.6328  1.3687
  115OSM   H12B11990   5.041   5.040  11.118  0.5635  0.4781 -0.4026
  115OSM    C1111991   5.099   4.955  10.922  0.4432 -0.2022  0.7824
  115OSM   H11A11992   5.058   4.959  10.819 -1.1881  0.4414  1.4338
  115OSM   H11B11993   5.077   4.849  10.945  0.2522 -0.7084 -1.4836
  115OSM      P11994   5.331   5.057  10.837 -0.2727 -0.3027 -0.8900
  115OSM    O1311995   5.351   5.197  10.879 -0.4516  0.3279  0.3599
  115OSM    O1411996   5.452   4.978  10.814 -0.0959  0.2729  0.7341
  115OSM    O1111997   5.241   5.054  10.710  0.0527  0.5563 -0.0795
  115OSM    O1211998   5.239   4.978  10.940 -0.4678 -0.0982  0.2200
  115OSM    C1S11999   5.274   5.160  10.612  0.4061 -0.3239  0.8379
  115OSM    H1S12000   5.384   5.175  10.606  0.7814 -2.5669  1.0496
  115OSM    H1T12001   5.229   5.256  10.646  0.3339 -0.5520  1.4125
  115OSM     NF12002   5.257   5.209  10.362  0.1994 -0.6054  0.0877
  115OSM    HNF12003   5.188   5.275  10.331 -0.4146 -1.2387  0.0762
  115OSM    C2S12004   5.218   5.120  10.465 -0.0295  0.2173 -0.3568
  115OSM    H2S12005   5.269   5.025  10.438  0.3077  0.4380 -0.5074
  115OSM    C3S12006   5.065   5.098  10.470 -0.3526 -0.0897  0.1974
  115OSM    H3S12007   5.015   5.190  10.506  1.4238  0.6982  0.7820
  115OSM     O312008   5.025   4.998  10.561 -0.0167  0.0081  0.7224
  115OSM    HO312009   5.105   4.982  10.612  0.2663  0.6338  0.4883
  115OSM    C4S12010   5.006   5.083  10.330 -0.6065 -0.1598  0.6723
  115OSM    H4S12011   4.964   5.174  10.285 -0.6020 -0.4634  0.0408
  115OSM    C5S12012   4.989   4.965  10.267  0.4010 -0.2999  0.4545
  115OSM    H5S12013   5.035   4.878  10.317  1.7003  0.8662  1.3895
  115OSM    C6S12014   4.924   4.937  10.135 -0.2180 -0.1088 -0.5236
  115OSM    H6S12015   4.829   4.885  10.162  0.6198 -0.7912  1.2401
  115OSM    H6T12016   4.986   4.864  10.079 -1.1594  0.5824 -2.5484
  115OSM    C7S12017   4.901   5.056  10.040  0.3315 -0.4090  0.1756
  115OSM    H7S12018   4.997   5.105  10.015  0.2905 -0.1118  0.5999
  115OSM    H7T12019   4.837   5.130  10.092 -0.9707  0.4033 -2.4144
  115OSM    C8S12020   4.823   5.009   9.912 -0.0416 -0.4112 -0.0117
  115OSM    H8S12021   4.802   5.103   9.856  1.3564 -1.0955 -1.7575
  115OSM    H8T12022   4.726   4.968   9.949 -0.3751  0.1523 -0.2338
  115OSM    C9S12023   4.888   4.909   9.823  0.1915  1.1379  0.0761
  115OSM    H9S12024   4.868   4.812   9.873  0.9566 -0.9164 -3.2708
  115OSM    H9T12025   4.997   4.916   9.805  0.0574 -0.0414 -1.3928
  115OSM   C10S12026   4.805   4.899   9.694 -0.0705  0.1260  0.0340
  115OSM   H10S12027   4.807   4.997   9.642 -0.5372  0.0141 -0.2081
  115OSM   H10T12028   4.698   4.890   9.723  0.2162 -1.4286  0.7485
  115OSM   C11S12029   4.831   4.790   9.589  0.6502 -0.0522 -0.6352
  115OSM   H11S12030   4.848   4.702   9.655  0.0271  0.9651  0.9443
  115OSM   H11T12031   4.924   4.818   9.536  0.6749 -0.5002 -0.8287
  115OSM   C12S12032   4.720   4.780   9.492  0.8852  0.8169 -0.1992
  115OSM   H12S12033   4.710   4.882   9.448 -1.0102 -0.5201 -3.2603
  115OSM   H12T12034   4.626   4.755   9.546  0.2231  3.7066  0.1643
  115OSM   C13S12035   4.745   4.680   9.377  0.1736 -0.3162 -0.1774
  115OSM   H13S12036   4.824   4.714   9.307  1.0061 -2.5785 -0.4229
  115OSM   H13T12037   4.650   4.685   9.319 -0.5684  3.7098  1.0724
  115OSM   C14S12038   4.791   4.537   9.419  0.3212  0.2922 -0.8931
  115OSM   H14S12039   4.738   4.504   9.511 -0.3692  0.3740 -1.2484
  115OSM   H14T12040   4.896   4.543   9.454  0.2878  2.1762 -1.0629
  115OSM   C15S12041   4.772   4.433   9.310 -0.5966  0.4778  0.2199
  115OSM   H15S12042   4.827   4.463   9.218 -1.5963  0.7836 -0.2969
  115OSM   H15T12043   4.664   4.426   9.286 -0.1340  0.8116 -2.1841
  115OSM   C16S12044   4.803   4.290   9.360 -0.6084  0.3873 -0.2472
  115OSM   H16S12045   4.798   4.217   9.276 -1.2187 -0.1403  0.2381
  115OSM   H16T12046   4.730   4.263   9.439 -1.8515 -0.4196 -1.5970
  115OSM   C17S12047   4.941   4.265   9.429 -0.5536  0.6421 -0.1775
  115OSM   H17S12048   4.945   4.326   9.522 -1.3348 -0.2701  0.4782
  115OSM   H17T12049   5.025   4.302   9.367  0.4638 -1.9565 -0.5020
  115OSM   C18S12050   4.960   4.112   9.470  0.2180 -0.2379  0.1970
  115OSM   H18S12051   4.985   4.052   9.380  0.8422 -2.7643  1.9111
  115OSM   H18T12052   4.880   4.063   9.530  0.5308  0.5279  1.2819
  115OSM   H18U12053   5.050   4.104   9.535  1.1998  1.6664 -0.8384
  115OSM    C1F12054   5.386   5.238  10.326 -0.4560 -0.5001  0.0340
  115OSM     OF12055   5.479   5.180  10.372 -0.3724 -0.2669 -0.3360
  115OSM    C2F12056   5.402   5.371  10.253  0.4656 -0.0540  0.0423
  115OSM    H2F12057   5.376   5.449  10.328  2.4219 -1.9578  2.9371
  115OSM    H2G12058   5.327   5.385  10.173  0.4912 -0.7069 -0.1039
  115OSM    C3F12059   5.541   5.396  10.187 -0.4755  0.2915  0.6826
  115OSM    H3F12060   5.572   5.315  10.118  3.8917  1.5493  0.8708
  115OSM    H3G12061   5.610   5.410  10.273 -0.0769 -1.6473  0.7250
  115OSM    C4F12062   5.544   5.524  10.108 -0.6565  0.5045 -0.4241
  115OSM    H4F12063   5.650   5.550  10.087 -0.1283 -0.6294  0.7219
  115OSM    H4G12064   5.518   5.606  10.179 -0.6470  0.1006  0.0558
  115OSM    C5F12065   5.471   5.526   9.970  0.9626 -0.5571 -0.2719
  115OSM    H5F12066   5.461   5.634   9.945  0.5043 -0.6727 -0.5954
  115OSM    H5G12067   5.369   5.485   9.984  0.0430  1.8343  0.5805
  115OSM    C6F12068   5.526   5.439   9.860  0.2256 -0.5547 -0.0731
  115OSM    H6F12069   5.543   5.333   9.888 -0.2153 -0.1397  1.9344
  115OSM    H6G12070   5.622   5.475   9.818  0.8406 -1.6389  0.3603
  115OSM    C7F12071   5.422   5.442   9.738  0.3142 -0.6375  0.3705
  115OSM    H7F12072   5.391   5.548   9.725 -1.7062 -1.0734  1.1156
  115OSM    H7G12073   5.333   5.391   9.781  0.1509 -0.4073  0.3089
  115OSM    C8F12074   5.467   5.366   9.614  0.6355  0.1817  0.1835
  115OSM    H8F12075   5.377   5.344   9.553 -0.6866  0.8324  1.8017
  115OSM    H8G12076   5.511   5.268   9.644  0.6219  0.3439  0.7424
  115OSM    C9F12077   5.565   5.449   9.532  0.1625 -0.2831 -0.2963
  115OSM    H9F12078   5.664   5.458   9.580  0.0263  1.1236 -0.2115
  115OSM   C10F12079   5.548   5.504   9.410 -0.0966  0.3435 -0.2110
  115OSM   H10F12080   5.626   5.567   9.365 -0.5013  1.0255  0.0194
  115OSM   C11F12081   5.427   5.494   9.325  0.1605  0.1781 -0.7999
  115OSM   H11F12082   5.386   5.592   9.292  0.0710  1.1296  1.8990
  115OSM   H11G12083   5.338   5.460   9.383  1.1037  0.0987  0.6555
  115OSM   C12F12084   5.447   5.407   9.202 -0.0775 -0.4367 -0.3851
  115OSM   H12F12085   5.365   5.406   9.128 -0.8055  0.4673  0.3778
  115OSM   H12G12086   5.460   5.300   9.229  1.5889 -0.2631 -0.3915
  115OSM   C13F12087   5.568   5.453   9.115  0.0344 -0.3601 -0.0946
  115OSM   H13F12088   5.660   5.418   9.166 -0.8178 -1.8911  0.4687
  115OSM   H13G12089   5.553   5.563   9.109  0.1565 -0.1550  2.3118
  115OSM   C14F12090   5.560   5.382   8.980 -0.6112 -0.4445  0.0752
  115OSM   H14F12091   5.463   5.409   8.933 -1.5913 -1.4124  1.4724
  115OSM   H14G12092   5.563   5.272   8.993 -1.2230 -0.3191  1.4331
  115OSM   C15F12093   5.675   5.434   8.886  0.4823 -0.3477 -0.4842
  115OSM   H15F12094   5.764   5.433   8.952 -1.1127  0.3694  1.7582
  115OSM   H15G12095   5.645   5.538   8.861 -1.0267 -0.5813  0.2762
  115OSM   C16F12096   5.707   5.354   8.761  0.6769  0.1013 -0.3740
  115OSM   H16F12097   5.617   5.330   8.700  1.1056 -0.3472 -0.8440
  115OSM   H16G12098   5.749   5.256   8.791  3.4123  1.8015  1.8282
  115OSM   C17F12099   5.805   5.432   8.670 -0.2114 -0.2048  0.4651
  115OSM   H17F12100   5.901   5.424   8.726  0.2463 -1.4572 -0.4430
  115OSM   H17G12101   5.773   5.537   8.654 -0.2924 -0.6172 -2.9783
  115OSM   C18F12102   5.828   5.372   8.528 -0.3077 -0.0609 -0.4065
  115OSM   H18F12103   5.855   5.265   8.544 -0.2135  0.0043 -0.1147
  115OSM   H18G12104   5.910   5.425   8.475 -0.6035 -0.4551 -1.2741
  115OSM   H18H12105   5.728   5.365   8.479 -1.4734  1.2239  1.6204
  116OSM      N12106   1.220   0.532  11.223  0.3500  0.3305  0.2623
  116OSM    C1512107   1.065   0.536  11.233 -0.1982 -0.7076  0.3917
  116OSM   H15A12108   1.012   0.578  11.148 -0.3190  1.3019  1.3942
  116OSM   H15B12109   1.028   0.587  11.321 -0.9764 -0.3925 -0.1054
  116OSM   H15C12110   1.027   0.435  11.241 -3.5021  0.5056  1.8417
  116OSM    C1412111   1.270   0.456  11.337 -0.5665 -0.0904 -0.6993
  116OSM   H14A12112   1.218   0.364  11.359 -0.6098  0.3667  1.3857
  116OSM   H14B12113   1.241   0.511  11.426  0.5662  2.7754 -1.9775
  116OSM   H14C12114   1.378   0.443  11.336 -0.2918  1.8865 -0.8663
  116OSM    C1312115   1.261   0.449  11.104 -0.3821  0.5072  0.5948
  116OSM   H13A12116   1.222   0.490  11.012 -0.6294 -1.2186 -0.0919
  116OSM   H13B12117   1.227   0.347  11.105 -1.8035  0.9063 -0.9088
  116OSM   H13C12118   1.368   0.459  11.098 -0.3664  1.0211  1.4935
  116OSM    C1212119   1.287   0.671  11.211 -0.8822  0.7463 -0.2790
  116OSM   H12A12120   1.265   0.731  11.297  1.0784  0.3506  0.5444
  116OSM   H12B12121   1.254   0.718  11.119  2.3536 -0.1445 -2.0667
  116OSM    C1112122   1.439   0.676  11.195  0.5087  0.1370  0.2010
  116OSM   H11A12123   1.490   0.638  11.287 -0.1015  1.9189  1.3218
  116OSM   H11B12124   1.462   0.785  11.193 -4.3014  1.3661 -0.2664
  116OSM      P12125   1.626   0.557  11.071 -0.2292 -0.0072  0.2959
  116OSM    O1312126   1.713   0.659  11.124  0.2873  0.1079  0.0115
  116OSM    O1412127   1.613   0.429  11.148 -0.1205 -0.1813  0.1759
  116OSM    O1112128   1.656   0.533  10.917  0.0395  0.0717 -0.2774
  116OSM    O1212129   1.486   0.621  11.069 -0.4234  0.5322  0.0548
  116OSM    C1S12130   1.547   0.502  10.822 -0.0204  0.0243 -0.1389
  116OSM    H1S12131   1.456   0.564  10.835 -0.2428  0.5048 -3.2127
  116OSM    H1T12132   1.509   0.398  10.831  0.9815 -0.3932 -0.5627
  116OSM     NF12133   1.488   0.527  10.577  0.4171 -0.1489  0.1322
  116OSM    HNF12134   1.465   0.451  10.517 -1.3761 -1.2755  2.1286
  116OSM    C2S12135   1.600   0.529  10.678  0.5032  0.6278  0.5241
  116OSM    H2S12136   1.649   0.629  10.670  1.1865  0.5383  2.8787
  116OSM    C3S12137   1.710   0.428  10.639 -0.5353 -0.0742 -0.0341
  116OSM    H3S12138   1.657   0.330  10.636 -0.9662 -0.1853  4.3901
  116OSM     O312139   1.805   0.410  10.741 -0.5329 -0.4620  0.3436
  116OSM    HO312140   1.779   0.469  10.813 -0.8432 -0.8410  0.5448
  116OSM    C4S12141   1.781   0.479  10.518  0.0564 -0.3602  0.1393
  116OSM    H4S12142   1.750   0.419  10.431  2.3013  0.9388 -1.6688
  116OSM    C5S12143   1.886   0.552  10.501 -0.2121 -0.5800 -0.1197
  116OSM    H5S12144   1.928   0.604  10.588 -0.5214 -0.2694 -0.1498
  116OSM    C6S12145   1.945   0.591  10.366  0.1253  0.6079 -0.7259
  116OSM    H6S12146   2.050   0.561  10.381 -0.1178  0.0117 -0.1812
  116OSM    H6T12147   1.947   0.702  10.356 -0.3959  0.7640  0.6738
  116OSM    C7S12148   1.892   0.520  10.240  0.2679 -0.0286  0.3142
  116OSM    H7S12149   1.781   0.516  10.237  0.1971 -0.0096  2.0744
  116OSM    H7T12150   1.928   0.415  10.242  0.3975 -0.0498 -1.3917
  116OSM    C8S12151   1.945   0.585  10.113  0.5310 -0.4290 -0.0665
  116OSM    H8S12152   2.056   0.580  10.123  0.4273 -1.5328  0.6799
  116OSM    H8T12153   1.900   0.687  10.115 -0.2605 -0.7775  1.0190
  116OSM    C9S12154   1.893   0.509   9.992 -0.6035 -0.7091 -0.0179
  116OSM    H9S12155   1.784   0.529   9.986 -0.2805  1.7270  1.1616
  116OSM    H9T12156   1.906   0.399  10.001 -1.3083 -0.6924  1.6810
  116OSM   C10S12157   1.964   0.555   9.861  0.0376  0.2941  0.8343
  116OSM   H10S12158   2.073   0.540   9.877  0.5637 -0.6682 -2.6991
  116OSM   H10T12159   1.933   0.659   9.841 -1.8257 -0.1367  1.2858
  116OSM   C11S12160   1.922   0.462   9.748  0.2591 -0.3683  0.0019
  116OSM   H11S12161   1.814   0.459   9.721 -0.0433 -1.9101  1.2278
  116OSM   H11T12162   1.933   0.361   9.792  0.2819 -0.0170  0.8261
  116OSM   C12S12163   2.011   0.474   9.625  0.0779 -0.6090  0.3571
  116OSM   H12S12164   2.113   0.443   9.658  0.1845 -0.8516 -0.1931
  116OSM   H12T12165   2.006   0.578   9.585  0.9512 -0.3362  0.9230
  116OSM   C13S12166   1.965   0.371   9.511 -0.7544  0.1261 -0.3265
  116OSM   H13S12167   1.854   0.380   9.498 -0.8273 -0.9160 -0.5221
  116OSM   H13T12168   1.982   0.275   9.565 -1.3114  0.0256 -0.3153
  116OSM   C14S12169   2.046   0.387   9.387 -1.2171  0.1971 -0.5836
  116OSM   H14S12170   2.034   0.291   9.334 -0.0198 -1.6797  2.3127
  116OSM   H14T12171   2.154   0.407   9.407 -1.4723  2.0479 -0.8021
  116OSM   C15S12172   1.996   0.503   9.300 -0.8967  0.3545  0.0139
  116OSM   H15S12173   1.992   0.600   9.354  0.7008 -0.4341  1.6380
  116OSM   H15T12174   1.890   0.481   9.272 -1.6439 -0.9601  3.3986
  116OSM   C16S12175   2.084   0.519   9.178 -0.1853 -0.1784  0.1824
  116OSM   H16S12176   2.055   0.444   9.101 -1.6164 -0.3554  0.8608
  116OSM   H16T12177   2.191   0.502   9.200 -0.6558 -0.3366  2.6634
  116OSM   C17S12178   2.075   0.658   9.123 -0.5035 -0.0743  0.4403
  116OSM   H17S12179   2.129   0.727   9.193  1.7660 -1.4558  0.1397
  116OSM   H17T12180   1.968   0.688   9.121  0.0398  2.1243  1.2239
  116OSM   C18S12181   2.136   0.683   8.987 -0.2104  0.2635  0.9340
  116OSM   H18S12182   2.079   0.623   8.913  2.7593  0.2153 -1.5081
  116OSM   H18T12183   2.243   0.652   8.989  0.3460  2.0752  3.4622
  116OSM   H18U12184   2.135   0.788   8.952 -0.2655  0.5104  1.6705
  116OSM    C1F12185   1.398   0.622  10.575  0.0432  0.1104  0.1030
  116OSM     OF12186   1.416   0.723  10.642  0.2326 -0.1057  0.4304
  116OSM    C2F12187   1.289   0.606  10.475  0.3710 -0.1155 -0.0188
  116OSM    H2F12188   1.240   0.508  10.494 -2.9474  1.6436  1.2267
  116OSM    H2G12189   1.327   0.619  10.372  0.7703  1.8032  0.3372
  116OSM    C3F12190   1.180   0.707  10.507 -0.3581 -0.0324 -0.0675
  116OSM    H3F12191   1.218   0.808  10.531 -0.7852 -0.2773  1.7367
  116OSM    H3G12192   1.124   0.688  10.601  0.0765  3.1592  0.9571
  116OSM    C4F12193   1.074   0.710  10.391 -0.3663  0.0370 -0.0131
  116OSM    H4F12194   0.992   0.776  10.426 -0.6948 -0.8470  0.9250
  116OSM    H4G12195   1.029   0.610  10.374 -2.6623  0.8774  0.8265
  116OSM    C5F12196   1.132   0.749  10.252  0.3221 -0.4700 -0.8027
  116OSM    H5F12197   1.219   0.684  10.231 -1.3043 -2.5472 -1.4568
  116OSM    H5G12198   1.167   0.855  10.256 -1.0082 -0.0201 -0.5767
  116OSM    C6F12199   1.033   0.748  10.143  0.6962 -0.3667 -1.0698
  116OSM    H6F12200   0.942   0.798  10.184  0.7985 -2.1057  1.5083
  116OSM    H6G12201   1.011   0.641  10.122  2.1676 -1.1804  1.1817
  116OSM    C7F12202   1.098   0.795  10.015 -0.7294  0.4003 -0.0729
  116OSM    H7F12203   1.076   0.722   9.934 -1.4156 -1.0927  1.3843
  116OSM    H7G12204   1.205   0.791  10.046 -0.7739 -1.3063 -0.0198
  116OSM    C8F12205   1.068   0.945   9.968 -0.1224  0.1481 -0.0218
  116OSM    H8F12206   1.150   0.982   9.902 -2.1000  0.0246 -2.6895
  116OSM    H8G12207   1.080   1.005  10.060 -0.4603  0.6267 -0.2889
  116OSM    C9F12208   0.936   0.968   9.903 -0.1855 -0.5043  0.1960
  116OSM    H9F12209   0.848   0.935   9.959 -0.6441 -0.7546 -0.6492
  116OSM   C10F12210   0.914   1.029   9.783 -0.1004 -0.6106  0.3473
  116OSM   H10F12211   0.812   1.031   9.742 -1.8097  3.2080  4.0816
  116OSM   C11F12212   1.017   1.068   9.672 -0.6342  0.4410 -0.8619
  116OSM   H11F12213   1.096   0.991   9.680 -0.8034  0.0670 -2.4012
  116OSM   H11G12214   1.070   1.164   9.689  3.2718 -1.6302 -0.2075
  116OSM   C12F12215   0.980   1.040   9.524 -0.2412  0.1680  0.1830
  116OSM   H12F12216   0.904   1.108   9.479 -1.0285 -0.7787  0.0573
  116OSM   H12G12217   0.944   0.936   9.515  1.5728 -0.4181 -0.7317
  116OSM   C13F12218   1.096   1.052   9.425  0.0310  0.2839 -0.3450
  116OSM   H13F12219   1.137   0.951   9.404 -0.5888 -0.5136  1.9860
  116OSM   H13G12220   1.177   1.114   9.468  0.1675 -1.0719  1.4667
  116OSM   C14F12221   1.057   1.106   9.292  0.5530 -0.2611 -0.0370
  116OSM   H14F12222   1.023   1.210   9.308  0.9215 -0.0038 -0.8945
  116OSM   H14G12223   0.972   1.037   9.270  0.1275  0.7223 -1.5944
  116OSM   C15F12224   1.163   1.100   9.176  0.5163 -0.2631 -1.1764
  116OSM   H15F12225   1.163   0.997   9.135  0.2168 -1.0160  0.6317
  116OSM   H15G12226   1.263   1.129   9.215 -1.0004  2.5042  1.1448
  116OSM   C16F12227   1.108   1.191   9.069  0.1142 -0.0841  0.4551
  116OSM   H16F12228   1.074   1.285   9.117 -0.5132 -1.5484  3.0647
  116OSM   H16G12229   1.017   1.155   9.016  0.8589 -1.7732  0.2413
  116OSM   C17F12230   1.217   1.225   8.961 -0.9158 -0.7726 -0.6905
  116OSM   H17F12231   1.244   1.123   8.924 -0.8837 -1.2424  0.5636
  116OSM   H17G12232   1.313   1.261   9.004 -1.8677  1.4396 -0.3488
  116OSM   C18F12233   1.166   1.305   8.841 -0.1264  0.0972 -0.2969
  116OSM   H18F12234   1.253   1.342   8.784  1.6067  0.2606  2.2867
  116OSM   H18G12235   1.101   1.390   8.872 -2.2095 -1.5607  0.1968
  116OSM   H18H12236   1.097   1.254   8.771 -1.1245  0.2433  0.5484
  117OSM      N12237   5.150   1.455  11.030  0.1121  0.2567  0.3568
  117OSM    C1512238   5.171   1.312  10.978 -0.4348  0.3151  0.4070
  117OSM   H15A12239   5.248   1.321  10.904  1.3230  2.8115  2.3803
  117OSM   H15B12240   5.083   1.278  10.925 -0.1432  1.6789 -1.0111
  117OSM   H15C12241   5.185   1.243  11.060  0.2466 -1.1064 -0.8649
  117OSM    C1412242   5.022   1.450  11.098 -0.2188 -0.3808  0.0344
  117OSM   H14A12243   5.025   1.381  11.181 -1.6986  2.4167  2.6380
  117OSM   H14B12244   4.935   1.424  11.040 -1.3002  0.9625  0.9844
  117OSM   H14C12245   5.001   1.547  11.141 -0.7614 -1.0849  1.4282
  117OSM    C1312246   5.261   1.489  11.127 -0.1164 -0.5433  0.5449
  117OSM   H13A12247   5.273   1.430  11.216  1.0139 -0.7501  0.2685
  117OSM   H13B12248   5.245   1.594  11.148 -0.8639 -0.3515 -0.8426
  117OSM   H13C12249   5.350   1.480  11.067 -0.3577  3.3867 -0.7053
  117OSM    C1212250   5.154   1.554  10.917 -0.1281 -0.7106 -0.7703
  117OSM   H12A12251   5.084   1.519  10.842 -1.1434  1.6946 -1.0385
  117OSM   H12B12252   5.255   1.544  10.880 -0.0364  1.7857 -1.3606
  117OSM    C1112253   5.105   1.699  10.948 -1.0191  0.1304  0.5076
  117OSM   H11A12254   4.996   1.693  10.964 -1.1805 -2.3498 -0.9868
  117OSM   H11B12255   5.131   1.759  10.858  1.7418 -1.6046  0.0073
  117OSM      P12256   5.098   1.865  11.137 -0.0026 -0.4404 -0.3012
  117OSM    O1312257   4.971   1.810  11.190  0.1207 -0.0479  0.1332
  117OSM    O1412258   5.180   1.915  11.242 -0.1582 -0.4712 -0.1879
  117OSM    O1112259   5.078   1.981  11.029 -0.8469 -0.0719 -0.8069
  117OSM    O1212260   5.180   1.751  11.061  0.2159 -0.2024 -0.1390
  117OSM    C1S12261   5.187   2.033  10.952 -0.1000 -0.4773 -0.7104
  117OSM    H1S12262   5.282   1.982  10.979 -0.7882 -0.9688  0.9030
  117OSM    H1T12263   5.207   2.137  10.984  0.6316 -0.7210 -0.3428
  117OSM     NF12264   5.291   2.094  10.745 -0.2443 -0.2436  0.9139
  117OSM    HNF12265   5.289   2.189  10.717  4.2116  0.0842  1.1330
  117OSM    C2S12266   5.171   2.048  10.798  0.3915  0.1179  0.6452
  117OSM    H2S12267   5.147   1.946  10.760  1.0782 -1.4347  3.9555
  117OSM    C3S12268   5.044   2.136  10.772 -0.5414 -0.4361  0.1581
  117OSM    H3S12269   5.067   2.240  10.805  0.7452 -1.0213  1.1757
  117OSM     O312270   4.926   2.095  10.848 -0.4866 -0.6325  0.0158
  117OSM    HO312271   4.978   2.048  10.914  0.4779  0.7126  0.2463
  117OSM    C4S12272   5.018   2.151  10.622 -0.3845  0.3874  0.5095
  117OSM    H4S12273   5.060   2.243  10.578  0.5202  1.2541  2.9882
  117OSM    C5S12274   4.925   2.072  10.557 -0.7351  0.4715  0.0452
  117OSM    H5S12275   4.874   1.990  10.610 -2.4418  1.3039 -0.2412
  117OSM    C6S12276   4.902   2.065  10.405  0.1083 -0.0909 -0.0100
  117OSM    H6S12277   4.793   2.078  10.387  0.0627  1.9905  1.4740
  117OSM    H6T12278   4.926   1.959  10.383  2.0986  0.1041  1.0542
  117OSM    C7S12279   4.990   2.151  10.317  0.6327 -0.3209 -0.2445
  117OSM    H7S12280   5.096   2.140  10.348  1.0978  0.2158 -1.5927
  117OSM    H7T12281   4.963   2.257  10.339 -1.3840 -1.2812  2.5241
  117OSM    C8S12282   4.979   2.135  10.159  0.4251  0.5157 -0.3807
  117OSM    H8S12283   5.030   2.224  10.114  0.3282 -0.2200 -2.0091
  117OSM    H8T12284   4.875   2.158  10.129 -0.6824 -0.6430  2.2365
  117OSM    C9S12285   5.020   1.995  10.108  0.3998 -0.1861  0.0023
  117OSM    H9S12286   4.951   1.920  10.153  1.5643 -0.1581  1.9623
  117OSM    H9T12287   5.119   1.962  10.145  0.7513  1.6933  0.8414
  117OSM   C10S12288   5.033   1.989   9.959 -0.4683 -0.2937 -0.7303
  117OSM   H10S12289   5.099   2.071   9.923 -0.5604  0.5201  0.8884
  117OSM   H10T12290   4.928   2.000   9.926 -0.2065 -1.1326 -1.9091
  117OSM   C11S12291   5.089   1.856   9.911  0.6908 -0.2809  0.3411
  117OSM   H11S12292   5.022   1.779   9.953  1.2593 -1.8474 -1.5139
  117OSM   H11T12293   5.188   1.839   9.959  1.9508  1.4940 -1.4421
  117OSM   C12S12294   5.101   1.847   9.757  0.3088  0.1321 -0.2229
  117OSM   H12S12295   5.143   1.746   9.737 -3.1013 -1.6585  0.9323
  117OSM   H12T12296   5.183   1.910   9.715  0.5750  0.1211  0.2789
  117OSM   C13S12297   4.974   1.858   9.678  0.4017 -0.1684  0.8834
  117OSM   H13S12298   4.910   1.948   9.686 -0.4713 -0.4680 -1.8566
  117OSM   H13T12299   4.905   1.773   9.697  0.6971 -0.2222  1.7886
  117OSM   C14S12300   4.997   1.851   9.525 -0.7101 -0.0858  0.5904
  117OSM   H14S12301   5.100   1.815   9.503 -1.3846 -1.3949 -0.5466
  117OSM   H14T12302   4.997   1.950   9.474  1.0900  0.1357  0.9325
  117OSM   C15S12303   4.899   1.756   9.451 -0.3405  0.2644  0.5308
  117OSM   H15S12304   4.799   1.805   9.445 -0.2646  0.2690 -1.4719
  117OSM   H15T12305   4.881   1.677   9.526  1.1735  0.4057  1.0665
  117OSM   C16S12306   4.945   1.719   9.311  0.2757  0.5200 -0.3896
  117OSM   H16S12307   5.026   1.645   9.324  0.1060  0.7280  2.4735
  117OSM   H16T12308   4.984   1.811   9.262  1.6139 -0.0255 -0.3772
  117OSM   C17S12309   4.836   1.668   9.221 -0.2351 -0.5876 -0.6259
  117OSM   H17S12310   4.763   1.752   9.216 -1.7805 -1.6519  1.9872
  117OSM   H17T12311   4.776   1.586   9.267  0.7192 -0.4235  0.9662
  117OSM   C18S12312   4.886   1.620   9.078  0.1551 -0.2549  0.3457
  117OSM   H18S12313   4.964   1.544   9.102 -1.2528 -1.5892  0.9097
  117OSM   H18T12314   4.927   1.709   9.027 -0.4219 -0.4313 -0.4439
  117OSM   H18U12315   4.805   1.568   9.021 -1.3757  1.4792  0.8460
  117OSM    C1F12316   5.386   2.010  10.711 -0.0787  0.5134  0.5283
  117OSM     OF12317   5.375   1.886  10.727  0.3158  0.1141 -0.1850
  117OSM    C2F12318   5.513   2.064  10.640 -0.2469 -0.9945 -0.1343
  117OSM    H2F12319   5.595   1.996  10.673  0.4047 -0.6398 -0.9816
  117OSM    H2G12320   5.530   2.170  10.668 -5.6169  0.7083 -2.0773
  117OSM    C3F12321   5.511   2.042  10.483  0.0765  0.3218 -0.4514
  117OSM    H3F12322   5.416   2.076  10.436  1.0287  0.7502 -2.1325
  117OSM    H3G12323   5.516   1.932  10.467 -3.7106  0.0842 -1.0647
  117OSM    C4F12324   5.624   2.109  10.397  0.9721  0.6969  0.2214
  117OSM    H4F12325   5.723   2.060  10.413  2.1722  2.5741 -1.0409
  117OSM    H4G12326   5.633   2.219  10.412  2.0135  0.5256  0.9947
  117OSM    C5F12327   5.612   2.106  10.246 -0.6149  0.3244 -0.0137
  117OSM    H5F12328   5.520   2.160  10.213  0.0386  0.6723 -1.3499
  117OSM    H5G12329   5.608   1.999  10.216 -2.3923  0.8302 -1.8237
  117OSM    C6F12330   5.726   2.174  10.173 -0.3517  0.7535  0.3678
  117OSM    H6F12331   5.817   2.132  10.220 -1.4596  0.0360  1.9882
  117OSM    H6G12332   5.739   2.283  10.191  3.1913  0.3836  0.6646
  117OSM    C7F12333   5.736   2.139  10.016 -0.0620 -0.1596  0.1948
  117OSM    H7F12334   5.740   2.030   9.996  0.8780 -0.1934  0.5106
  117OSM    H7G12335   5.835   2.178   9.985 -0.8691  1.8481 -0.0101
  117OSM    C8F12336   5.632   2.214   9.929 -0.1855 -0.5406 -0.9256
  117OSM    H8F12337   5.676   2.247   9.832 -0.8421  4.0778  0.1088
  117OSM    H8G12338   5.612   2.311   9.980 -0.2496 -1.2768  0.4898
  117OSM    C9F12339   5.487   2.169   9.919 -0.8387 -0.5833 -0.9570
  117OSM    H9F12340   5.423   2.191  10.006 -0.4497  0.9807 -1.0399
  117OSM   C10F12341   5.437   2.105   9.815  0.3131  0.1936 -0.0998
  117OSM   H10F12342   5.337   2.057   9.819  1.5741 -2.6563 -0.3699
  117OSM   C11F12343   5.510   2.069   9.683  0.0424 -0.5032  0.0101
  117OSM   H11F12344   5.466   1.972   9.653 -1.4011  0.1638 -0.1350
  117OSM   H11G12345   5.619   2.063   9.704  0.0126 -1.2632 -0.0440
  117OSM   C12F12346   5.476   2.181   9.579  0.2686 -0.0603 -0.1947
  117OSM   H12F12347   5.545   2.154   9.496  1.2584 -0.2916  0.6740
  117OSM   H12G12348   5.507   2.281   9.616 -0.4311  1.1397 -2.6545
  117OSM   C13F12349   5.323   2.170   9.534  0.4217 -0.0958 -0.0675
  117OSM   H13F12350   5.251   2.194   9.615 -2.0591 -1.3120 -1.7892
  117OSM   H13G12351   5.300   2.062   9.519  1.7982 -0.1331 -2.4836
  117OSM   C14F12352   5.291   2.254   9.407  0.0536 -0.3947  0.2621
  117OSM   H14F12353   5.370   2.230   9.332  0.6533  0.2470  0.6730
  117OSM   H14G12354   5.302   2.361   9.433 -0.5420 -0.6684  1.7490
  117OSM   C15F12355   5.157   2.217   9.340  0.4690 -0.4535 -0.0835
  117OSM   H15F12356   5.150   2.286   9.254 -0.0377  0.7493  0.8954
  117OSM   H15G12357   5.070   2.233   9.408 -2.2329 -0.8697 -3.1886
  117OSM   C16F12358   5.164   2.073   9.281  0.4164  0.1357 -0.0464
  117OSM   H16F12359   5.057   2.046   9.276  0.4698 -0.7380  2.3444
  117OSM   H16G12360   5.205   1.993   9.347  0.5210 -0.2181 -0.5328
  117OSM   C17F12361   5.205   2.058   9.131 -0.0469 -0.5482 -0.6647
  117OSM   H17F12362   5.309   2.091   9.112 -0.1202  0.5545  0.6377
  117OSM   H17G12363   5.138   2.130   9.080  2.2356  3.0320  0.9889
  117OSM   C18F12364   5.179   1.918   9.065 -0.4107  0.1154  0.0362
  117OSM   H18F12365   5.233   1.843   9.127  1.4075  1.4237  0.1295
  117OSM   H18G12366   5.240   1.917   8.973  2.0531  0.4110  1.5812
  117OSM   H18H12367   5.069   1.904   9.062 -0.4342 -0.8708  2.8109
  118OSM      N12368   5.986   2.802  11.278 -0.3660 -0.3163 -0.1348
  118OSM    C1512369   6.041   2.941  11.259  0.6823 -0.3703 -0.0425
  118OSM   H15A12370   6.112   2.936  11.178 -0.6539 -3.0805 -1.1902
  118OSM   H15B12371   6.077   2.976  11.354 -1.8899 -0.8091  1.1767
  118OSM   H15C12372   5.961   3.008  11.230  1.2606 -0.4960 -2.0673
  118OSM    C1412373   6.106   2.714  11.299 -0.1331  0.9289 -0.1652
  118OSM   H14A12374   6.153   2.710  11.202  1.0602  1.3445  0.3779
  118OSM   H14B12375   6.090   2.615  11.340 -0.4493  1.6154  1.4662
  118OSM   H14C12376   6.172   2.761  11.371  1.5486  0.1124 -1.1155
  118OSM    C1312377   5.898   2.795  11.401 -0.4125 -0.7455 -0.0498
  118OSM   H13A12378   5.800   2.832  11.377  0.4462  0.9992 -1.1464
  118OSM   H13B12379   5.940   2.855  11.481 -3.5068 -0.9632  1.8929
  118OSM   H13C12380   5.886   2.695  11.439 -0.3539  0.1350  2.5272
  118OSM    C1212381   5.925   2.756  11.147  0.4575  0.4040 -0.2425
  118OSM   H12A12382   5.859   2.671  11.160 -0.6775  1.5362  1.9586
  118OSM   H12B12383   5.995   2.705  11.082 -0.8254 -0.6388 -0.8453
  118OSM    C1112384   5.840   2.858  11.063  0.5800  0.2771  0.2348
  118OSM   H11A12385   5.796   2.813  10.972 -0.1203 -0.5941  0.9795
  118OSM   H11B12386   5.897   2.948  11.031  1.0131 -0.1532 -0.2287
  118OSM      P12387   5.678   3.035  11.177 -0.1624 -0.1334 -0.1740
  118OSM    O1312388   5.575   3.032  11.285 -0.1562  0.2040  0.6491
  118OSM    O1412389   5.796   3.125  11.194 -0.1909  0.0110  0.4419
  118OSM    O1112390   5.597   3.074  11.051  0.5196 -0.0162  0.3808
  118OSM    O1212391   5.722   2.888  11.142  0.1932  0.7009 -0.2640
  118OSM    C1S12392   5.648   3.067  10.914 -0.5084  0.0243  0.6054
  118OSM    H1S12393   5.661   2.966  10.870  2.2078  0.4219  0.3267
  118OSM    H1T12394   5.740   3.129  10.904 -1.7634  1.7397 -0.6846
  118OSM     NF12395   5.622   3.137  10.669 -0.2277  0.7051  0.0018
  118OSM    HNF12396   5.682   3.209  10.635 -0.9462  0.3708 -2.1743
  118OSM    C2S12397   5.567   3.146  10.804  0.4720 -0.1622  0.5161
  118OSM    H2S12398   5.466   3.101  10.797 -0.6216  1.8934  1.8513
  118OSM    C3S12399   5.535   3.291  10.852 -0.2527  0.0620  0.3845
  118OSM    H3S12400   5.632   3.343  10.855 -0.2414  0.1778 -1.1598
  118OSM     O312401   5.478   3.301  10.988  0.4803  0.2651 -0.2968
  118OSM    HO312402   5.519   3.232  11.040 -0.9109  0.6813  1.4527
  118OSM    C4S12403   5.442   3.356  10.756 -0.0071 -0.2789  1.2014
  118OSM    H4S12404   5.491   3.426  10.687 -1.0098 -0.7074  0.0111
  118OSM    C5S12405   5.308   3.369  10.759  0.2599 -0.3585 -0.8078
  118OSM    H5S12406   5.252   3.322  10.841  0.9867 -0.6266 -0.4572
  118OSM    C6S12407   5.215   3.445  10.671  0.1417 -0.0811  0.4383
  118OSM    H6S12408   5.155   3.527  10.718 -2.0996 -1.0536 -0.5846
  118OSM    H6T12409   5.135   3.377  10.637 -0.7431  1.2609 -0.2759
  118OSM    C7S12410   5.254   3.514  10.536 -0.4406  0.5451  0.4178
  118OSM    H7S12411   5.338   3.582  10.560 -0.2205  0.6022 -0.4913
  118OSM    H7T12412   5.169   3.575  10.498 -1.1355 -1.1055 -0.7874
  118OSM    C8S12413   5.294   3.406  10.434 -0.2776  0.2823 -0.0122
  118OSM    H8S12414   5.203   3.355  10.395  0.7962 -0.5905 -1.4817
  118OSM    H8T12415   5.348   3.318  10.475 -0.2525  0.5761  0.5901
  118OSM    C9S12416   5.368   3.455  10.307  0.2527 -0.1639  0.1082
  118OSM    H9S12417   5.449   3.528  10.329  0.2820  0.7746 -2.7015
  118OSM    H9T12418   5.292   3.513  10.249 -0.0789 -1.2748 -0.5915
  118OSM   C10S12419   5.431   3.349  10.221  0.1487 -0.3402  0.1785
  118OSM   H10S12420   5.345   3.279  10.212 -1.5230  1.7866 -1.2413
  118OSM   H10T12421   5.520   3.302  10.268  0.8736  0.8023 -0.0184
  118OSM   C11S12422   5.478   3.422  10.091 -0.8056  0.1889  0.2707
  118OSM   H11S12423   5.564   3.478  10.132 -0.6889 -0.6789  1.2658
  118OSM   H11T12424   5.408   3.492  10.042 -0.3628  0.3098 -0.2040
  118OSM   C12S12425   5.521   3.323   9.987 -0.2562  0.3524  0.1135
  118OSM   H12S12426   5.435   3.261   9.953 -0.9715  1.2462  0.2506
  118OSM   H12T12427   5.591   3.258  10.043 -2.3602 -0.5818  1.8062
  118OSM   C13S12428   5.590   3.382   9.863 -0.7429 -0.4457  1.4115
  118OSM   H13S12429   5.677   3.446   9.890  0.3430 -1.3296  0.1345
  118OSM   H13T12430   5.518   3.455   9.818 -0.4317  0.5841  2.5353
  118OSM   C14S12431   5.627   3.288   9.745  0.4887  0.0619 -0.1966
  118OSM   H14S12432   5.547   3.217   9.717  1.7461 -1.2530 -0.6021
  118OSM   H14T12433   5.708   3.218   9.775  1.1548 -0.5034 -2.9913
  118OSM   C15S12434   5.676   3.361   9.617 -0.2665 -0.2524  0.0014
  118OSM   H15S12435   5.703   3.280   9.546 -2.2651 -1.3774  0.4525
  118OSM   H15T12436   5.767   3.421   9.638 -0.5395  1.8341 -3.8024
  118OSM   C16S12437   5.585   3.463   9.553 -0.0806  0.2225 -0.4090
  118OSM   H16S12438   5.553   3.548   9.617 -1.1082 -0.0417 -0.5561
  118OSM   H16T12439   5.494   3.407   9.523  1.7727 -2.6654 -1.0269
  118OSM   C17S12440   5.642   3.522   9.427  0.3869  0.1441 -0.2051
  118OSM   H17S12441   5.731   3.583   9.456 -0.7287  0.4374  3.1235
  118OSM   H17T12442   5.566   3.589   9.383 -0.4734 -0.8796 -0.3103
  118OSM   C18S12443   5.681   3.425   9.313 -0.3411  0.3600  0.7819
  118OSM   H18S12444   5.704   3.489   9.225 -1.7621 -1.2001 -0.7983
  118OSM   H18T12445   5.601   3.356   9.280  0.9748 -0.7043 -0.2905
  118OSM   H18U12446   5.764   3.360   9.346 -0.0110  1.0419  1.3345
  118OSM    C1F12447   5.614   3.030  10.593  0.0221  0.3651  0.1826
  118OSM     OF12448   5.591   2.922  10.645 -0.2201  0.1084  0.3912
  118OSM    C2F12449   5.632   3.036  10.444 -0.2678  0.1063  0.2871
  118OSM    H2F12450   5.740   3.018  10.423 -0.7791 -1.2805 -1.3016
  118OSM    H2G12451   5.613   3.140  10.411  0.7741  0.0434 -0.5628
  118OSM    C3F12452   5.537   2.948  10.367  0.5174 -0.2871  0.1860
  118OSM    H3F12453   5.435   2.951  10.412  0.8847 -1.8688  1.1840
  118OSM    H3G12454   5.562   2.841  10.384  3.3442  0.4347  0.9539
  118OSM    C4F12455   5.552   2.990  10.220  0.5513  0.0730 -0.5178
  118OSM    H4F12456   5.660   3.014  10.205  1.2719 -0.0242  3.4322
  118OSM    H4G12457   5.491   3.080  10.197  0.6173  0.1431 -0.4196
  118OSM    C5F12458   5.490   2.881  10.134  0.1839 -0.5821 -0.0256
  118OSM    H5F12459   5.380   2.884  10.130  0.0226 -3.4895  0.1310
  118OSM    H5G12460   5.496   2.784  10.187 -1.8955  0.1632  1.7110
  118OSM    C6F12461   5.540   2.880   9.992  0.4484  0.0422  0.1368
  118OSM    H6F12462   5.646   2.845   9.988 -0.3183 -2.6234  1.2075
  118OSM    H6G12463   5.539   2.978   9.939  1.3979 -0.6284 -1.1701
  118OSM    C7F12464   5.462   2.769   9.916 -0.1687 -0.2597  0.3633
  118OSM    H7F12465   5.352   2.787   9.925 -0.5582 -0.9163 -2.1598
  118OSM    H7G12466   5.488   2.666   9.949 -0.9471 -0.7063 -0.3564
  118OSM    C8F12467   5.482   2.767   9.762 -0.3052 -0.0199  0.3729
  118OSM    H8F12468   5.419   2.687   9.717 -2.6568  1.7400  0.3405
  118OSM    H8G12469   5.589   2.741   9.746 -0.3444  1.2590 -2.5602
  118OSM    C9F12470   5.438   2.893   9.689 -0.3760  0.4763 -0.0678
  118OSM    H9F12471   5.330   2.915   9.690 -0.3905  0.6563 -1.8662
  118OSM   C10F12472   5.508   2.967   9.606  0.4670  0.4205 -0.4308
  118OSM   H10F12473   5.452   3.054   9.569  1.1684  2.4309  2.8090
  118OSM   C11F12474   5.646   2.944   9.557  0.0048  0.4285  0.2749
  118OSM   H11F12475   5.699   2.868   9.617  0.8450  2.2933  2.0304
  118OSM   H11G12476   5.712   3.031   9.580  0.5161 -0.4812  2.5093
  118OSM   C12F12477   5.661   2.888   9.414 -0.4989  0.3050  0.3729
  118OSM   H12F12478   5.596   2.799   9.400  2.3502 -2.3170  2.4547
  118OSM   H12G12479   5.767   2.866   9.387 -0.5547 -2.1149  1.8634
  118OSM   C13F12480   5.629   3.000   9.318  0.4899  0.3380  0.5131
  118OSM   H13F12481   5.693   3.090   9.332  0.9971 -0.1753  1.6140
  118OSM   H13G12482   5.529   3.041   9.345  0.9242  1.1070  0.9857
  118OSM   C14F12483   5.622   2.950   9.178 -0.3670  0.3331  0.1874
  118OSM   H14F12484   5.566   3.022   9.115 -0.3156  0.9383  0.8211
  118OSM   H14G12485   5.562   2.857   9.169 -0.2992  0.3833 -0.9096
  118OSM   C15F12486   5.750   2.929   9.094 -0.4702  0.1007 -0.0976
  118OSM   H15F12487   5.721   2.878   9.000  1.2576 -0.1800 -0.5203
  118OSM   H15G12488   5.810   2.852   9.147  0.9796  0.7350 -0.7563
  118OSM   C16F12489   5.840   3.052   9.073  0.5269 -0.6096  0.1774
  118OSM   H16F12490   5.871   3.102   9.168 -3.0085 -0.6497  1.4905
  118OSM   H16G12491   5.770   3.123   9.024  0.2703 -0.7825  0.2887
  118OSM   C17F12492   5.972   3.025   8.988  0.3135  0.3494  0.1240
  118OSM   H17F12493   6.043   2.972   9.055  1.2459 -1.5658 -2.2207
  118OSM   H17G12494   6.012   3.127   8.966  0.0216  0.9618  2.1840
  118OSM   C18F12495   5.940   2.963   8.856  0.0027  0.4202  0.4037
  118OSM   H18F12496   5.936   2.852   8.860  0.2615  0.4039  0.2440
  118OSM   H18G12497   6.022   2.995   8.789 -2.1616  0.3683 -2.4908
  118OSM   H18H12498   5.842   3.002   8.819  0.9829  0.8490 -1.9375
  119OSM      N12499   0.370   1.489  11.272 -0.2084 -0.0674  0.4323
  119OSM    C1512500   0.515   1.498  11.295 -0.2094  0.2560  0.6304
  119OSM   H15A12501   0.524   1.533  11.397  2.7069 -2.4814  1.5188
  119OSM   H15B12502   0.556   1.574  11.230 -0.3516 -0.5789 -0.4624
  119OSM   H15C12503   0.570   1.407  11.273  0.5361 -0.0871  3.5302
  119OSM    C1412504   0.314   1.365  11.342  0.5509  0.1163  0.8197
  119OSM   H14A12505   0.208   1.377  11.357  0.5792  1.3079  0.1759
  119OSM   H14B12506   0.375   1.362  11.431 -2.0595 -1.5563  2.7016
  119OSM   H14C12507   0.327   1.270  11.291 -0.9109  1.0944 -1.5130
  119OSM    C1312508   0.300   1.608  11.335 -1.1339 -0.0887 -0.0238
  119OSM   H13A12509   0.328   1.703  11.291  1.2741 -0.3764  0.7172
  119OSM   H13B12510   0.334   1.618  11.437 -0.1356  1.0270 -0.4409
  119OSM   H13C12511   0.195   1.591  11.316 -1.3276 -0.2176  1.0703
  119OSM    C1212512   0.329   1.491  11.127  0.0470 -0.4268 -0.4391
  119OSM   H12A12513   0.222   1.473  11.126 -0.1037  0.4295 -0.0301
  119OSM   H12B12514   0.387   1.415  11.076  2.0215  0.9428 -0.3305
  119OSM    C1112515   0.346   1.615  11.040 -0.1565  0.2519 -0.0865
  119OSM   H11A12516   0.328   1.589  10.933  1.6118 -2.0562  0.0882
  119OSM   H11B12517   0.451   1.648  11.056 -0.2906  0.7758 -0.2829
  119OSM      P12518   0.099   1.720  11.042  0.0520  0.3302  0.0529
  119OSM    O1312519   0.031   1.602  11.100 -0.3596 -0.1291  0.3068
  119OSM    O1412520   0.044   1.853  11.083 -0.9560  0.0544  0.0428
  119OSM    O1112521   0.115   1.707  10.885  0.6320  0.0608 -0.1165
  119OSM    O1212522   0.256   1.719  11.081 -0.2369 -0.6732  0.7798
  119OSM    C1S12523   0.002   1.704  10.798  0.1070 -0.0684 -0.6532
  119OSM    H1S12524  -0.049   1.803  10.804  1.9538  0.8393  1.8753
  119OSM    H1T12525  -0.073   1.630  10.833  0.1236 -1.0291 -2.5059
  119OSM     NF12526  -0.078   1.677  10.569 -0.4434  0.0528  0.3851
  119OSM    HNF12527  -0.129   1.592  10.558  0.3387 -0.2443 -1.4194
  119OSM    C2S12528   0.041   1.664  10.653 -0.2334  0.3728  0.3961
  119OSM    H2S12529   0.123   1.731  10.618  0.2861 -0.7484 -0.5935
  119OSM    C3S12530   0.095   1.517  10.651  0.0839 -0.3412 -0.0651
  119OSM    H3S12531   0.005   1.454  10.667 -1.3783  0.1070 -4.8159
  119OSM     O312532   0.185   1.481  10.753 -0.0722  0.2957  0.3502
  119OSM    HO312533   0.178   1.540  10.828  1.0666 -1.2829  1.7805
  119OSM    C4S12534   0.146   1.485  10.514  0.0094  0.2409 -0.1406
  119OSM    H4S12535   0.064   1.464  10.443 -2.5897  0.8157  2.4629
  119OSM    C5S12536   0.271   1.498  10.471 -0.4769 -0.3011  0.1918
  119OSM    H5S12537   0.354   1.544  10.528  0.1938  0.6568 -1.4876
  119OSM    C6S12538   0.315   1.468  10.337  0.1645 -0.3347 -0.6038
  119OSM    H6S12539   0.376   1.375  10.340  1.2026  0.3466  0.7210
  119OSM    H6T12540   0.378   1.558  10.321  0.5495 -0.0866  1.8246
  119OSM    C7S12541   0.219   1.430  10.223 -0.2258 -0.1208 -0.0922
  119OSM    H7S12542   0.137   1.505  10.228 -3.3606 -3.3191  0.7573
  119OSM    H7T12543   0.173   1.329  10.234 -3.3582  0.8474 -2.6484
  119OSM    C8S12544   0.296   1.448  10.089  0.5072  0.8664  0.4998
  119OSM    H8S12545   0.373   1.368  10.095 -0.8815 -0.4295  2.4810
  119OSM    H8T12546   0.329   1.554  10.082 -1.5917  1.7449  2.4102
  119OSM    C9S12547   0.207   1.419   9.962  0.7331  0.0060  0.8510
  119OSM    H9S12548   0.113   1.476   9.983 -0.4406 -1.5609  0.1009
  119OSM    H9T12549   0.191   1.310   9.952 -0.6944  0.3096 -0.7389
  119OSM   C10S12550   0.257   1.480   9.830  0.1079  0.1944 -0.0891
  119OSM   H10S12551   0.362   1.455   9.803  1.1914  2.4279  1.7549
  119OSM   H10T12552   0.258   1.591   9.837 -2.3608  0.5477 -3.0980
  119OSM   C11S12553   0.157   1.453   9.713 -0.1884  0.1770  0.4370
  119OSM   H11S12554   0.062   1.503   9.739 -0.6878 -1.6521  2.4124
  119OSM   H11T12555   0.131   1.345   9.718 -1.4095  0.4932  1.3072
  119OSM   C12S12556   0.216   1.488   9.579 -0.1404 -0.2817 -0.0241
  119OSM   H12S12557   0.318   1.446   9.583 -0.7722 -1.7904  1.9554
  119OSM   H12T12558   0.230   1.597   9.564 -0.9711 -0.3865 -1.9052
  119OSM   C13S12559   0.134   1.438   9.464 -0.4903  0.5194  0.1411
  119OSM   H13S12560   0.037   1.484   9.437  0.3204  0.9833 -2.2055
  119OSM   H13T12561   0.117   1.328   9.471  0.3812  0.1482 -2.4547
  119OSM   C14S12562   0.215   1.467   9.339 -0.6756  0.8786 -0.2374
  119OSM   H14S12563   0.311   1.412   9.335 -0.5932  0.9395  0.7714
  119OSM   H14T12564   0.240   1.574   9.325  1.3985  0.6769  1.5311
  119OSM   C15S12565   0.137   1.408   9.216  0.3535  0.6870 -0.0158
  119OSM   H15S12566   0.045   1.469   9.216 -0.3626 -0.3014  2.1371
  119OSM   H15T12567   0.111   1.301   9.232  0.8145  0.3674 -1.2755
  119OSM   C16S12568   0.220   1.419   9.080  0.0833 -0.7470  0.3173
  119OSM   H16S12569   0.172   1.361   8.998 -1.0708  0.0726  0.3736
  119OSM   H16T12570   0.317   1.372   9.105 -1.0936 -2.2044  2.5007
  119OSM   C17S12571   0.253   1.563   9.045  0.3365 -0.7752 -0.4291
  119OSM   H17S12572   0.333   1.583   9.120 -1.4056 -0.6768  1.4884
  119OSM   H17T12573   0.166   1.628   9.067  0.6126 -0.5963  0.1468
  119OSM   C18S12574   0.307   1.596   8.900  0.2078 -0.2077 -0.1116
  119OSM   H18S12575   0.395   1.532   8.877  0.3541 -0.0701  0.0632
  119OSM   H18T12576   0.324   1.705   8.887  1.1097 -0.2014  0.9244
  119OSM   H18U12577   0.233   1.562   8.825 -1.3081 -0.7376  1.5530
  119OSM    C1F12578  -0.119   1.792  10.525  0.0438 -0.4846 -0.0630
  119OSM     OF12579  -0.068   1.900  10.561 -0.6394  0.1076  0.1292
  119OSM    C2F12580  -0.239   1.798  10.431  0.0395  0.5416  0.6581
  119OSM    H2F12581  -0.311   1.877  10.462  0.2164  1.8349 -1.9595
  119OSM    H2G12582  -0.285   1.697  10.437 -0.1493  0.5209 -0.7211
  119OSM    C3F12583  -0.213   1.830  10.285 -0.4351  0.0034 -0.1699
  119OSM    H3F12584  -0.152   1.922  10.273 -0.4484  0.1544  0.8834
  119OSM    H3G12585  -0.311   1.859  10.241  0.5688  1.0404 -1.8152
  119OSM    C4F12586  -0.143   1.718  10.199  0.2333  0.3881 -0.2729
  119OSM    H4F12587  -0.201   1.625  10.214 -0.3708  0.9158  0.8511
  119OSM    H4G12588  -0.042   1.706  10.242 -1.2022 -1.2375  2.9536
  119OSM    C5F12589  -0.149   1.741  10.050  0.1164  0.5847 -0.5408
  119OSM    H5F12590  -0.086   1.667   9.996 -0.9536  0.3256 -1.4601
  119OSM    H5G12591  -0.104   1.842  10.044  0.1185  0.5802 -0.5957
  119OSM    C6F12592  -0.293   1.754   9.985 -0.5998  0.2577  0.4931
  119OSM    H6F12593  -0.336   1.857   9.991 -1.9121 -0.1103 -1.5613
  119OSM    H6G12594  -0.362   1.692  10.046 -1.2153  1.1735  0.7645
  119OSM    C7F12595  -0.298   1.706   9.837 -0.3732 -0.1491  0.0600
  119OSM    H7F12596  -0.269   1.599   9.846  1.8707  0.6010  3.6553
  119OSM    H7G12597  -0.212   1.755   9.787  1.3018  0.2522  3.1102
  119OSM    C8F12598  -0.430   1.733   9.768  0.1084  0.4932 -0.4213
  119OSM    H8F12599  -0.456   1.841   9.773  1.5900  0.8083  1.5665
  119OSM    H8G12600  -0.509   1.679   9.825  0.1261  1.5975  0.6910
  119OSM    C9F12601  -0.418   1.683   9.623  0.7755 -0.7417 -0.1503
  119OSM    H9F12602  -0.444   1.579   9.600 -0.5941 -0.8752  1.7540
  119OSM   C10F12603  -0.371   1.748   9.515 -0.2771  0.2475  0.5310
  119OSM   H10F12604  -0.365   1.703   9.415  2.3603 -1.0706  1.1765
  119OSM   C11F12605  -0.311   1.887   9.519 -0.5869  0.0695 -0.0385
  119OSM   H11F12606  -0.295   1.918   9.624  3.4460  0.1172 -0.5111
  119OSM   H11G12607  -0.382   1.961   9.477 -2.7900 -2.4310 -1.0449
  119OSM   C12F12608  -0.172   1.914   9.462 -0.6217 -0.1052  0.4814
  119OSM   H12F12609  -0.090   1.846   9.496  0.3248  0.9886  0.4563
  119OSM   H12G12610  -0.139   2.014   9.498  0.6372 -0.3700  0.1003
  119OSM   C13F12611  -0.157   1.922   9.310  0.0113 -0.7826  0.7133
  119OSM   H13F12612  -0.220   1.999   9.261  0.6143 -2.0189 -2.1585
  119OSM   H13G12613  -0.195   1.826   9.270 -1.8372  0.1363  0.1298
  119OSM   C14F12614  -0.003   1.938   9.262  0.0408 -0.1453  0.2135
  119OSM   H14F12615   0.058   1.872   9.328  2.0150  0.6382 -0.7309
  119OSM   H14G12616   0.026   2.043   9.279 -1.6307  0.1939  1.1248
  119OSM   C15F12617   0.012   1.905   9.110 -0.9765  0.3951  0.4222
  119OSM   H15F12618  -0.036   1.805   9.097 -0.1085  0.0387 -0.1449
  119OSM   H15G12619   0.120   1.894   9.089 -0.8975  3.3058 -1.1634
  119OSM   C16F12620  -0.053   2.010   9.015 -0.5681  0.6844  0.0077
  119OSM   H16F12621  -0.158   2.015   9.049 -1.6397 -0.9707 -2.7515
  119OSM   H16G12622  -0.051   1.966   8.913  1.2840  2.0536 -0.6042
  119OSM   C17F12623   0.009   2.151   9.024  0.0965 -0.0513 -0.2890
  119OSM   H17F12624   0.115   2.149   9.057  0.8042  2.2662 -2.2163
  119OSM   H17G12625  -0.034   2.204   9.112  1.6152 -0.0839  0.5024
  119OSM   C18F12626  -0.013   2.228   8.893  0.6836  0.0452 -0.8514
  119OSM   H18F12627   0.046   2.185   8.809  2.4306  1.4226 -0.3846
  119OSM   H18G12628   0.013   2.336   8.897  1.2889 -0.0904 -1.0683
  119OSM   H18H12629  -0.121   2.224   8.864  0.1817  1.2891  0.6799
  120OSM      N12630   6.513   6.770  10.774 -0.1044  0.2892  0.2852
  120OSM    C1512631   6.629   6.860  10.822  0.0635 -0.3476  0.2434
  120OSM   H15A12632   6.723   6.838  10.774  1.1970  2.2033  1.0772
  120OSM   H15B12633   6.629   6.847  10.929 -1.1460 -0.0448  0.2941
  120OSM   H15C12634   6.612   6.967  10.815  1.9315  0.2237  2.6875
  120OSM    C1412635   6.405   6.807  10.875  0.5725 -1.2370 -0.3691
  120OSM   H14A12636   6.363   6.906  10.859 -1.0434 -1.8161  0.1067
  120OSM   H14B12637   6.443   6.809  10.976  1.6461  0.1141 -0.7686
  120OSM   H14C12638   6.315   6.749  10.859 -0.4680 -0.1566  1.2656
  120OSM    C1312639   6.464   6.802  10.636  0.0592 -0.3392  0.5828
  120OSM   H13A12640   6.529   6.781  10.552  0.7709 -0.7625  1.2327
  120OSM   H13B12641   6.421   6.901  10.623 -0.8508 -0.8592 -0.6171
  120OSM   H13C12642   6.370   6.752  10.619  1.1681 -2.1148 -0.6569
  120OSM    C1212643   6.546   6.625  10.796  0.2956  0.2149  0.3863
  120OSM   H12A12644   6.581   6.611  10.897  0.3345  0.6043  0.4262
  120OSM   H12B12645   6.633   6.596  10.738 -0.0168  1.9054 -1.0028
  120OSM    C1112646   6.434   6.518  10.769 -0.5997  0.1081 -0.4003
  120OSM   H11A12647   6.385   6.550  10.674  0.5548  1.0522 -0.7067
  120OSM   H11B12648   6.357   6.523  10.849  0.5716  0.6620  0.7353
  120OSM      P12649   6.456   6.279  10.668  0.1862 -0.6764  0.7864
  120OSM    O1312650   6.516   6.156  10.710 -0.0771  0.4634  0.0629
  120OSM    O1412651   6.311   6.280  10.647  0.5529  0.4664 -0.1157
  120OSM    O1112652   6.522   6.323  10.534 -0.8736 -0.2001  0.0552
  120OSM    O1212653   6.499   6.394  10.768  0.2211  0.0087  0.3740
  120OSM    C1S12654   6.491   6.443  10.466  0.4340 -0.3518 -0.7326
  120OSM    H1S12655   6.544   6.522  10.523  0.5401 -0.6808 -0.3687
  120OSM    H1T12656   6.383   6.471  10.468  1.0249  2.3221  1.7590
  120OSM     NF12657   6.502   6.571  10.266  0.0416 -0.5682  0.1860
  120OSM    HNF12658   6.409   6.572  10.229  0.1247  1.1232 -0.0815
  120OSM    C2S12659   6.546   6.447  10.324 -0.1107  0.4041  0.0445
  120OSM    H2S12660   6.657   6.454  10.325 -0.0597 -0.3627  0.4228
  120OSM    C3S12661   6.510   6.322  10.244  0.0920 -0.3469  0.0693
  120OSM    H3S12662   6.407   6.341  10.207  0.4003  1.6718  0.1189
  120OSM     O312663   6.504   6.195  10.315  0.1238 -0.1348 -0.2302
  120OSM    HO312664   6.498   6.224  10.406  0.5663 -2.6561  0.6994
  120OSM    C4S12665   6.601   6.312  10.122  0.0861 -0.1877 -0.6126
  120OSM    H4S12666   6.707   6.330  10.143  0.1179 -2.4375  1.6150
  120OSM    C5S12667   6.559   6.294   9.996 -0.1154  1.0791 -1.0751
  120OSM    H5S12668   6.450   6.284   9.982 -0.0062 -1.5861 -0.5619
  120OSM    C6S12669   6.654   6.288   9.877 -0.0552  0.2965 -0.0590
  120OSM    H6S12670   6.614   6.362   9.804  1.5455 -0.0528 -1.3704
  120OSM    H6T12671   6.633   6.193   9.823 -1.2059  0.1683  0.5806
  120OSM    C7S12672   6.807   6.291   9.891 -0.9024  0.2852  1.1031
  120OSM    H7S12673   6.825   6.212   9.967  0.3830  1.4586  2.0702
  120OSM    H7T12674   6.847   6.388   9.928  1.4605  0.0486 -0.6575
  120OSM    C8S12675   6.883   6.261   9.756  0.3649 -0.5669 -0.0926
  120OSM    H8S12676   6.835   6.172   9.709 -0.6925  1.2041 -2.6001
  120OSM    H8T12677   6.993   6.251   9.771  0.3881  0.8392  0.8329
  120OSM    C9S12678   6.866   6.382   9.661 -0.5361  0.1643  0.1202
  120OSM    H9S12679   6.896   6.470   9.722 -3.7077  1.2350  0.3060
  120OSM    H9T12680   6.763   6.401   9.623 -0.7413 -2.0117 -0.5379
  120OSM   C10S12681   6.970   6.385   9.549 -0.1179  0.4140 -0.5869
  120OSM   H10S12682   7.057   6.328   9.588 -1.4987 -0.2827  1.6639
  120OSM   H10T12683   7.003   6.490   9.531  1.5316  0.1387  0.5957
  120OSM   C11S12684   6.925   6.327   9.423  0.1234 -0.1623 -0.2629
  120OSM   H11S12685   6.823   6.365   9.403  1.1208  1.8455 -2.0425
  120OSM   H11T12686   6.919   6.216   9.424 -0.9758 -0.1023  0.2275
  120OSM   C12S12687   7.001   6.377   9.304  0.0997 -0.1486 -0.1530
  120OSM   H12S12688   7.097   6.322   9.298 -0.3263 -1.1494  1.4684
  120OSM   H12T12689   7.028   6.484   9.312  0.8259 -0.4341  1.5852
  120OSM   C13S12690   6.929   6.351   9.162  0.6495  0.5691  0.1379
  120OSM   H13S12691   6.833   6.407   9.160  0.0235 -0.4709 -1.7928
  120OSM   H13T12692   6.914   6.242   9.148  2.3736  0.5183 -1.7573
  120OSM   C14S12693   7.015   6.373   9.034  0.1347  0.1363 -0.6383
  120OSM   H14S12694   7.108   6.317   9.057 -0.0534 -0.2118 -0.7128
  120OSM   H14T12695   7.029   6.481   9.015 -0.6252  0.3032 -0.2754
  120OSM   C15S12696   6.953   6.316   8.911  0.1914  0.0326 -0.7719
  120OSM   H15S12697   6.869   6.375   8.868  0.0667 -1.3547 -2.5589
  120OSM   H15T12698   6.908   6.218   8.939  0.4412  0.5084  1.4527
  120OSM   C16S12699   7.047   6.296   8.790  0.2186 -0.2893  0.4801
  120OSM   H16S12700   6.997   6.241   8.707  0.3210  0.0632  0.1809
  120OSM   H16T12701   7.132   6.232   8.825  1.9964  1.0591 -1.1430
  120OSM   C17S12702   7.113   6.427   8.732  0.1076  0.0504  0.5823
  120OSM   H17S12703   7.172   6.478   8.811 -0.3373  0.3932  0.6939
  120OSM   H17T12704   7.023   6.481   8.695  1.2935  1.5730 -0.1831
  120OSM   C18S12705   7.206   6.389   8.621  0.5454  0.1588  0.1998
  120OSM   H18S12706   7.228   6.478   8.559 -1.3083  1.1752  0.8906
  120OSM   H18T12707   7.137   6.330   8.557  1.8533 -0.3907 -0.7488
  120OSM   H18U12708   7.297   6.334   8.654 -0.0909 -0.0321  1.7651
  120OSM    C1F12709   6.558   6.689  10.302  0.4155 -0.5413  0.0335
  120OSM     OF12710   6.642   6.695  10.389  0.2487 -0.4668  0.5896
  120OSM    C2F12711   6.505   6.816  10.236  0.4627 -0.0194  0.0881
  120OSM    H2F12712   6.467   6.891  10.308  2.3369 -0.3381  1.4835
  120OSM    H2G12713   6.416   6.781  10.178 -1.2894  2.2861  1.1880
  120OSM    C3F12714   6.613   6.890  10.164 -0.9370 -0.5930 -0.3874
  120OSM    H3F12715   6.703   6.909  10.226  1.0319  1.3275 -3.5924
  120OSM    H3G12716   6.579   6.993  10.140  1.5960 -0.1389 -2.4334
  120OSM    C4F12717   6.657   6.827  10.032 -0.0638 -0.7570 -0.4475
  120OSM    H4F12718   6.594   6.862   9.947  1.0070  3.1619  0.1928
  120OSM    H4G12719   6.653   6.717  10.042 -0.4014 -0.5213  3.6466
  120OSM    C5F12720   6.802   6.864   9.993 -0.5566  0.1030 -0.1097
  120OSM    H5F12721   6.867   6.815  10.068 -0.2430 -1.6271 -1.4396
  120OSM    H5G12722   6.821   6.971  10.014 -1.1951 -0.2440  2.6076
  120OSM    C6F12723   6.859   6.804   9.862 -0.5446 -0.9905 -0.5152
  120OSM    H6F12724   6.843   6.695   9.874 -1.4636 -1.1357 -2.6291
  120OSM    H6G12725   6.964   6.840   9.873 -1.3207  1.0029  0.9830
  120OSM    C7F12726   6.780   6.861   9.742 -0.7974  0.2000  0.1835
  120OSM    H7F12727   6.766   6.968   9.767  0.1890  0.6749 -1.2145
  120OSM    H7G12728   6.682   6.807   9.735  0.1831 -1.4801 -1.6498
  120OSM    C8F12729   6.860   6.840   9.611  0.3159 -0.0041 -0.2106
  120OSM    H8F12730   6.860   6.730   9.595  0.1746 -0.0754  0.2566
  120OSM    H8G12731   6.967   6.868   9.625  0.6960 -0.8022 -1.4124
  120OSM    C9F12732   6.803   6.914   9.494 -0.0718  0.1607 -0.4011
  120OSM    H9F12733   6.759   7.010   9.523  1.3084  0.8332 -0.4581
  120OSM   C10F12734   6.791   6.870   9.367 -0.0003  0.2606  0.0020
  120OSM   H10F12735   6.752   6.950   9.302 -1.1923  1.0391  1.5901
  120OSM   C11F12736   6.842   6.745   9.299 -0.7758 -0.2375  0.1431
  120OSM   H11F12737   6.762   6.670   9.283  0.2999 -1.1466 -1.1751
  120OSM   H11G12738   6.923   6.700   9.361 -1.8563  0.1916  1.9499
  120OSM   C12F12739   6.914   6.770   9.167 -0.1377 -0.0508 -0.2905
  120OSM   H12F12740   6.969   6.678   9.140 -2.0131 -1.0991 -0.7234
  120OSM   H12G12741   6.991   6.850   9.176  0.2889 -0.5830  0.9629
  120OSM   C13F12742   6.819   6.803   9.051  0.3907  0.2187 -0.0759
  120OSM   H13F12743   6.744   6.877   9.084  0.8704  1.0046 -0.6946
  120OSM   H13G12744   6.759   6.714   9.021  0.6808  0.6602 -2.1442
  120OSM   C14F12745   6.893   6.876   8.930  0.2776 -0.3591 -0.8549
  120OSM   H14F12746   6.958   6.962   8.958 -0.6917 -0.0107  0.4003
  120OSM   H14G12747   6.817   6.930   8.870 -1.1223 -0.1542  1.0337
  120OSM   C15F12748   6.960   6.772   8.832  0.1061 -0.6532 -0.0059
  120OSM   H15F12749   6.889   6.693   8.800  0.7066 -1.1803 -0.0333
  120OSM   H15G12750   7.035   6.717   8.892  1.6427  0.6798 -0.6163
  120OSM   C16F12751   7.002   6.846   8.704 -0.5321 -0.6297 -0.2484
  120OSM   H16F12752   7.067   6.934   8.722 -0.9315 -0.3610 -0.1227
  120OSM   H16G12753   6.907   6.873   8.653 -0.4063 -0.1472 -0.2308
  120OSM   C17F12754   7.085   6.762   8.607 -0.1555 -0.3266 -0.4142
  120OSM   H17F12755   7.017   6.680   8.574 -1.8688 -0.0702  2.2027
  120OSM   H17G12756   7.170   6.711   8.657 -0.0504 -0.2639 -0.5295
  120OSM   C18F12757   7.134   6.847   8.489  0.0284  0.5506  0.0909
  120OSM   H18F12758   7.042   6.884   8.441 -1.2879  0.5710  2.4722
  120OSM   H18G12759   7.197   6.780   8.427 -0.7115 -1.3362  1.2791
  120OSM   H18H12760   7.194   6.933   8.525 -0.7677  0.5809  1.3918
  121OSM      N12761   4.759   2.930  11.375 -0.0374 -0.3568 -0.2693
  121OSM    C1512762   4.662   3.046  11.354 -0.1889  0.4657 -0.4928
  121OSM   H15A12763   4.679   3.099  11.262  1.6504  1.1231  0.1864
  121OSM   H15B12764   4.672   3.120  11.432 -0.0325 -2.1788  2.1995
  121OSM   H15C12765   4.560   3.011  11.360 -0.8983  2.5584  1.2380
  121OSM    C1412766   4.893   2.986  11.379  0.1548 -0.3024 -0.4365
  121OSM   H14A12767   4.966   2.908  11.363 -1.3546 -1.5183 -1.8085
  121OSM   H14B12768   4.903   3.031  11.476 -0.9577 -0.3245 -0.2968
  121OSM   H14C12769   4.919   3.054  11.300  0.0877 -1.5277 -1.5589
  121OSM    C1312770   4.729   2.854  11.500  0.1742 -0.0661 -0.0910
  121OSM   H13A12771   4.712   2.916  11.586 -2.5305  0.7228 -1.0824
  121OSM   H13B12772   4.810   2.796  11.541 -0.9667 -0.2082  2.1106
  121OSM   H13C12773   4.637   2.799  11.489  1.6059 -2.2854 -1.9938
  121OSM    C1212774   4.745   2.847  11.249  0.8370  0.1221  0.0295
  121OSM   H12A12775   4.801   2.757  11.262  0.9873  0.4713  2.0528
  121OSM   H12B12776   4.796   2.903  11.172  0.2700 -0.7328 -1.0065
  121OSM    C1112777   4.602   2.808  11.190 -0.1257  0.1126 -0.6267
  121OSM   H11A12778   4.612   2.784  11.082  1.6096  0.6890 -0.6305
  121OSM   H11B12779   4.528   2.891  11.191  0.5526  0.7739  2.0077
  121OSM      P12780   4.589   2.551  11.247 -0.4068 -0.0401 -0.3875
  121OSM    O1312781   4.731   2.536  11.294  0.1406 -0.1734 -0.0120
  121OSM    O1412782   4.489   2.472  11.316  0.3816  0.2098  0.2376
  121OSM    O1112783   4.583   2.520  11.091  0.6583 -0.5915 -0.0498
  121OSM    O1212784   4.545   2.701  11.255 -0.2016 -0.0619  0.1355
  121OSM    C1S12785   4.563   2.399  11.033 -0.0244 -0.8209 -0.7193
  121OSM    H1S12786   4.455   2.389  11.007 -0.3633 -0.0976  0.3890
  121OSM    H1T12787   4.613   2.318  11.091  0.9154  0.3729  0.1780
  121OSM     NF12788   4.644   2.262  10.850  0.8052  0.3021 -0.2620
  121OSM    HNF12789   4.735   2.222  10.857  0.7697  0.4448  1.3920
  121OSM    C2S12790   4.638   2.398  10.891  1.3990 -0.0491  0.0339
  121OSM    H2S12791   4.565   2.444  10.821  0.3298 -0.3857  0.9008
  121OSM    C3S12792   4.778   2.471  10.893 -0.6371  0.3242 -0.4728
  121OSM    H3S12793   4.844   2.417  10.964 -1.5315  1.4679  1.3046
  121OSM     O312794   4.772   2.605  10.946  0.3305  0.1149 -0.7139
  121OSM    HO312795   4.692   2.593  10.998  0.1090  1.2917 -0.7574
  121OSM    C4S12796   4.839   2.473  10.755 -0.1925  0.0383  0.6206
  121OSM    H4S12797   4.944   2.448  10.739  0.2384  1.6076  0.8077
  121OSM    C5S12798   4.781   2.538  10.647 -0.3435  0.5113 -0.3352
  121OSM    H5S12799   4.680   2.574  10.671 -0.4948  0.0865 -0.3240
  121OSM    C6S12800   4.845   2.536  10.509  0.5020  0.1208 -0.0093
  121OSM    H6S12801   4.796   2.451  10.458  0.0854  0.1666  0.3034
  121OSM    H6T12802   4.951   2.508  10.524  0.4362 -0.7562 -1.0646
  121OSM    C7S12803   4.819   2.667  10.436  0.1116 -0.4778  0.6587
  121OSM    H7S12804   4.890   2.744  10.473 -0.0070  0.1896 -0.4661
  121OSM    H7T12805   4.721   2.704  10.474  0.1095 -0.1775  0.3746
  121OSM    C8S12806   4.841   2.660  10.283  0.0443 -0.6621  0.2434
  121OSM    H8S12807   4.784   2.574  10.242 -0.4114 -0.2556  0.0193
  121OSM    H8T12808   4.949   2.645  10.262  0.9205  1.0835  2.9104
  121OSM    C9S12809   4.795   2.786  10.207 -0.3483 -0.3363  0.7103
  121OSM    H9S12810   4.836   2.876  10.257 -0.0098 -0.4083  0.5646
  121OSM    H9T12811   4.685   2.800  10.215 -0.2250  2.3566 -0.8817
  121OSM   C10S12812   4.848   2.783  10.062  0.6418 -0.6441  1.1274
  121OSM   H10S12813   4.838   2.682  10.017  1.9898  0.0279 -0.7998
  121OSM   H10T12814   4.957   2.793  10.044  0.3590 -0.7087 -0.8149
  121OSM   C11S12815   4.796   2.887   9.962 -0.2009 -0.4256 -0.4854
  121OSM   H11S12816   4.833   2.989   9.985 -0.2105 -0.8876  1.8360
  121OSM   H11T12817   4.687   2.903   9.973 -0.3326 -1.0210 -0.8692
  121OSM   C12S12818   4.827   2.845   9.813 -0.4997  0.8775 -0.2604
  121OSM   H12S12819   4.758   2.765   9.778 -0.6245  0.3237  1.1672
  121OSM   H12T12820   4.931   2.814   9.790  0.0676 -0.4991  3.4158
  121OSM   C13S12821   4.789   2.955   9.718  0.3249 -0.2901 -0.6864
  121OSM   H13S12822   4.827   3.049   9.763 -2.1736 -0.7738  2.7367
  121OSM   H13T12823   4.682   2.981   9.732  0.5192 -0.0493  0.4531
  121OSM   C14S12824   4.848   2.948   9.578  0.3725  0.6867  0.7729
  121OSM   H14S12825   4.869   2.842   9.553 -1.8751  0.5512 -0.8079
  121OSM   H14T12826   4.945   3.002   9.570  0.3283  0.9762  1.9880
  121OSM   C15S12827   4.755   3.011   9.472  0.1036  0.3555 -0.5553
  121OSM   H15S12828   4.763   3.119   9.496 -0.2967 -0.2508  2.7359
  121OSM   H15T12829   4.650   2.976   9.485  0.4865 -0.8355 -0.5011
  121OSM   C16S12830   4.788   2.981   9.323  0.6575  0.0149 -0.3612
  121OSM   H16S12831   4.896   3.004   9.319  1.4840 -1.7891  4.6294
  121OSM   H16T12832   4.723   3.047   9.260 -0.5241  0.7564  1.5485
  121OSM   C17S12833   4.756   2.836   9.288  0.0575 -0.2554 -0.3832
  121OSM   H17S12834   4.648   2.814   9.287  0.3761 -2.0035  0.1969
  121OSM   H17T12835   4.816   2.773   9.357  2.4533  0.3397 -1.7722
  121OSM   C18S12836   4.805   2.796   9.148  0.0971  0.4194 -0.2296
  121OSM   H18S12837   4.915   2.811   9.141  0.1152  1.1504  1.2298
  121OSM   H18T12838   4.763   2.859   9.066 -2.8644  1.6821  2.0705
  121OSM   H18U12839   4.778   2.689   9.134 -1.6604  0.2047  3.6558
  121OSM    C1F12840   4.539   2.195  10.807  0.2736  0.3698  0.4776
  121OSM     OF12841   4.427   2.235  10.810  0.6421 -0.4342 -0.5362
  121OSM    C2F12842   4.574   2.052  10.763 -0.7434  0.3213  0.0626
  121OSM    H2F12843   4.555   1.979  10.844  0.8666  0.2818  0.4262
  121OSM    H2G12844   4.683   2.047  10.742 -1.1059 -0.7163 -1.8078
  121OSM    C3F12845   4.497   2.019  10.635  0.1815  0.0030 -0.0717
  121OSM    H3F12846   4.523   2.088  10.552  0.3327 -0.6029 -0.5383
  121OSM    H3G12847   4.387   2.029  10.650  0.5190  2.2238  1.2474
  121OSM    C4F12848   4.531   1.882  10.586  0.7264  0.0657  0.5847
  121OSM    H4F12849   4.517   1.805  10.665  1.2233 -0.8529 -0.2094
  121OSM    H4G12850   4.637   1.875  10.555  0.0312 -1.3773 -1.7921
  121OSM    C5F12851   4.447   1.842  10.466 -0.0683  0.4632 -0.4651
  121OSM    H5F12852   4.468   1.924  10.393  1.4962  1.9107  1.5086
  121OSM    H5G12853   4.339   1.849  10.490  0.0177 -0.2335  0.1582
  121OSM    C6F12854   4.476   1.708  10.399 -0.1050  0.4851 -0.0408
  121OSM    H6F12855   4.446   1.623  10.463 -2.0341  0.6803 -0.6151
  121OSM    H6G12856   4.585   1.694  10.384 -0.0421  1.0140 -0.1084
  121OSM    C7F12857   4.420   1.684  10.255  0.0407  1.1175 -0.0192
  121OSM    H7F12858   4.312   1.663  10.267  0.0125  0.5572 -1.1566
  121OSM    H7G12859   4.469   1.596  10.207 -1.3927  0.4513 -0.3128
  121OSM    C8F12860   4.454   1.801  10.158  0.1384  0.1289  0.4239
  121OSM    H8F12861   4.408   1.896  10.193 -3.7577 -1.8739  1.3264
  121OSM    H8G12862   4.401   1.781  10.062 -0.1973  2.1205  0.1536
  121OSM    C9F12863   4.601   1.795  10.129  0.0998 -0.6259  0.6826
  121OSM    H9F12864   4.668   1.796  10.217  1.1427  0.4177 -0.0972
  121OSM   C10F12865   4.661   1.816  10.016 -0.0654 -0.0693 -0.1258
  121OSM   H10F12866   4.771   1.807  10.019 -0.0536  0.1438  1.8141
  121OSM   C11F12867   4.592   1.842   9.886  0.3513  0.3495 -0.1770
  121OSM   H11F12868   4.635   1.917   9.816  3.3905  0.1104  1.2689
  121OSM   H11G12869   4.487   1.869   9.906 -0.3304  0.2312 -3.2018
  121OSM   C12F12870   4.609   1.712   9.802  0.2461 -1.0764 -0.6038
  121OSM   H12F12871   4.545   1.640   9.857  0.4906 -0.6157  0.2900
  121OSM   H12G12872   4.711   1.669   9.790  0.3222 -1.4458  1.1031
  121OSM   C13F12873   4.536   1.736   9.663  0.7696 -0.3466 -0.0262
  121OSM   H13F12874   4.580   1.824   9.612  1.6617 -2.2108 -2.6741
  121OSM   H13G12875   4.431   1.754   9.692  0.9643  0.7379  0.0402
  121OSM   C14F12876   4.545   1.615   9.572 -0.4568  0.3491  1.3064
  121OSM   H14F12877   4.515   1.521   9.623 -2.0184 -0.5116 -1.0471
  121OSM   H14G12878   4.651   1.600   9.542 -1.3597  0.2387 -2.2526
  121OSM   C15F12879   4.457   1.632   9.457  0.5190 -0.2078  0.9297
  121OSM   H15F12880   4.487   1.730   9.413  0.1107 -0.4557  0.0794
  121OSM   H15G12881   4.350   1.637   9.485  0.3015  1.6186 -0.0718
  121OSM   C16F12882   4.466   1.522   9.344  0.1483  0.3277  0.2715
  121OSM   H16F12883   4.434   1.423   9.382  5.0718 -1.4993  0.4644
  121OSM   H16G12884   4.572   1.524   9.310 -0.4308  3.4573 -1.7497
  121OSM   C17F12885   4.390   1.566   9.219  0.6114  0.5787  0.2443
  121OSM   H17F12886   4.415   1.667   9.179 -1.4330  0.9042 -0.3658
  121OSM   H17G12887   4.285   1.584   9.250  0.8951 -1.1999  2.4667
  121OSM   C18F12888   4.390   1.455   9.107  0.0285 -0.0700  0.7408
  121OSM   H18F12889   4.327   1.476   9.018  1.6098 -1.8602 -0.8846
  121OSM   H18G12890   4.341   1.366   9.151  1.2332 -0.2929  1.6901
  121OSM   H18H12891   4.494   1.436   9.072 -0.1287  0.2548  0.0861
  122OSM      N12892   5.979   0.824  10.998  0.5327  0.0478  0.7713
  122OSM    C1512893   6.080   0.920  11.040 -0.3261 -0.2637 -0.4416
  122OSM   H15A12894   6.133   0.882  11.126 -1.6180 -1.2285 -0.0313
  122OSM   H15B12895   6.031   1.011  11.070 -1.1145 -0.7906 -0.0764
  122OSM   H15C12896   6.149   0.942  10.960  1.4034  0.6750  1.2210
  122OSM    C1412897   6.040   0.686  10.992 -0.3626  0.5728 -0.0936
  122OSM   H14A12898   6.114   0.682  10.913 -1.6960  0.5384 -1.3690
  122OSM   H14B12899   5.966   0.609  10.981  0.6658 -0.6247  1.0048
  122OSM   H14C12900   6.087   0.667  11.088 -1.9853  0.1887  0.6493
  122OSM    C1312901   5.871   0.812  11.103 -0.3873 -0.9657 -0.5841
  122OSM   H13A12902   5.909   0.765  11.193 -0.2225  0.3973  0.0750
  122OSM   H13B12903   5.782   0.757  11.073 -1.6308  0.9183 -0.5154
  122OSM   H13C12904   5.834   0.908  11.135 -0.3920 -1.3786  0.6934
  122OSM    C1212905   5.922   0.870  10.863  0.1009 -0.2440  0.2026
  122OSM   H12A12906   5.999   0.874  10.787 -0.7923  1.3179 -0.6800
  122OSM   H12B12907   5.897   0.975  10.867  1.1782  0.1188 -1.5360
  122OSM    C1112908   5.799   0.796  10.805 -0.0641  0.3483 -0.6007
  122OSM   H11A12909   5.820   0.687  10.807 -1.1073  0.1260 -0.9112
  122OSM   H11B12910   5.793   0.834  10.701  2.2466  1.5445 -0.3454
  122OSM      P12911   5.556   0.738  10.828 -0.1615 -0.3088 -0.2735
  122OSM    O1312912   5.567   0.604  10.884 -0.6200 -0.1748  0.1318
  122OSM    O1412913   5.432   0.810  10.861  0.3009  0.1568 -0.3400
  122OSM    O1112914   5.565   0.733  10.673  0.4606 -0.3889 -0.0425
  122OSM    O1212915   5.674   0.825  10.874 -0.1482 -0.1483  0.9160
  122OSM    C1S12916   5.557   0.847  10.588 -0.1323  0.0776 -0.9636
  122OSM    H1S12917   5.609   0.935  10.633  0.6526 -0.9666  0.2480
  122OSM    H1T12918   5.453   0.867  10.556 -0.7627 -1.5217 -0.0222
  122OSM     NF12919   5.630   0.932  10.381  1.0071  0.1698 -0.4139
  122OSM    HNF12920   5.564   0.945  10.307  0.4572  0.2674  0.0891
  122OSM    C2S12921   5.632   0.815  10.459  0.9894  0.3933  0.2368
  122OSM    H2S12922   5.737   0.790  10.487  0.4218 -4.4899 -1.0839
  122OSM    C3S12923   5.573   0.689  10.386 -0.2187 -0.2652 -0.0799
  122OSM    H3S12924   5.463   0.703  10.391 -0.4257 -0.1431 -3.3143
  122OSM     O312925   5.596   0.562  10.454  0.3480  0.8058  0.7749
  122OSM    HO312926   5.607   0.585  10.547  0.1389 -0.2109  1.0536
  122OSM    C4S12927   5.611   0.676  10.239 -0.6428  0.2447 -0.0431
  122OSM    H4S12928   5.533   0.686  10.163 -1.3859 -0.6559  0.5894
  122OSM    C5S12929   5.738   0.651  10.205 -0.9822 -0.2121 -0.3945
  122OSM    H5S12930   5.821   0.651  10.277 -0.3369 -0.4625 -1.1260
  122OSM    C6S12931   5.789   0.639  10.065 -0.1186 -1.2373  0.0721
  122OSM    H6S12932   5.817   0.532  10.052 -0.4880 -1.5951  1.8762
  122OSM    H6T12933   5.880   0.702  10.069 -0.1478 -1.1958  3.5051
  122OSM    C7S12934   5.699   0.701   9.956  0.1416 -0.6072  0.6012
  122OSM    H7S12935   5.669   0.803   9.988  0.5307 -0.0685 -0.7065
  122OSM    H7T12936   5.604   0.644   9.951 -0.2517 -0.1184  2.0138
  122OSM    C8S12937   5.759   0.705   9.812 -0.1031 -0.0219  0.1137
  122OSM    H8S12938   5.842   0.778   9.804  0.0979 -0.2810 -0.1528
  122OSM    H8T12939   5.675   0.738   9.746 -0.4698 -0.0263  0.5720
  122OSM    C9S12940   5.818   0.571   9.774  0.0892  0.2013 -0.0723
  122OSM    H9S12941   5.747   0.488   9.796 -0.6055  0.2046 -2.0511
  122OSM    H9T12942   5.912   0.547   9.830 -0.4788 -0.2301  0.7202
  122OSM   C10S12943   5.841   0.555   9.613  0.2017  0.1700 -0.1098
  122OSM   H10S12944   5.861   0.652   9.563  0.1224 -0.1006 -0.6801
  122OSM   H10T12945   5.742   0.539   9.563  0.2401  1.9559 -0.8163
  122OSM   C11S12946   5.949   0.454   9.569  0.0154 -0.3319 -0.5932
  122OSM   H11S12947   5.948   0.379   9.650  1.8720  2.9882  2.8402
  122OSM   H11T12948   6.049   0.499   9.590  0.4039 -0.1361 -2.6557
  122OSM   C12S12949   5.935   0.397   9.438 -0.4026 -0.1245 -0.4300
  122OSM   H12S12950   5.828   0.373   9.419 -0.5911  0.6136 -0.3390
  122OSM   H12T12951   5.994   0.305   9.421 -1.8640 -1.2483  0.3796
  122OSM   C13S12952   5.985   0.496   9.333 -0.2500 -0.4782 -0.0631
  122OSM   H13S12953   6.096   0.504   9.338  0.0440 -3.7702  0.9924
  122OSM   H13T12954   5.930   0.591   9.354 -1.2977 -1.6833  3.4527
  122OSM   C14S12955   5.939   0.458   9.187  0.1350 -1.1032 -0.6821
  122OSM   H14S12956   5.829   0.471   9.180 -0.2704 -3.2699  0.6878
  122OSM   H14T12957   5.952   0.348   9.178  0.3047 -1.1840  0.3497
  122OSM   C15S12958   6.017   0.540   9.083 -0.7505 -0.1404 -0.1133
  122OSM   H15S12959   6.123   0.511   9.066  0.4979  3.0980  1.3084
  122OSM   H15T12960   6.025   0.646   9.114 -2.0096 -0.6572  2.1961
  122OSM   C16S12961   5.954   0.517   8.943  0.2269 -0.2596  0.2252
  122OSM   H16S12962   5.844   0.529   8.940  0.1524 -1.0013  0.0217
  122OSM   H16T12963   5.969   0.412   8.913 -1.7126 -0.7511  0.8130
  122OSM   C17S12964   6.030   0.606   8.836  0.0087 -0.0805  0.2392
  122OSM   H17S12965   6.136   0.571   8.834  0.9341  2.3812  1.6015
  122OSM   H17T12966   6.040   0.705   8.884  0.4182 -0.8242  1.7515
  122OSM   C18S12967   5.964   0.624   8.702  0.1157  0.0253 -0.4405
  122OSM   H18S12968   5.861   0.666   8.710  0.1757 -0.1816  2.2523
  122OSM   H18T12969   5.952   0.524   8.656  1.0322  0.3005 -1.3086
  122OSM   H18U12970   6.024   0.688   8.634  1.9624 -0.7764  0.3889
  122OSM    C1F12971   5.711   1.036  10.412 -0.1362  0.1237  0.7993
  122OSM     OF12972   5.784   1.031  10.510 -0.6323 -0.1577  0.4980
  122OSM    C2F12973   5.710   1.152  10.313 -0.0550  0.2346 -0.2695
  122OSM    H2F12974   5.619   1.214  10.321  1.9106  3.3676 -0.7972
  122OSM    H2G12975   5.693   1.098  10.217 -2.7279  1.1270 -0.3619
  122OSM    C3F12976   5.827   1.248  10.331  0.2231 -0.1752 -0.6338
  122OSM    H3F12977   5.923   1.200  10.359  0.4109  0.8826  0.6396
  122OSM    H3G12978   5.809   1.321  10.413 -1.5800 -1.4962  0.2174
  122OSM    C4F12979   5.861   1.334  10.208 -1.3111 -0.0486 -0.3434
  122OSM    H4F12980   5.945   1.405  10.226 -2.4295  0.7691  1.8854
  122OSM    H4G12981   5.781   1.404  10.176 -0.1019 -0.2955 -4.5929
  122OSM    C5F12982   5.899   1.240  10.092 -0.3337  0.2752  0.2291
  122OSM    H5F12983   5.815   1.170  10.072  0.2137 -0.3037 -0.0509
  122OSM    H5G12984   5.997   1.193  10.111  0.1759  0.9972 -0.5147
  122OSM    C6F12985   5.904   1.319   9.958 -0.8376  0.5980  0.4056
  122OSM    H6F12986   5.974   1.406   9.962 -0.3071  0.1749  0.3554
  122OSM    H6G12987   5.801   1.358   9.944 -0.9369 -0.1677 -1.2621
  122OSM    C7F12988   5.945   1.220   9.839 -0.1310 -0.3611  0.4766
  122OSM    H7F12989   5.885   1.127   9.830 -0.1880 -0.3012  0.2198
  122OSM    H7G12990   6.050   1.191   9.860  0.2629 -0.2506 -1.1850
  122OSM    C8F12991   5.945   1.294   9.704  0.1283 -0.9970  0.1905
  122OSM    H8F12992   6.000   1.389   9.724  1.2112 -1.7322  0.8524
  122OSM    H8G12993   5.841   1.312   9.671  0.6961  0.8323 -0.7693
  122OSM    C9F12994   6.023   1.215   9.600 -0.0540  0.5935 -0.0078
  122OSM    H9F12995   6.083   1.130   9.635 -0.8470  0.2633  0.5890
  122OSM   C10F12996   6.012   1.244   9.466  0.2643 -0.5482 -0.4163
  122OSM   H10F12997   6.083   1.195   9.398  1.7084  0.9171 -0.0394
  122OSM   C11F12998   5.932   1.361   9.406  0.1278 -0.2876 -0.5088
  122OSM   H11F12999   5.891   1.420   9.490 -1.4758 -1.7331 -0.2291
  122OSM   H11G13000   5.837   1.324   9.363 -0.4540 -0.2188  0.6882
  122OSM   C12F13001   6.017   1.447   9.320  0.0842 -0.8676  0.0935
  122OSM   H12F13002   6.070   1.381   9.248  1.5806 -1.4138  1.6208
  122OSM   H12G13003   6.096   1.498   9.380  0.1038 -1.0532  0.2288
  122OSM   C13F13004   5.933   1.550   9.253 -0.4099 -0.1414 -0.2573
  122OSM   H13F13005   5.993   1.626   9.198  1.6960 -1.8029 -0.4102
  122OSM   H13G13006   5.869   1.604   9.326 -0.8516  1.4152 -1.7540
  122OSM   C14F13007   5.838   1.497   9.136 -0.0762  0.3165 -0.6222
  122OSM   H14F13008   5.765   1.437   9.194 -0.3444  0.9337 -0.3118
  122OSM   H14G13009   5.898   1.432   9.069 -0.0478 -0.4223  0.1030
  122OSM   C15F13010   5.777   1.600   9.051  1.2043  0.1091  0.6633
  122OSM   H15F13011   5.735   1.572   8.953 -2.5319  3.0569  1.2019
  122OSM   H15G13012   5.850   1.680   9.024 -0.5123  0.5928 -3.2126
  122OSM   C16F13013   5.659   1.679   9.120 -0.2483 -0.1282 -0.3438
  122OSM   H16F13014   5.697   1.738   9.206 -2.6780 -2.3880  2.4927
  122OSM   H16G13015   5.589   1.606   9.166 -1.0761  1.3416  0.8237
  122OSM   C17F13016   5.577   1.770   9.031 -0.4530  1.0135  0.1526
  122OSM   H17F13017   5.652   1.823   8.969  0.7231 -0.9650 -0.1889
  122OSM   H17G13018   5.509   1.845   9.078 -1.4997  1.3505 -1.8030
  122OSM   C18F13019   5.493   1.690   8.922  0.2279 -0.9725  0.0422
  122OSM   H18F13020   5.416   1.750   8.869  0.2046 -1.4004 -0.4153
  122OSM   H18G13021   5.447   1.595   8.957 -0.2369 -0.7237  0.1198
  122OSM   H18H13022   5.560   1.664   8.837  1.7843  0.9938  0.5797
  123OSM      N13023   4.154   5.723   5.554  0.1347 -0.1298 -0.1814
  123OSM    C1513024   4.240   5.757   5.442 -0.9731 -0.4172  1.1929
  123OSM   H15A13025   4.189   5.763   5.347 -1.7793  0.1482  1.6453
  123OSM   H15B13026   4.324   5.694   5.422 -0.0542  0.8407  0.9706
  123OSM   H15C13027   4.268   5.862   5.447  2.5950 -1.1655 -0.1460
  123OSM    C1413028   4.035   5.813   5.561 -0.1557  0.8302  0.2082
  123OSM   H14A13029   3.989   5.837   5.466 -0.2530 -0.2774 -0.0351
  123OSM   H14B13030   4.070   5.900   5.615  0.7824 -0.9569  2.6627
  123OSM   H14C13031   3.957   5.771   5.623  0.4037  0.4155  0.6378
  123OSM    C1313032   4.105   5.576   5.543 -0.7496 -0.1994  1.3694
  123OSM   H13A13033   4.050   5.565   5.450 -0.0495  1.7308  0.6710
  123OSM   H13B13034   4.040   5.554   5.626  0.0619  4.4606  3.5860
  123OSM   H13C13035   4.191   5.511   5.542 -1.0600 -0.6666 -0.5423
  123OSM    C1213036   4.229   5.739   5.686  0.0803 -0.3008  0.1096
  123OSM   H12A13037   4.292   5.827   5.686 -0.2808 -0.0329  0.8894
  123OSM   H12B13038   4.295   5.654   5.689 -0.0776 -0.4637  3.6993
  123OSM    C1113039   4.149   5.729   5.821  0.1131 -0.0650  0.3621
  123OSM   H11A13040   4.064   5.801   5.825 -0.9826 -1.3316  0.5956
  123OSM   H11B13041   4.220   5.756   5.901  0.6437 -2.6706  0.8520
  123OSM      P13042   4.114   5.498   5.952 -0.3724  0.1255  0.3294
  123OSM    O1313043   4.029   5.380   5.930 -0.5776  0.3984  0.4424
  123OSM    O1413044   4.253   5.477   5.984  0.1142 -0.1198 -0.1548
  123OSM    O1113045   4.060   5.581   6.068  0.3667 -0.8303  0.0140
  123OSM    O1213046   4.097   5.596   5.825 -0.0173 -0.2753  0.1885
  123OSM    C1S13047   4.044   5.516   6.199  0.6350 -0.3149 -0.6161
  123OSM    H1S13048   4.017   5.409   6.182  0.1165 -0.1339 -0.9517
  123OSM    H1T13049   3.965   5.563   6.261 -0.0806  0.2888 -1.9352
  123OSM     NF13050   4.120   5.455   6.417 -0.8073 -0.4096  0.3095
  123OSM    HNF13051   4.090   5.518   6.488  0.0608 -0.5619  0.8253
  123OSM    C2S13052   4.156   5.530   6.301  0.2006  0.4295 -0.3092
  123OSM    H2S13053   4.246   5.480   6.259  0.8218  1.2177  0.0387
  123OSM    C3S13054   4.184   5.680   6.322 -0.6085 -0.6640 -0.0910
  123OSM    H3S13055   4.091   5.710   6.376 -1.4609 -3.8739  0.4229
  123OSM     O313056   4.198   5.756   6.206 -0.1929 -0.6487  0.4962
  123OSM    HO313057   4.140   5.705   6.148 -0.5819 -2.6985  2.5410
  123OSM    C4S13058   4.302   5.706   6.409 -0.4669  0.2955 -0.1476
  123OSM    H4S13059   4.277   5.742   6.510  0.3643  1.6896 -0.4146
  123OSM    C5S13060   4.433   5.670   6.389  0.3271  0.0836  0.1875
  123OSM    H5S13061   4.464   5.610   6.303 -2.2896 -1.5297  0.2581
  123OSM    C6S13062   4.533   5.695   6.495  0.3932  0.2629 -0.6464
  123OSM    H6S13063   4.486   5.736   6.587 -0.4890  0.3752 -1.1374
  123OSM    H6T13064   4.607   5.768   6.455  0.2904  1.3295  0.9964
  123OSM    C7S13065   4.609   5.570   6.534 -0.5059 -0.3952  0.2420
  123OSM    H7S13066   4.683   5.606   6.609 -1.2078  3.1183 -0.5316
  123OSM    H7T13067   4.659   5.527   6.444 -2.6819 -0.2500 -1.1162
  123OSM    C8S13068   4.535   5.458   6.605  0.8601 -0.1367 -0.2552
  123OSM    H8S13069   4.462   5.426   6.527  1.0845  4.5384 -2.7892
  123OSM    H8T13070   4.466   5.501   6.681 -1.0040  1.1856 -2.5527
  123OSM    C9S13071   4.621   5.337   6.659 -0.0436 -0.2509 -0.0027
  123OSM    H9S13072   4.693   5.373   6.736  1.1099 -0.0275 -1.1442
  123OSM    H9T13073   4.681   5.305   6.571 -1.5224  1.2262 -1.6043
  123OSM   C10S13074   4.549   5.213   6.708  0.4414  0.4089 -0.3744
  123OSM   H10S13075   4.484   5.168   6.630  0.5343 -0.9325  0.2989
  123OSM   H10T13076   4.465   5.246   6.773  0.7744 -0.0305  0.2817
  123OSM   C11S13077   4.637   5.100   6.762  0.4040 -0.1607  0.4893
  123OSM   H11S13078   4.734   5.104   6.708  0.0923  2.2080 -0.0325
  123OSM   H11T13079   4.581   5.008   6.737 -0.1589 -0.2832  2.0594
  123OSM   C12S13080   4.654   5.106   6.919  0.2934 -0.5346  0.0361
  123OSM   H12S13081   4.556   5.076   6.963 -0.0249 -1.2746 -1.1488
  123OSM   H12T13082   4.658   5.211   6.955 -0.2923 -0.6115  0.3374
  123OSM   C13S13083   4.770   5.017   6.980 -0.2370 -0.4568  0.5904
  123OSM   H13S13084   4.868   5.028   6.928  1.0781 -2.5213  2.4677
  123OSM   H13T13085   4.741   4.910   6.974  2.6860 -1.2912 -3.5302
  123OSM   C14S13086   4.786   5.039   7.131  0.0832  0.4928  0.1798
  123OSM   H14S13087   4.812   5.143   7.158  0.5595  0.2225  0.7970
  123OSM   H14T13088   4.856   4.958   7.163 -2.2954 -2.4920 -1.6369
  123OSM   C15S13089   4.660   4.978   7.200  0.5303  0.2450 -0.2135
  123OSM   H15S13090   4.635   4.878   7.158 -2.2458  0.7783 -0.0369
  123OSM   H15T13091   4.571   5.044   7.195  1.1519  1.3537  2.0457
  123OSM   C16S13092   4.692   4.959   7.354  0.5279 -1.3292  0.2983
  123OSM   H16S13093   4.794   4.914   7.364 -0.1836 -2.4345  3.7582
  123OSM   H16T13094   4.614   4.891   7.393  0.0217  0.1590  2.0110
  123OSM   C17S13095   4.684   5.093   7.427 -0.9209  0.7538 -0.1113
  123OSM   H17S13096   4.575   5.110   7.418 -1.1984 -1.1018 -0.6906
  123OSM   H17T13097   4.739   5.176   7.378 -0.7088  1.7116  1.6630
  123OSM   C18S13098   4.733   5.096   7.575  0.2143 -0.6885  0.6175
  123OSM   H18S13099   4.655   5.043   7.635  1.5965 -2.9488  0.5489
  123OSM   H18T13100   4.759   5.199   7.606 -0.4444  0.3428 -2.0499
  123OSM   H18U13101   4.828   5.042   7.596 -0.4512 -3.1543 -2.1307
  123OSM    C1F13102   4.130   5.324   6.436 -0.0777  0.8969  0.4290
  123OSM     OF13103   4.186   5.252   6.352  0.2559 -0.1718  0.1853
  123OSM    C2F13104   4.052   5.276   6.553 -0.0351  0.2620  0.9216
  123OSM    H2F13105   3.953   5.237   6.521  1.1174 -0.0845 -2.6073
  123OSM    H2G13106   4.020   5.359   6.620 -0.3155  0.9559 -0.0453
  123OSM    C3F13107   4.135   5.164   6.627  0.1735 -0.2491  0.0615
  123OSM    H3F13108   4.245   5.173   6.612  0.3693  0.1455  1.5075
  123OSM    H3G13109   4.106   5.070   6.575  0.6656  1.0636 -2.7677
  123OSM    C4F13110   4.117   5.163   6.780  0.0018  0.1162 -0.4440
  123OSM    H4F13111   4.014   5.194   6.808  0.6102 -1.1793  4.1640
  123OSM    H4G13112   4.181   5.245   6.818 -0.6388  0.3267  0.2128
  123OSM    C5F13113   4.160   5.028   6.841  0.0986 -0.0951 -0.7209
  123OSM    H5F13114   4.267   5.016   6.812  0.5009  1.5003 -0.0388
  123OSM    H5G13115   4.100   4.946   6.798 -0.3926 -1.6552  2.6038
  123OSM    C6F13116   4.141   5.024   6.992 -0.2248  0.6085 -0.5247
  123OSM    H6F13117   4.170   4.922   7.027  2.9842  1.6314  0.0775
  123OSM    H6G13118   4.040   5.041   7.035 -0.2890  1.1536 -0.8817
  123OSM    C7F13119   4.243   5.103   7.075  0.2143  0.4700  1.0174
  123OSM    H7F13120   4.239   5.208   7.038 -0.0922  0.2317  0.3628
  123OSM    H7G13121   4.340   5.055   7.050 -2.0263 -2.9758 -1.9276
  123OSM    C8F13122   4.241   5.114   7.231  0.4851  0.1579 -0.8579
  123OSM    H8F13123   4.318   5.183   7.273 -0.7315 -0.8054  3.4839
  123OSM    H8G13124   4.272   5.013   7.266  0.3783  0.9571  1.7263
  123OSM    C9F13125   4.113   5.163   7.288 -0.8717  0.3477  0.0688
  123OSM    H9F13126   4.065   5.233   7.218 -0.1138  1.3567  0.5358
  123OSM   C10F13127   4.048   5.137   7.401 -0.8152 -0.3584  0.3598
  123OSM   H10F13128   3.952   5.183   7.426 -1.4989 -1.4165 -0.2521
  123OSM   C11F13129   4.091   5.035   7.508 -0.0166  0.5620 -0.7996
  123OSM   H11F13130   4.153   4.954   7.463 -0.1904  0.9760 -1.8315
  123OSM   H11G13131   3.995   4.988   7.535  0.0118  0.2904 -1.1569
  123OSM   C12F13132   4.170   5.102   7.623 -0.0238 -0.0736 -0.2769
  123OSM   H12F13133   4.246   5.170   7.581  0.6113 -1.0848 -0.7928
  123OSM   H12G13134   4.216   5.012   7.669 -0.7576  0.8430  2.4983
  123OSM   C13F13135   4.083   5.176   7.728  0.1958 -0.1022 -0.2916
  123OSM   H13F13136   4.000   5.106   7.751  1.3417 -1.1178  0.9561
  123OSM   H13G13137   4.031   5.262   7.680  0.0390 -0.5237 -0.8960
  123OSM   C14F13138   4.153   5.219   7.855 -0.5980 -0.3586 -0.0526
  123OSM   H14F13139   4.196   5.133   7.910 -0.3969 -0.7283 -0.7747
  123OSM   H14G13140   4.072   5.262   7.918 -1.7332  0.2416 -1.8367
  123OSM   C15F13141   4.255   5.335   7.828  0.8382  0.3502 -0.2870
  123OSM   H15F13142   4.270   5.407   7.911  1.1742  1.2261 -1.0973
  123OSM   H15G13143   4.203   5.399   7.754 -0.0243  0.8438  0.7275
  123OSM   C16F13144   4.395   5.295   7.809 -0.4981  0.3215  0.6533
  123OSM   H16F13145   4.455   5.366   7.748 -0.2112 -1.1257 -0.8362
  123OSM   H16G13146   4.404   5.195   7.760 -1.3910 -0.9692  2.9875
  123OSM   C17F13147   4.472   5.270   7.935  0.3972 -0.3258  0.7051
  123OSM   H17F13148   4.408   5.211   8.004  2.1619 -0.7753  2.0300
  123OSM   H17G13149   4.491   5.369   7.982 -0.2729  0.4816 -0.6562
  123OSM   C18F13150   4.611   5.199   7.924 -0.3154 -0.3228 -0.7005
  123OSM   H18F13151   4.649   5.190   8.028  1.1904  0.1991 -1.1784
  123OSM   H18G13152   4.688   5.256   7.868  0.1709 -1.3621 -1.1080
  123OSM   H18H13153   4.600   5.094   7.889  0.6862 -1.0428  1.0392
  124OSM      N13154   0.955   3.462   6.187 -0.1299  0.2039 -0.4435
  124OSM    C1513155   0.843   3.426   6.095  0.0439 -0.0572  0.2000
  124OSM   H15A13156   0.848   3.478   6.001 -0.8938 -0.5772 -0.1538
  124OSM   H15B13157   0.749   3.466   6.132 -0.5050 -0.4103 -0.7774
  124OSM   H15C13158   0.828   3.320   6.081  2.3897 -0.7075  1.9446
  124OSM    C1413159   1.082   3.453   6.108  0.0411 -0.7210 -0.0724
  124OSM   H14A13160   1.106   3.348   6.098  1.2277 -0.4593 -0.1287
  124OSM   H14B13161   1.174   3.487   6.152  1.1067 -1.0987 -1.9216
  124OSM   H14C13162   1.068   3.500   6.012 -0.5706  1.4009  1.0164
  124OSM    C1313163   0.930   3.606   6.230  0.1452 -0.5172  0.1215
  124OSM   H13A13164   0.996   3.638   6.309  0.3832  0.7780 -0.5701
  124OSM   H13B13165   0.825   3.604   6.253 -0.3447  0.7672 -1.8026
  124OSM   H13C13166   0.937   3.672   6.144 -1.8404 -0.4509 -0.0406
  124OSM    C1213167   0.962   3.387   6.316  0.4369  0.4924  0.1679
  124OSM   H12A13168   0.884   3.408   6.388  0.1521 -0.6591  0.2112
  124OSM   H12B13169   1.052   3.403   6.373  0.4335  1.9244 -0.1882
  124OSM    C1113170   0.970   3.239   6.309  0.3202  0.6672 -0.5386
  124OSM   H11A13171   0.897   3.187   6.243  1.7802 -2.4586  0.1267
  124OSM   H11B13172   0.954   3.185   6.405  2.6471 -0.1148 -0.5360
  124OSM      P13173   1.222   3.162   6.343 -0.4351  0.2005  0.2134
  124OSM    O1313174   1.224   3.018   6.307  0.0185  0.6485  0.0350
  124OSM    O1413175   1.342   3.234   6.300  0.3566 -0.0252  0.3528
  124OSM    O1113176   1.184   3.175   6.504  0.0238  0.1441  0.4052
  124OSM    O1213177   1.103   3.217   6.256 -0.1906 -0.0471 -0.7793
  124OSM    C1S13178   1.265   3.100   6.597  0.4569  0.1277  0.2987
  124OSM    H1S13179   1.374   3.122   6.588 -0.0463  2.2108 -1.6065
  124OSM    H1T13180   1.249   2.992   6.575 -0.1843  0.2580  0.1149
  124OSM     NF13181   1.332   3.079   6.831  0.1271 -0.0437  0.1195
  124OSM    HNF13182   1.321   2.988   6.871 -2.8822 -0.6385 -1.7648
  124OSM    C2S13183   1.226   3.130   6.748  0.3277  0.2574  0.1418
  124OSM    H2S13184   1.219   3.239   6.766 -1.2492  0.0635  0.9323
  124OSM    C3S13185   1.082   3.071   6.764 -1.1396  0.0919 -0.4718
  124OSM    H3S13186   1.088   2.963   6.738 -1.5758 -0.1945  0.5703
  124OSM     O313187   0.989   3.117   6.671 -0.3369 -0.2525  0.0911
  124OSM    HO313188   1.041   3.160   6.603 -0.3549  1.9560  1.3749
  124OSM    C4S13189   1.040   3.089   6.903  0.2702 -0.2780 -0.1329
  124OSM    H4S13190   1.046   3.006   6.976 -0.6514  1.0882  1.5921
  124OSM    C5S13191   0.989   3.193   6.970  0.3324 -0.1161  0.0648
  124OSM    H5S13192   0.983   3.279   6.901  1.7963 -0.4626 -0.5478
  124OSM    C6S13193   0.949   3.214   7.114  0.0660  0.4368 -0.0732
  124OSM    H6S13194   0.839   3.224   7.126  0.2374  0.1499  2.0897
  124OSM    H6T13195   0.992   3.307   7.156 -0.1757  0.1098  0.9296
  124OSM    C7S13196   0.995   3.107   7.218  1.3316  0.0311 -0.1036
  124OSM    H7S13197   1.105   3.099   7.229  1.5227  1.3203 -0.9738
  124OSM    H7T13198   0.956   3.005   7.198  0.2444  0.2861  0.6030
  124OSM    C8S13199   0.927   3.140   7.358 -0.6333 -0.3873 -0.0505
  124OSM    H8S13200   0.818   3.119   7.358 -0.5187 -1.2638  1.8344
  124OSM    H8T13201   0.928   3.248   7.383  0.9806 -0.5516  0.7669
  124OSM    C9S13202   0.979   3.077   7.486 -0.0410 -0.8951  0.1154
  124OSM    H9S13203   1.076   3.123   7.513  0.2958 -1.0606 -0.7624
  124OSM    H9T13204   1.002   2.971   7.460 -0.6493 -0.9787 -0.1103
  124OSM   C10S13205   0.877   3.064   7.606 -0.3040 -0.2445 -0.2081
  124OSM   H10S13206   0.898   2.976   7.671 -1.8657 -0.9184 -0.5578
  124OSM   H10T13207   0.780   3.044   7.555 -1.0831 -0.0723  1.1777
  124OSM   C11S13208   0.876   3.194   7.689  0.3905 -0.6028  0.4905
  124OSM   H11S13209   0.845   3.271   7.616  0.0359 -1.4840 -0.3017
  124OSM   H11T13210   0.981   3.218   7.718  0.9357  0.2876 -1.9795
  124OSM   C12S13211   0.772   3.194   7.807  0.3776  0.0538  0.7647
  124OSM   H12S13212   0.673   3.161   7.769 -0.7451  1.6242  2.1925
  124OSM   H12T13213   0.767   3.297   7.849  0.2507  0.8740 -1.1479
  124OSM   C13S13214   0.809   3.098   7.920  0.5829 -0.3623 -0.6757
  124OSM   H13S13215   0.903   3.041   7.901 -0.5655 -1.1868 -4.8940
  124OSM   H13T13216   0.731   3.020   7.928  0.3295  0.0178  0.7795
  124OSM   C14S13217   0.817   3.168   8.057 -0.2700 -1.1728  0.3543
  124OSM   H14S13218   0.720   3.219   8.074  0.3831  0.2817 -0.1327
  124OSM   H14T13219   0.890   3.248   8.035 -1.9732 -0.0495 -1.5262
  124OSM   C15S13220   0.856   3.073   8.168 -0.8744  0.0400  0.4937
  124OSM   H15S13221   0.961   3.037   8.159 -1.6917 -2.3308 -0.2170
  124OSM   H15T13222   0.785   2.988   8.166 -1.0765  0.2129 -0.4563
  124OSM   C16S13223   0.838   3.149   8.296  0.1677  0.5667  0.1428
  124OSM   H16S13224   0.743   3.206   8.295 -1.4420 -1.9459  0.4049
  124OSM   H16T13225   0.923   3.218   8.311 -0.6130  1.2709  1.5862
  124OSM   C17S13226   0.819   3.041   8.410 -0.1489 -0.1016  0.8301
  124OSM   H17S13227   0.905   2.971   8.404  0.4544  0.4276  2.6757
  124OSM   H17T13228   0.728   2.979   8.400 -0.9452  1.1216  0.2390
  124OSM   C18S13229   0.821   3.108   8.551 -0.2693  0.3031 -0.2056
  124OSM   H18S13230   0.748   3.191   8.548 -1.8090 -1.0200 -1.2555
  124OSM   H18T13231   0.922   3.148   8.573 -1.2546  2.3668  0.8433
  124OSM   H18U13232   0.795   3.029   8.625 -4.1815  1.2868 -0.3004
  124OSM    C1F13233   1.441   3.140   6.863  0.4936  0.2866  0.1483
  124OSM     OF13234   1.473   3.230   6.793 -0.5134  0.5406  0.5324
  124OSM    C2F13235   1.530   3.080   6.967 -0.2660 -0.2692 -0.1322
  124OSM    H2F13236   1.585   2.992   6.927 -1.3328 -1.0748  0.1214
  124OSM    H2G13237   1.456   3.048   7.044 -0.5537  1.3294  0.2893
  124OSM    C3F13238   1.633   3.178   7.031  0.1731 -0.4632  0.1338
  124OSM    H3F13239   1.585   3.258   7.092  2.4059 -0.6994  2.3928
  124OSM    H3G13240   1.679   3.231   6.945 -0.3193  2.3199  1.4847
  124OSM    C4F13241   1.741   3.113   7.118  0.7135  0.3226  0.0897
  124OSM    H4F13242   1.801   3.204   7.139 -1.6307  1.7452  0.9930
  124OSM    H4G13243   1.807   3.040   7.066  1.0385  0.7785 -0.1437
  124OSM    C5F13244   1.674   3.054   7.245  0.0550 -0.5898  0.1392
  124OSM    H5F13245   1.625   2.965   7.200  0.8287  0.8978 -4.1266
  124OSM    H5G13246   1.594   3.124   7.277  1.1098 -0.6715  3.2715
  124OSM    C6F13247   1.767   3.038   7.366  0.9112 -0.1422  0.7382
  124OSM    H6F13248   1.814   3.135   7.394  0.4762 -0.7180  3.8483
  124OSM    H6G13249   1.851   2.975   7.331  3.1069  2.0959  1.7071
  124OSM    C7F13250   1.681   2.982   7.483  0.1370  0.6141  0.6062
  124OSM    H7F13251   1.634   2.886   7.457 -0.0729  0.8465  0.1111
  124OSM    H7G13252   1.595   3.049   7.506 -1.0698 -0.6741 -0.0384
  124OSM    C8F13253   1.763   2.960   7.613 -0.0317  0.6104  0.0651
  124OSM    H8F13254   1.846   2.897   7.575  0.1519  0.0539  1.3597
  124OSM    H8G13255   1.700   2.890   7.672  2.0057  0.4311  2.1444
  124OSM    C9F13256   1.812   3.084   7.677  0.0398  0.0914  0.3288
  124OSM    H9F13257   1.872   3.149   7.611 -2.9614  1.1226 -1.5912
  124OSM   C10F13258   1.773   3.131   7.804  0.3128  0.3731 -0.2391
  124OSM   H10F13259   1.800   3.230   7.843  1.1076  0.1156 -0.0985
  124OSM   C11F13260   1.680   3.067   7.906  0.0538  0.0361 -0.1835
  124OSM   H11F13261   1.636   2.975   7.863  0.6866  0.4039 -1.6901
  124OSM   H11G13262   1.590   3.129   7.927 -1.0736 -2.0001  1.3183
  124OSM   C12F13263   1.746   3.038   8.045 -0.6720  0.7358 -0.9847
  124OSM   H12F13264   1.842   3.093   8.058 -0.1908 -0.2571 -0.2251
  124OSM   H12G13265   1.762   2.929   8.032 -1.3758  0.7176 -1.7968
  124OSM   C13F13266   1.664   3.060   8.170 -0.2493  0.6361  0.2598
  124OSM   H13F13267   1.571   3.002   8.153 -0.5900  1.1148  0.4716
  124OSM   H13G13268   1.633   3.167   8.170  0.8829  0.9957 -0.7511
  124OSM   C14F13269   1.739   3.015   8.299  1.1606 -0.3774  0.1176
  124OSM   H14F13270   1.844   3.030   8.267  1.3899 -0.9300  0.5989
  124OSM   H14G13271   1.725   2.908   8.325 -0.3728 -0.0017  0.9481
  124OSM   C15F13272   1.705   3.112   8.418  0.0739  0.1400 -0.5902
  124OSM   H15F13273   1.603   3.096   8.459 -0.9930  3.6765 -1.5602
  124OSM   H15G13274   1.709   3.211   8.369  2.4716 -0.5602 -1.9997
  124OSM   C16F13275   1.800   3.104   8.541  0.1272 -0.6770  0.0365
  124OSM   H16F13276   1.908   3.106   8.513  0.1335 -0.9073  0.0385
  124OSM   H16G13277   1.788   3.003   8.585 -1.3182 -1.1546 -1.3625
  124OSM   C17F13278   1.774   3.221   8.634  0.7601  0.1658 -0.1997
  124OSM   H17F13279   1.750   3.315   8.580  1.0774  1.3244  1.5833
  124OSM   H17G13280   1.868   3.236   8.691  0.8785  2.4408 -0.9073
  124OSM   C18F13281   1.651   3.206   8.724  0.3531  0.4373 -0.3450
  124OSM   H18F13282   1.653   3.103   8.765  2.9532  0.3490 -0.5710
  124OSM   H18G13283   1.558   3.207   8.663  0.7647 -1.1779 -1.0507
  124OSM   H18H13284   1.649   3.291   8.795 -4.6243 -0.0120  0.4265
  125OSM      N13285   0.629   4.330   6.186  1.2112 -0.2243  0.2073
  125OSM    C1513286   0.749   4.417   6.224  0.6548  0.3683  0.4029
  125OSM   H15A13287   0.824   4.402   6.148  0.1948  0.4947 -0.0835
  125OSM   H15B13288   0.795   4.387   6.317  0.1472 -1.1379  0.1952
  125OSM   H15C13289   0.718   4.521   6.220 -0.7065 -0.0067  0.5556
  125OSM    C1413290   0.589   4.356   6.048 -0.0333 -0.0969  0.1802
  125OSM   H14A13291   0.669   4.349   5.975  0.1814  0.2960  0.3728
  125OSM   H14B13292   0.564   4.461   6.040  1.7065  0.4444  1.4271
  125OSM   H14C13293   0.502   4.300   6.017 -0.7957  1.1192  0.0535
  125OSM    C1313294   0.677   4.189   6.197  0.2820 -0.4378  0.5358
  125OSM   H13A13295   0.703   4.163   6.299 -0.2100  1.4661  1.1829
  125OSM   H13B13296   0.766   4.169   6.139 -0.0567 -0.5960  0.0716
  125OSM   H13C13297   0.602   4.116   6.169  1.4474 -1.0289 -1.2317
  125OSM    C1213298   0.518   4.356   6.275 -0.2603 -0.4289 -0.2349
  125OSM   H12A13299   0.564   4.340   6.372  0.7480 -0.9911 -0.7995
  125OSM   H12B13300   0.433   4.290   6.268 -0.2371 -0.7353  1.6619
  125OSM    C1113301   0.471   4.504   6.283  0.4116 -0.0476  0.8086
  125OSM   H11A13302   0.560   4.569   6.294  0.3518 -0.0684  1.4657
  125OSM   H11B13303   0.413   4.504   6.378 -0.0220  0.6748  0.5489
  125OSM      P13304   0.357   4.701   6.152  0.4781  0.0083  0.0206
  125OSM    O1313305   0.464   4.783   6.095 -0.7589 -0.0705 -0.2024
  125OSM    O1413306   0.228   4.721   6.084  0.1021 -0.3319 -0.0616
  125OSM    O1113307   0.346   4.761   6.300 -0.0143  0.6169  0.1134
  125OSM    O1213308   0.391   4.545   6.175 -0.3561 -0.2744  0.2662
  125OSM    C1S13309   0.231   4.737   6.375  0.5585  0.2845 -0.4066
  125OSM    H1S13310   0.203   4.629   6.367 -0.1840  0.4156  0.3040
  125OSM    H1T13311   0.160   4.813   6.337  1.8625  0.3913 -2.8082
  125OSM     NF13312   0.139   4.736   6.589  0.3651 -0.3993  0.0724
  125OSM    HNF13313   0.069   4.805   6.606 -0.6327 -0.5402 -2.9148
  125OSM    C2S13314   0.256   4.778   6.522  0.0864  1.0521  0.0758
  125OSM    H2S13315   0.342   4.725   6.568  1.2755  2.5842 -0.2827
  125OSM    C3S13316   0.284   4.926   6.535 -0.4409 -0.0401  0.1160
  125OSM    H3S13317   0.212   4.983   6.472  0.5220  2.9915  1.5524
  125OSM     O313318   0.403   4.972   6.466 -0.5474 -0.1399  0.1528
  125OSM    HO313319   0.417   4.908   6.396  1.0876 -1.1213  1.2877
  125OSM    C4S13320   0.300   4.969   6.682 -0.4841 -0.1768 -0.7440
  125OSM    H4S13321   0.209   5.013   6.727  0.2834 -0.7088  1.4477
  125OSM    C5S13322   0.411   4.968   6.761  0.3452  0.5314 -0.9384
  125OSM    H5S13323   0.504   4.920   6.725  0.7498  0.4417  0.1928
  125OSM    C6S13324   0.404   5.004   6.913 -0.0740 -0.6686 -0.0822
  125OSM    H6S13325   0.311   5.064   6.909 -0.3107 -0.9521  0.7795
  125OSM    H6T13326   0.488   5.071   6.941 -0.1244 -0.3398 -0.7200
  125OSM    C7S13327   0.386   4.883   7.007 -0.3469  0.0947 -0.4265
  125OSM    H7S13328   0.484   4.832   7.018  0.3715  1.5914  0.4576
  125OSM    H7T13329   0.310   4.809   6.971 -2.0171  1.1401  0.7721
  125OSM    C8S13330   0.351   4.927   7.155  0.1214  0.3783  0.6020
  125OSM    H8S13331   0.245   4.958   7.141 -0.2631 -1.4039 -0.8380
  125OSM    H8T13332   0.412   5.017   7.178  0.1843  0.5488 -0.2011
  125OSM    C9S13333   0.371   4.797   7.242  0.6056 -0.4396 -0.9958
  125OSM    H9S13334   0.477   4.766   7.249  0.9639  1.1327  1.9899
  125OSM    H9T13335   0.312   4.717   7.192 -0.2607 -0.3478 -0.1512
  125OSM   C10S13336   0.325   4.815   7.387  0.2124  0.5556  0.1891
  125OSM   H10S13337   0.312   4.713   7.430  0.5650 -0.5298 -2.1231
  125OSM   H10T13338   0.233   4.876   7.373 -0.7839 -1.1753 -1.2404
  125OSM   C11S13339   0.434   4.902   7.463  0.1745 -0.3651 -0.2672
  125OSM   H11S13340   0.418   5.003   7.420  0.7500  0.0867  0.5512
  125OSM   H11T13341   0.541   4.875   7.449  1.3927  3.0833  1.3325
  125OSM   C12S13342   0.391   4.932   7.608  0.4369  0.1526  0.6068
  125OSM   H12S13343   0.297   4.989   7.596  1.0298  1.2918  1.2309
  125OSM   H12T13344   0.469   4.996   7.655  1.2462  1.5007 -2.3039
  125OSM   C13S13345   0.358   4.805   7.686  0.3705  0.0339 -0.3521
  125OSM   H13S13346   0.449   4.744   7.707  0.9701  1.1823  0.4859
  125OSM   H13T13347   0.281   4.741   7.638  0.6527 -0.0107 -0.7524
  125OSM   C14S13348   0.314   4.837   7.830  0.5617 -0.5853  0.3255
  125OSM   H14S13349   0.212   4.882   7.833  1.7522  2.3659  0.9919
  125OSM   H14T13350   0.369   4.915   7.888  0.1432  0.4207 -0.6003
  125OSM   C15S13351   0.317   4.713   7.919 -0.3531 -0.0925 -0.4644
  125OSM   H15S13352   0.425   4.686   7.916  1.2170  5.0115  0.2957
  125OSM   H15T13353   0.245   4.632   7.895  0.0740 -0.6140  0.0113
  125OSM   C16S13354   0.288   4.753   8.066  0.6527 -0.0350  0.3921
  125OSM   H16S13355   0.194   4.812   8.068  1.7680  1.8497 -0.3557
  125OSM   H16T13356   0.368   4.826   8.091  0.0228  1.5941 -2.0216
  125OSM   C17S13357   0.309   4.640   8.160 -0.0502 -0.1408 -0.8185
  125OSM   H17S13358   0.252   4.555   8.117  0.1238  0.0060 -1.3479
  125OSM   H17T13359   0.266   4.665   8.260  1.8341  1.0637 -0.2404
  125OSM   C18S13360   0.452   4.597   8.178  0.2961  0.6395  0.2156
  125OSM   H18S13361   0.463   4.520   8.257 -0.8910 -0.4810 -0.6620
  125OSM   H18T13362   0.524   4.681   8.189  0.3546  1.0047 -2.3772
  125OSM   H18U13363   0.486   4.541   8.089 -0.8120  0.3181 -0.0257
  125OSM    C1F13364   0.104   4.610   6.613  0.3954  0.2074  0.1266
  125OSM     OF13365   0.179   4.524   6.585 -0.7365 -0.0428  0.3083
  125OSM    C2F13366  -0.035   4.587   6.668 -0.1713 -0.4189 -0.5967
  125OSM    H2F13367  -0.094   4.528   6.596 -0.7797  0.5031 -0.8763
  125OSM    H2G13368  -0.078   4.686   6.695  0.3117 -0.6500  1.1564
  125OSM    C3F13369  -0.023   4.493   6.797 -0.1167  0.7443 -0.1963
  125OSM    H3F13370   0.035   4.554   6.869  1.9975 -0.7296 -0.5631
  125OSM    H3G13371   0.038   4.405   6.768  1.1762  1.7542 -0.6249
  125OSM    C4F13372  -0.159   4.447   6.853  0.4332  0.2868 -0.4611
  125OSM    H4F13373  -0.223   4.408   6.772 -1.0076  1.3643  0.1246
  125OSM    H4G13374  -0.194   4.545   6.890  2.8009  0.7093  0.8670
  125OSM    C5F13375  -0.128   4.354   6.962  0.6385 -0.2154  0.4803
  125OSM    H5F13376  -0.058   4.395   7.037  0.9409  0.6572 -0.2679
  125OSM    H5G13377  -0.084   4.258   6.928 -1.0837 -1.0397  0.4606
  125OSM    C6F13378  -0.260   4.323   7.042  0.1408  0.7222 -0.0055
  125OSM    H6F13379  -0.333   4.268   6.977  0.0688  1.9206 -0.9815
  125OSM    H6G13380  -0.315   4.419   7.050 -0.4007  0.6208 -1.8516
  125OSM    C7F13381  -0.242   4.240   7.170  0.0935  0.2057 -0.1885
  125OSM    H7F13382  -0.167   4.289   7.236  0.1257 -3.2679  2.6770
  125OSM    H7G13383  -0.209   4.140   7.135 -0.6676  0.7653 -2.7816
  125OSM    C8F13384  -0.372   4.213   7.261  0.0369  0.0606 -0.1063
  125OSM    H8F13385  -0.347   4.125   7.324 -0.8408 -0.4916 -0.5068
  125OSM    H8G13386  -0.453   4.180   7.192 -1.8363  2.0225  1.0316
  125OSM    C9F13387  -0.430   4.340   7.328 -0.1128  0.0340 -0.3721
  125OSM    H9F13388  -0.467   4.415   7.256  0.0702 -0.0647 -0.5722
  125OSM   C10F13389  -0.454   4.373   7.456 -0.7506  0.1938  0.5803
  125OSM   H10F13390  -0.483   4.476   7.480 -0.8506  0.2066  0.4093
  125OSM   C11F13391  -0.423   4.281   7.574 -0.7363  0.2322  0.4047
  125OSM   H11F13392  -0.339   4.313   7.639  0.6893 -0.1786 -1.1606
  125OSM   H11G13393  -0.402   4.175   7.547 -2.6119 -0.8535  2.7794
  125OSM   C12F13394  -0.542   4.271   7.677  0.0953 -0.1849  0.3175
  125OSM   H12F13395  -0.635   4.230   7.633 -1.2386 -0.7419  3.3753
  125OSM   H12G13396  -0.572   4.374   7.707  0.1441  0.4399 -1.6202
  125OSM   C13F13397  -0.493   4.197   7.798  0.8935 -0.2494 -0.6368
  125OSM   H13F13398  -0.412   4.255   7.847  0.0175  0.7710 -0.3817
  125OSM   H13G13399  -0.446   4.098   7.779  0.0623 -0.7064 -0.3557
  125OSM   C14F13400  -0.605   4.166   7.897  1.1140 -0.0364 -0.2535
  125OSM   H14F13401  -0.682   4.118   7.834  2.2443 -0.7426 -1.1239
  125OSM   H14G13402  -0.645   4.257   7.948  3.7790 -0.0430  2.0504
  125OSM   C15F13403  -0.565   4.061   8.002  0.2142 -0.2975  0.1524
  125OSM   H15F13404  -0.515   3.980   7.944 -1.9549 -1.1554 -0.6353
  125OSM   H15G13405  -0.646   4.015   8.061 -0.9610 -0.2317 -1.3496
  125OSM   C16F13406  -0.478   4.118   8.112 -0.1840  0.0766 -1.3918
  125OSM   H16F13407  -0.525   4.212   8.148 -0.2929 -0.1907 -0.8161
  125OSM   H16G13408  -0.371   4.139   8.089  0.5210 -0.2207  1.2190
  125OSM   C17F13409  -0.487   4.028   8.240 -0.6862 -0.1582  0.2231
  125OSM   H17F13410  -0.465   3.925   8.206  0.1638 -0.4601  1.6059
  125OSM   H17G13411  -0.591   4.028   8.281 -0.3944 -1.2494  0.9813
  125OSM   C18F13412  -0.398   4.084   8.348 -0.5117  0.3824  0.0075
  125OSM   H18F13413  -0.294   4.083   8.307 -0.0796 -2.7316  0.9873
  125OSM   H18G13414  -0.389   4.021   8.439 -0.1778 -1.6943 -1.4094
  125OSM   H18H13415  -0.425   4.188   8.377 -1.8311 -0.3819  1.6714
  126OSM      N13416   4.413   4.109   6.541  0.0321 -0.3523  0.0881
  126OSM    C1513417   4.294   4.075   6.448 -0.1427  0.5287 -0.4973
  126OSM   H15A13418   4.200   4.063   6.499 -0.8120  0.1621 -1.7696
  126OSM   H15B13419   4.318   3.985   6.392 -0.5160  0.0485  0.1064
  126OSM   H15C13420   4.298   4.163   6.385  1.3676  1.5440  0.9445
  126OSM    C1413421   4.523   4.155   6.462 -0.4250  0.0204 -0.0646
  126OSM   H14A13422   4.619   4.134   6.506 -0.4443 -1.4451 -0.6747
  126OSM   H14B13423   4.514   4.256   6.424  0.9023  0.6087  1.0938
  126OSM   H14C13424   4.524   4.096   6.372 -1.0964 -1.9531  1.1515
  126OSM    C1313425   4.373   4.207   6.647 -0.4172  0.1737  0.3799
  126OSM   H13A13426   4.368   4.308   6.611 -1.7607  0.0746  0.2283
  126OSM   H13B13427   4.435   4.206   6.735  0.4667  0.0277 -0.2378
  126OSM   H13C13428   4.278   4.183   6.694  1.1025 -1.7606  2.7694
  126OSM    C1213429   4.449   3.979   6.612  0.5111 -0.4752 -0.4005
  126OSM   H12A13430   4.472   3.912   6.529 -3.0411  0.4979 -2.3630
  126OSM   H12B13431   4.365   3.935   6.663 -0.0797  0.5050 -0.5106
  126OSM    C1113432   4.563   3.984   6.716 -0.0693  0.4085  0.1130
  126OSM   H11A13433   4.554   3.877   6.746  2.9791  0.2596  0.7851
  126OSM   H11B13434   4.541   4.050   6.802  1.8897 -0.1469  1.0977
  126OSM      P13435   4.803   3.924   6.616  0.3003 -0.0547  0.1248
  126OSM    O1313436   4.768   3.862   6.484  0.0732 -0.4706  0.4051
  126OSM    O1413437   4.942   3.979   6.618 -0.0013  0.2024 -0.6659
  126OSM    O1113438   4.795   3.821   6.734 -0.3518 -0.5960  0.4929
  126OSM    O1213439   4.691   4.027   6.664 -0.7901  0.3988 -0.1212
  126OSM    C1S13440   4.844   3.863   6.865 -0.4842  0.1256 -0.0012
  126OSM    H1S13441   4.770   3.915   6.930  1.2606  2.9069 -0.0995
  126OSM    H1T13442   4.930   3.933   6.861 -0.2385 -0.2104 -0.6332
  126OSM     NF13443   4.936   3.767   7.074  0.7883  0.5377  0.3803
  126OSM    HNF13444   5.033   3.784   7.089  0.8168  0.4300  0.3229
  126OSM    C2S13445   4.884   3.732   6.947  0.5903 -0.5945 -0.7190
  126OSM    H2S13446   4.786   3.682   6.962 -1.6059  2.8558 -2.1984
  126OSM    C3S13447   4.978   3.636   6.868  0.4384  0.1319  0.3134
  126OSM    H3S13448   5.072   3.695   6.861  0.2107  0.4451 -0.1394
  126OSM     O313449   4.935   3.602   6.730 -0.3296 -0.3407 -0.2934
  126OSM    HO313450   4.863   3.665   6.721 -0.3155 -0.3376 -0.3866
  126OSM    C4S13451   5.010   3.511   6.941  0.1582 -0.2126 -0.7217
  126OSM    H4S13452   5.108   3.513   6.991  0.5581  1.1496 -1.5124
  126OSM    C5S13453   4.932   3.398   6.933 -0.5733  1.0562  0.0195
  126OSM    H5S13454   4.847   3.389   6.863  1.2982 -2.3387 -2.1102
  126OSM    C6S13455   4.957   3.273   7.021  0.1247 -0.3737 -0.1934
  126OSM    H6S13456   5.008   3.198   6.958 -0.9036  0.4449 -2.0806
  126OSM    H6T13457   4.859   3.223   7.037  0.1135  0.4072  2.6826
  126OSM    C7S13458   5.020   3.292   7.158  0.1489  0.7964 -0.2146
  126OSM    H7S13459   4.961   3.374   7.204 -2.1500  0.4291 -2.3229
  126OSM    H7T13460   5.128   3.318   7.149 -0.2751  3.5258  1.6428
  126OSM    C8S13461   5.006   3.170   7.249  0.0958 -0.9984 -0.5827
  126OSM    H8S13462   5.043   3.082   7.191 -0.8348 -0.5081 -1.9573
  126OSM    H8T13463   4.896   3.153   7.255 -0.3344  1.5633 -0.4299
  126OSM    C9S13464   5.087   3.169   7.376  0.5861 -0.4066 -1.0148
  126OSM    H9S13465   5.086   3.271   7.420  1.4982 -1.2999  1.2227
  126OSM    H9T13466   5.192   3.144   7.348  0.5571 -0.1656 -1.3489
  126OSM   C10S13467   5.031   3.071   7.479  0.2166 -0.6096 -0.4765
  126OSM   H10S13468   5.002   2.985   7.415  1.4850 -0.4488 -1.2870
  126OSM   H10T13469   4.938   3.106   7.530  0.9175  0.5441  0.0315
  126OSM   C11S13470   5.130   3.027   7.590 -0.7326  0.5455  0.3661
  126OSM   H11S13471   5.224   3.026   7.532 -0.4660  0.8895  0.7788
  126OSM   H11T13472   5.090   2.927   7.615 -1.0757 -0.0865 -2.4775
  126OSM   C12S13473   5.152   3.114   7.707 -0.6764 -0.4029 -0.7136
  126OSM   H12S13474   5.124   3.221   7.696 -1.2758 -0.3428  1.0045
  126OSM   H12T13475   5.259   3.111   7.737 -0.5774 -0.6889 -1.0880
  126OSM   C13S13476   5.075   3.068   7.841  0.0872  0.5423  0.1760
  126OSM   H13S13477   5.084   2.959   7.861 -2.5863 -0.0595 -1.3708
  126OSM   H13T13478   4.968   3.085   7.819 -0.1151 -1.1510 -0.3597
  126OSM   C14S13479   5.097   3.155   7.961 -0.7000  0.1765  0.2804
  126OSM   H14S13480   5.052   3.255   7.945 -3.0993 -1.0098 -0.8539
  126OSM   H14T13481   5.205   3.164   7.989 -0.9110  2.2449  0.5690
  126OSM   C15S13482   5.037   3.086   8.083 -0.1663 -0.8422  0.3379
  126OSM   H15S13483   5.046   3.155   8.170 -0.2974 -2.6565  1.8505
  126OSM   H15T13484   5.095   2.993   8.101  0.2124 -0.5112  0.8603
  126OSM   C16S13485   4.883   3.056   8.076  0.1692 -0.6841  0.3638
  126OSM   H16S13486   4.859   2.956   8.033  0.7355 -0.2867 -0.9562
  126OSM   H16T13487   4.824   3.125   8.012 -3.3003 -1.9853  1.9208
  126OSM   C17S13488   4.822   3.059   8.218  0.0469  0.7763  0.3262
  126OSM   H17S13489   4.810   3.167   8.242 -1.8130  1.3544 -2.6940
  126OSM   H17T13490   4.904   3.016   8.280  0.0945 -0.5520 -0.6097
  126OSM   C18S13491   4.693   2.991   8.235 -0.7266  0.7764 -0.1194
  126OSM   H18S13492   4.717   2.887   8.206  2.7449  1.3198  0.4717
  126OSM   H18T13493   4.623   3.031   8.158 -0.8862  1.4778  0.3805
  126OSM   H18U13494   4.641   2.986   8.333  1.0466 -2.7369  0.7949
  126OSM    C1F13495   4.857   3.799   7.177 -0.0406  0.2474  0.7787
  126OSM     OF13496   4.735   3.808   7.166  0.3283 -0.2817 -0.8052
  126OSM    C2F13497   4.928   3.835   7.299 -0.2341  0.2395  0.1669
  126OSM    H2F13498   4.872   3.912   7.355  0.9018 -1.1855  3.5970
  126OSM    H2G13499   5.029   3.873   7.271  0.9610 -1.2884  2.0752
  126OSM    C3F13500   4.956   3.716   7.394 -0.5168  0.8866  0.0811
  126OSM    H3F13501   5.012   3.637   7.340 -1.3992 -0.2773  0.8275
  126OSM    H3G13502   4.862   3.661   7.417  0.6646 -1.3177 -0.1514
  126OSM    C4F13503   5.032   3.758   7.516 -1.0125  0.3379  0.3007
  126OSM    H4F13504   5.127   3.810   7.494  0.8115 -2.2186  1.6635
  126OSM    H4G13505   5.071   3.666   7.564  2.4189  1.4110 -0.1587
  126OSM    C5F13506   4.949   3.829   7.632 -0.7377 -0.1590  0.0571
  126OSM    H5F13507   4.866   3.767   7.671 -0.3749  0.6755  2.2710
  126OSM    H5G13508   4.912   3.921   7.582  0.0380  0.0238 -0.2047
  126OSM    C6F13509   5.035   3.874   7.756 -0.8615  0.2502  0.1418
  126OSM    H6F13510   5.133   3.917   7.727 -1.1791  0.9378  0.0637
  126OSM    H6G13511   5.060   3.791   7.825 -2.3678  0.6115  1.1716
  126OSM    C7F13512   4.959   3.974   7.838  0.4424  0.4077  0.1011
  126OSM    H7F13513   4.868   3.921   7.875 -0.8380  1.5610 -1.2952
  126OSM    H7G13514   4.920   4.047   7.764 -2.8680 -1.2627  0.0166
  126OSM    C8F13515   5.032   4.049   7.951  0.7797  0.6032 -0.1204
  126OSM    H8F13516   5.128   4.080   7.906 -0.7705  1.0036 -3.3775
  126OSM    H8G13517   5.053   3.970   8.027 -1.2542  0.5134  0.4053
  126OSM    C9F13518   4.953   4.165   8.009  0.4102 -0.1666 -0.1280
  126OSM    H9F13519   4.978   4.265   7.973 -0.0865  0.0894  0.2278
  126OSM   C10F13520   4.863   4.165   8.113  0.0234  0.4618  0.3024
  126OSM   H10F13521   4.804   4.255   8.136 -2.3558 -1.0311  0.4208
  126OSM   C11F13522   4.829   4.045   8.189  0.8630  0.7611  0.6032
  126OSM   H11F13523   4.904   3.964   8.197  0.4301  0.4468  1.6306
  126OSM   H11G13524   4.739   3.999   8.144  0.1745  0.6064  2.0745
  126OSM   C12F13525   4.785   4.081   8.341 -0.7472  0.6364 -0.7936
  126OSM   H12F13526   4.774   3.984   8.394  2.8766 -0.0065 -0.9325
  126OSM   H12G13527   4.683   4.124   8.337 -2.7241 -3.5440 -0.7150
  126OSM   C13F13528   4.894   4.158   8.425 -0.2045  0.5505  0.0158
  126OSM   H13F13529   4.982   4.189   8.364  3.0965 -1.0309  3.5300
  126OSM   H13G13530   4.944   4.077   8.482 -0.3314 -0.3789 -1.1662
  126OSM   C14F13531   4.848   4.279   8.508  0.3359  0.1557 -0.3729
  126OSM   H14F13532   4.792   4.348   8.441  0.5438  0.3222 -0.3741
  126OSM   H14G13533   4.936   4.327   8.554  0.1521  2.8799 -2.5584
  126OSM   C15F13534   4.758   4.241   8.636  0.2314  0.0580 -0.4915
  126OSM   H15F13535   4.815   4.171   8.701 -0.1958  0.4250  0.2854
  126OSM   H15G13536   4.675   4.181   8.593 -0.3421  0.1825  0.4234
  126OSM   C16F13537   4.718   4.371   8.715  0.3171 -0.0822  0.0461
  126OSM   H16F13538   4.659   4.443   8.656  1.0392 -0.5725 -1.3237
  126OSM   H16G13539   4.813   4.423   8.740  1.5373 -2.2763  0.2821
  126OSM   C17F13540   4.636   4.350   8.847 -0.6866  0.7184  0.0890
  126OSM   H17F13541   4.711   4.296   8.909 -1.1675 -1.5745 -1.2485
  126OSM   H17G13542   4.541   4.294   8.833 -0.6060  0.6487 -0.1957
  126OSM   C18F13543   4.592   4.485   8.915 -0.3493 -0.2348 -0.3265
  126OSM   H18F13544   4.680   4.552   8.926 -0.4779 -0.0115 -0.6453
  126OSM   H18G13545   4.546   4.469   9.015  0.9789 -0.0397  0.3493
  126OSM   H18H13546   4.516   4.530   8.848 -3.0482  0.5621  2.9891
  127OSM      N13547   5.946   2.574   6.090  0.0702  0.2330  0.1679
  127OSM    C1513548   6.088   2.529   6.113 -0.2421  0.3700  0.5079
  127OSM   H15A13549   6.093   2.457   6.194  1.6694 -1.4823 -1.1381
  127OSM   H15B13550   6.148   2.609   6.153 -0.2154 -0.2376  1.7361
  127OSM   H15C13551   6.135   2.479   6.029 -3.0226 -1.8703  0.1125
  127OSM    C1413552   5.967   2.702   6.009  0.1655 -0.2566 -0.2930
  127OSM   H14A13553   6.009   2.669   5.915  4.3202 -1.0767  1.6289
  127OSM   H14B13554   6.039   2.763   6.062  0.6591  0.5940 -1.8983
  127OSM   H14C13555   5.878   2.763   6.001  1.0412  0.9430 -1.2650
  127OSM    C1313556   5.877   2.471   6.014 -0.0625 -0.2390 -0.0892
  127OSM   H13A13557   5.932   2.451   5.924  2.0523  0.7763  0.8927
  127OSM   H13B13558   5.771   2.491   6.012 -0.1229 -0.6346 -1.6925
  127OSM   H13C13559   5.878   2.376   6.065 -1.1834 -1.8159 -2.8434
  127OSM    C1213560   5.892   2.605   6.231  0.0803  0.4775  0.0850
  127OSM   H12A13561   5.973   2.635   6.296  0.3945 -2.8588  1.4089
  127OSM   H12B13562   5.852   2.513   6.271 -2.4478  0.6015 -1.8734
  127OSM    C1113563   5.769   2.699   6.237  0.0311 -0.5554 -0.3380
  127OSM   H11A13564   5.808   2.786   6.180  1.2264 -1.2132 -0.5571
  127OSM   H11B13565   5.745   2.735   6.339  0.9544  1.4232 -0.7855
  127OSM      P13566   5.580   2.513   6.231 -0.5675 -0.1329 -0.0366
  127OSM    O1313567   5.431   2.542   6.230 -0.4146  0.1831 -0.9660
  127OSM    O1413568   5.620   2.397   6.150 -0.6533 -0.4639  0.1378
  127OSM    O1113569   5.638   2.501   6.380 -0.1380 -0.0029  1.0922
  127OSM    O1213570   5.651   2.642   6.168 -0.8661  0.6739 -0.8438
  127OSM    C1S13571   5.536   2.452   6.469 -0.3011  0.4853  0.2298
  127OSM    H1S13572   5.501   2.351   6.437  0.3847  0.9086 -2.0774
  127OSM    H1T13573   5.454   2.524   6.487 -0.2472  0.1793  1.8771
  127OSM     NF13574   5.494   2.384   6.701  0.4042 -0.3511  0.3401
  127OSM    HNF13575   5.457   2.454   6.762 -0.1749  1.3199 -1.8395
  127OSM    C2S13576   5.599   2.422   6.609 -0.2586  0.7357 -0.1468
  127OSM    H2S13577   5.669   2.335   6.606  0.9153  1.6710 -2.1684
  127OSM    C3S13578   5.698   2.542   6.653  0.3229 -0.2403  0.3580
  127OSM    H3S13579   5.642   2.637   6.636  2.0211  0.6373 -0.6351
  127OSM     O313580   5.819   2.555   6.580 -0.7870  0.0519  0.4565
  127OSM    HO313581   5.806   2.484   6.517  0.4361  0.2207 -0.0056
  127OSM    C4S13582   5.739   2.530   6.803 -0.2830  0.2066 -0.1084
  127OSM    H4S13583   5.823   2.459   6.805  0.9225  1.5753  0.7134
  127OSM    C5S13584   5.704   2.597   6.911 -0.7486  0.6173  0.4435
  127OSM    H5S13585   5.653   2.695   6.902 -1.1630  0.5091  1.5248
  127OSM    C6S13586   5.745   2.554   7.046  0.1176 -1.2167  0.0820
  127OSM    H6S13587   5.668   2.584   7.120  0.9099 -0.1659  0.5104
  127OSM    H6T13588   5.834   2.616   7.071 -0.6096  1.0429 -2.4644
  127OSM    C7S13589   5.757   2.407   7.078  0.1755  0.3621  0.5928
  127OSM    H7S13590   5.855   2.377   7.035 -0.1942 -0.2393  0.1586
  127OSM    H7T13591   5.676   2.354   7.024  0.8208  0.7576 -0.8257
  127OSM    C8S13592   5.751   2.376   7.226 -0.1657  0.6197 -0.3734
  127OSM    H8S13593   5.645   2.398   7.251 -0.5201 -1.6901  0.3747
  127OSM    H8T13594   5.810   2.451   7.282 -1.2586  1.1145  0.1470
  127OSM    C9S13595   5.777   2.231   7.270  0.2272  0.1854 -0.0026
  127OSM    H9S13596   5.883   2.207   7.246 -0.7430 -3.4640 -1.2517
  127OSM    H9T13597   5.712   2.172   7.203 -2.1797  0.1416  2.2163
  127OSM   C10S13598   5.763   2.204   7.417 -0.1614  0.4998  0.0309
  127OSM   H10S13599   5.672   2.144   7.434 -0.1939  0.1245 -1.3328
  127OSM   H10T13600   5.746   2.299   7.473 -3.0979  0.5679 -0.8080
  127OSM   C11S13601   5.882   2.123   7.476 -0.3793 -0.0218  0.3399
  127OSM   H11S13602   5.983   2.148   7.434 -1.0271  1.6802 -0.3076
  127OSM   H11T13603   5.858   2.016   7.456  1.0905 -0.0490 -1.7359
  127OSM   C12S13604   5.908   2.140   7.632  0.1105 -0.7416  0.2744
  127OSM   H12S13605   5.808   2.119   7.676 -0.4878 -0.5717 -0.9840
  127OSM   H12T13606   5.931   2.244   7.663  3.3699 -1.5671  0.9677
  127OSM   C13S13607   6.014   2.042   7.687 -0.5824  0.2481  0.6457
  127OSM   H13S13608   6.110   2.069   7.637 -0.1281 -1.9890  0.1999
  127OSM   H13T13609   5.985   1.939   7.658  0.4569 -0.3636  1.7337
  127OSM   C14S13610   6.033   2.037   7.843 -0.2821  0.7792 -0.0210
  127OSM   H14S13611   6.123   1.978   7.870 -0.0708  1.5946  1.1449
  127OSM   H14T13612   5.956   1.967   7.880  0.4773  0.1695  0.4441
  127OSM   C15S13613   6.030   2.170   7.915  0.0203  0.0377 -0.2372
  127OSM   H15S13614   5.930   2.211   7.888 -0.2746 -0.4318  0.1403
  127OSM   H15T13615   6.107   2.242   7.881 -1.3236  1.1103 -1.1343
  127OSM   C16S13616   6.033   2.165   8.072  0.2380  0.0592 -0.5894
  127OSM   H16S13617   6.102   2.090   8.116 -2.3897 -1.1972  1.7693
  127OSM   H16T13618   5.932   2.138   8.110  0.7875  0.5774  1.3509
  127OSM   C17S13619   6.065   2.304   8.133  0.6329 -0.1807  0.1955
  127OSM   H17S13620   5.970   2.360   8.128  0.3358 -0.4331  2.2393
  127OSM   H17T13621   6.150   2.359   8.086 -1.1726  0.6908 -2.2871
  127OSM   C18S13622   6.089   2.300   8.285  0.3867  0.1119  0.4078
  127OSM   H18S13623   6.121   2.401   8.320 -1.7131  0.8631  0.2577
  127OSM   H18T13624   6.164   2.220   8.305  0.2458  0.0571  0.7093
  127OSM   H18U13625   5.993   2.275   8.335 -0.4474  0.0359 -1.1722
  127OSM    C1F13626   5.437   2.266   6.705 -0.4502 -0.5086 -0.3702
  127OSM     OF13627   5.481   2.177   6.637 -0.0688  0.5999  0.6130
  127OSM    C2F13628   5.325   2.252   6.800 -0.1242 -0.1840  0.8828
  127OSM    H2F13629   5.297   2.146   6.811 -3.0136  0.6464  2.6209
  127OSM    H2G13630   5.238   2.306   6.757 -0.0352 -0.4514  0.3568
  127OSM    C3F13631   5.387   2.299   6.936  0.3758  0.3250  0.6738
  127OSM    H3F13632   5.395   2.410   6.946 -0.2048  0.4951 -0.5314
  127OSM    H3G13633   5.491   2.262   6.942  1.3903  3.1554  2.8713
  127OSM    C4F13634   5.302   2.259   7.054  0.6992  0.4846 -0.3837
  127OSM    H4F13635   5.259   2.157   7.040  1.4527  0.0500  0.3954
  127OSM    H4G13636   5.205   2.313   7.051 -0.6392 -1.6937  0.6747
  127OSM    C5F13637   5.378   2.270   7.189  1.1232  1.0388 -0.2735
  127OSM    H5F13638   5.411   2.374   7.212 -0.7087  1.0036  3.2202
  127OSM    H5G13639   5.452   2.188   7.192 -0.8643 -0.8466 -0.1461
  127OSM    C6F13640   5.292   2.248   7.314 -0.4249 -0.3429  0.3209
  127OSM    H6F13641   5.250   2.146   7.304  0.3013 -0.8330  2.0208
  127OSM    H6G13642   5.210   2.324   7.321 -0.2201 -0.0078 -0.6888
  127OSM    C7F13643   5.358   2.246   7.456  0.8727  0.2073 -0.7183
  127OSM    H7F13644   5.377   2.350   7.490 -2.9971  0.3922  1.4701
  127OSM    H7G13645   5.449   2.186   7.438  0.6013 -0.4312 -0.0146
  127OSM    C8F13646   5.262   2.192   7.568  0.3346 -0.4335 -0.5815
  127OSM    H8F13647   5.324   2.181   7.660  0.1578 -0.7097 -0.4947
  127OSM    H8G13648   5.243   2.089   7.532  1.8289 -0.0370 -2.6582
  127OSM    C9F13649   5.128   2.270   7.598 -0.3643  0.0013 -0.1547
  127OSM    H9F13650   5.072   2.314   7.515  0.2714  1.1457  0.0017
  127OSM   C10F13651   5.088   2.307   7.722 -0.9908 -0.7046 -0.2179
  127OSM   H10F13652   4.997   2.369   7.729  1.0429  2.3599  1.1573
  127OSM   C11F13653   5.151   2.276   7.855 -0.1454  0.0456  0.2635
  127OSM   H11F13654   5.156   2.368   7.918  0.5385 -0.0251  0.3250
  127OSM   H11G13655   5.251   2.231   7.838 -0.4150  0.1332 -1.8619
  127OSM   C12F13656   5.063   2.182   7.942  0.0552  0.1362 -0.0694
  127OSM   H12F13657   5.031   2.090   7.888  0.4957 -1.8971  2.9070
  127OSM   H12G13658   4.971   2.242   7.959 -0.0889  0.5001 -1.9113
  127OSM   C13F13659   5.126   2.128   8.074  0.7049 -0.1742  0.0905
  127OSM   H13F13660   5.222   2.077   8.053  1.4934  0.7776  1.2779
  127OSM   H13G13661   5.046   2.057   8.103 -0.2571  0.1241 -1.6603
  127OSM   C14F13662   5.144   2.234   8.182 -0.1941 -0.6410  0.3181
  127OSM   H14F13663   5.066   2.312   8.166  0.0371 -0.1235  1.6212
  127OSM   H14G13664   5.244   2.278   8.164 -0.7876  0.6695  0.1441
  127OSM   C15F13665   5.135   2.190   8.327  0.3872 -0.1174  0.2720
  127OSM   H15F13666   5.030   2.154   8.335  0.3228 -1.2336 -3.6869
  127OSM   H15G13667   5.159   2.276   8.394 -1.0616  1.3784 -1.0496
  127OSM   C16F13668   5.236   2.085   8.371  0.0875  0.8142 -0.3066
  127OSM   H16F13669   5.331   2.140   8.388  0.5381  0.0230 -0.2112
  127OSM   H16G13670   5.257   2.009   8.293 -2.8269 -2.0327  1.4748
  127OSM   C17F13671   5.182   2.013   8.493 -0.1583  0.2393 -1.2811
  127OSM   H17F13672   5.087   1.960   8.470 -0.4902 -0.2818  0.9928
  127OSM   H17G13673   5.161   2.088   8.573 -1.7842 -1.4342 -0.0530
  127OSM   C18F13674   5.275   1.907   8.556 -0.0368 -1.1055  0.5147
  127OSM   H18F13675   5.372   1.954   8.583  0.3639 -0.9062 -1.1472
  127OSM   H18G13676   5.294   1.826   8.482 -0.6065 -0.9756  0.2234
  127OSM   H18H13677   5.228   1.867   8.648  1.1979 -1.4764  1.0020
  128OSM      N13678   1.380   4.647   6.057  0.5860  0.5315  0.2441
  128OSM    C1513679   1.513   4.689   6.019 -0.1566 -0.7108 -0.5783
  128OSM   H15A13680   1.514   4.735   5.921 -0.7011  1.4849  0.4035
  128OSM   H15B13681   1.584   4.608   6.007  2.6410  1.6646 -0.9198
  128OSM   H15C13682   1.554   4.770   6.076  1.5719 -1.0141 -1.3370
  128OSM    C1413683   1.282   4.762   6.043 -1.3826  0.0433 -0.3554
  128OSM   H14A13684   1.324   4.843   6.101  0.3514 -1.8681  1.2547
  128OSM   H14B13685   1.180   4.732   6.062 -1.3062  1.2851  2.5324
  128OSM   H14C13686   1.286   4.793   5.940 -0.9263  1.1940 -0.0041
  128OSM    C1313687   1.334   4.547   5.955 -0.3078  0.1645  0.1218
  128OSM   H13A13688   1.330   4.593   5.858  1.6962 -0.4385 -0.3092
  128OSM   H13B13689   1.242   4.502   5.989 -0.7401 -0.2580 -1.5124
  128OSM   H13C13690   1.413   4.473   5.954 -0.8931 -0.4666 -0.3181
  128OSM    C1213691   1.376   4.588   6.195  0.2583 -0.5457 -1.1213
  128OSM   H12A13692   1.450   4.512   6.216 -0.3913 -0.8580  0.1103
  128OSM   H12B13693   1.282   4.537   6.208 -0.5176  1.1095  0.1155
  128OSM    C1113694   1.388   4.681   6.318  0.2176 -0.3784 -0.4689
  128OSM   H11A13695   1.406   4.623   6.411  0.1000 -0.6165 -0.5938
  128OSM   H11B13696   1.292   4.735   6.333 -0.0599 -1.2244  1.0810
  128OSM      P13697   1.475   4.935   6.319  0.2902 -0.0592  0.4304
  128OSM    O1313698   1.611   5.001   6.314 -0.7424 -0.2195  0.0227
  128OSM    O1413699   1.383   4.976   6.214  0.1174  0.2765 -0.0774
  128OSM    O1113700   1.410   4.954   6.460  0.4573 -0.3587  0.1678
  128OSM    O1213701   1.499   4.776   6.308  0.2311  0.4802  0.2258
  128OSM    C1S13702   1.493   4.920   6.573  0.9932 -0.3931  0.1597
  128OSM    H1S13703   1.574   4.997   6.581  2.4569 -1.9055  0.3502
  128OSM    H1T13704   1.546   4.824   6.558  2.2626  0.3271 -0.0596
  128OSM     NF13705   1.500   4.907   6.826 -0.0539 -0.4546  0.2571
  128OSM    HNF13706   1.490   4.832   6.892 -1.7706 -0.0861  0.4483
  128OSM    C2S13707   1.408   4.902   6.709 -0.4574  0.4303 -0.1314
  128OSM    H2S13708   1.338   4.986   6.728 -1.9549 -0.8974  0.4082
  128OSM    C3S13709   1.325   4.770   6.702 -0.2490 -0.0597  0.4912
  128OSM    H3S13710   1.396   4.686   6.683 -1.2589 -0.6031 -1.1039
  128OSM     O313711   1.236   4.774   6.591  0.2639  0.2897  0.3206
  128OSM    HO313712   1.270   4.844   6.536  0.0314 -0.2938 -0.5865
  128OSM    C4S13713   1.243   4.743   6.820  0.4960 -0.5040 -0.4926
  128OSM    H4S13714   1.158   4.812   6.835 -0.1831 -1.3890 -0.1834
  128OSM    C5S13715   1.270   4.649   6.915  0.3947  0.4597 -0.3468
  128OSM    H5S13716   1.348   4.574   6.894 -0.2596 -0.0630 -0.9326
  128OSM    C6S13717   1.194   4.619   7.043 -0.0356  0.2124 -0.3988
  128OSM    H6S13718   1.149   4.517   7.047  2.6417 -1.0707  2.8087
  128OSM    H6T13719   1.118   4.698   7.062 -0.7411 -0.1496 -1.6264
  128OSM    C7S13720   1.291   4.621   7.155  0.5280 -0.2747 -0.5225
  128OSM    H7S13721   1.336   4.723   7.162 -0.5728  0.3446 -1.8709
  128OSM    H7T13722   1.372   4.547   7.136 -0.4362 -1.5246  0.1350
  128OSM    C8S13723   1.227   4.574   7.289  0.4345  0.1098 -0.6370
  128OSM    H8S13724   1.188   4.471   7.275 -0.1754  0.2447  0.0687
  128OSM    H8T13725   1.145   4.646   7.308  1.2635  0.9242 -0.0137
  128OSM    C9S13726   1.327   4.571   7.405  0.3040 -0.7472 -0.6166
  128OSM    H9S13727   1.367   4.674   7.419  1.3128 -0.9410 -1.8225
  128OSM    H9T13728   1.414   4.506   7.379  0.5625 -0.8028  0.3450
  128OSM   C10S13729   1.261   4.526   7.542  0.0564 -0.3826 -0.5352
  128OSM   H10S13730   1.245   4.418   7.527 -0.7324 -0.5613  1.3098
  128OSM   H10T13731   1.161   4.575   7.548 -0.0044 -0.4818 -0.7195
  128OSM   C11S13732   1.337   4.559   7.667  0.0533 -0.0937 -0.2356
  128OSM   H11S13733   1.373   4.664   7.675 -1.0295  0.1694  2.6046
  128OSM   H11T13734   1.429   4.498   7.671 -0.9153 -1.5814 -0.0463
  128OSM   C12S13735   1.246   4.522   7.785  0.2171 -0.2520 -0.1008
  128OSM   H12S13736   1.220   4.415   7.769  0.9824 -0.1810 -2.2029
  128OSM   H12T13737   1.160   4.592   7.781 -0.0306 -0.4687  1.0631
  128OSM   C13S13738   1.324   4.539   7.916 -0.3996 -0.3302  0.1184
  128OSM   H13S13739   1.334   4.647   7.937  0.4151 -0.3052 -0.3293
  128OSM   H13T13740   1.418   4.481   7.900 -1.4770 -1.8966 -0.8533
  128OSM   C14S13741   1.253   4.481   8.036 -0.3961  0.5171 -0.7136
  128OSM   H14S13742   1.241   4.373   8.015 -1.0031  0.2006  1.1004
  128OSM   H14T13743   1.152   4.527   8.048  0.0330  1.7183 -1.5380
  128OSM   C15S13744   1.330   4.503   8.167 -0.2778  0.9688 -0.0002
  128OSM   H15S13745   1.269   4.478   8.256 -0.9201 -2.4092 -1.2398
  128OSM   H15T13746   1.340   4.612   8.184 -3.5289  1.3236  0.3902
  128OSM   C16S13747   1.452   4.417   8.173  0.0153 -0.3375 -0.6106
  128OSM   H16S13748   1.526   4.447   8.096  2.3725 -0.2201  1.5859
  128OSM   H16T13749   1.424   4.310   8.167  0.3384 -0.3870 -1.3095
  128OSM   C17S13750   1.523   4.449   8.307 -0.2164  0.0642 -0.2115
  128OSM   H17S13751   1.472   4.421   8.401  0.2834 -0.0878  0.0206
  128OSM   H17T13752   1.541   4.559   8.300 -0.9620  0.2179  0.1729
  128OSM   C18S13753   1.664   4.384   8.323  1.0590  0.1636  0.3168
  128OSM   H18S13754   1.715   4.431   8.410 -1.5675  1.9355  0.9928
  128OSM   H18T13755   1.720   4.397   8.228  1.2460  4.3692  0.8338
  128OSM   H18U13756   1.649   4.278   8.355 -1.5038  0.4765  0.3720
  128OSM    C1F13757   1.580   5.015   6.848  0.1965  0.1569 -0.1008
  128OSM     OF13758   1.548   5.127   6.800 -0.2714  0.1248  0.1437
  128OSM    C2F13759   1.686   5.001   6.944 -0.0893  0.5547 -0.0154
  128OSM    H2F13760   1.770   4.950   6.892  0.1004  0.4945  0.3468
  128OSM    H2G13761   1.661   4.940   7.033  1.0357  0.1468  0.0357
  128OSM    C3F13762   1.741   5.131   6.990  0.3367 -0.8193 -0.1548
  128OSM    H3F13763   1.670   5.204   7.035  0.7382  0.3033 -1.2937
  128OSM    H3G13764   1.787   5.165   6.895 -0.4678  1.2444  0.1583
  128OSM    C4F13765   1.854   5.107   7.092  0.0318 -0.0336  0.1937
  128OSM    H4F13766   1.902   5.207   7.098 -0.5991  0.3736 -1.2680
  128OSM    H4G13767   1.922   5.033   7.046 -1.2372 -0.2930 -1.3676
  128OSM    C5F13768   1.815   5.061   7.233 -0.0487 -0.5459  0.0077
  128OSM    H5F13769   1.780   4.956   7.236  1.1596 -0.9455  1.2364
  128OSM    H5G13770   1.729   5.127   7.258 -0.8851 -0.9571 -1.6625
  128OSM    C6F13771   1.929   5.092   7.340  0.6617  0.7637 -0.2152
  128OSM    H6F13772   1.953   5.200   7.331  2.1371  0.3020 -2.5537
  128OSM    H6G13773   2.014   5.023   7.319 -1.3630 -2.8181  2.1903
  128OSM    C7F13774   1.868   5.064   7.479  0.5300  0.0158 -0.1872
  128OSM    H7F13775   1.832   4.959   7.482  1.7816 -0.4064  1.1530
  128OSM    H7G13776   1.787   5.139   7.491  2.7394  2.2520  1.7198
  128OSM    C8F13777   1.963   5.075   7.599 -0.4847 -0.0135 -0.4362
  128OSM    H8F13778   1.908   5.076   7.696 -0.6523  1.9137 -0.5090
  128OSM    H8G13779   2.022   5.169   7.601 -0.9242  0.2576  0.8460
  128OSM    C9F13780   2.079   4.977   7.607 -0.2027  0.0381 -0.2484
  128OSM    H9F13781   2.129   4.974   7.509  0.9570  0.3331  0.3138
  128OSM   C10F13782   2.127   4.903   7.710 -0.5039 -0.4083  0.0447
  128OSM   H10F13783   2.209   4.834   7.685 -1.8172 -1.5567 -1.2360
  128OSM   C11F13784   2.062   4.894   7.846 -0.0126  0.2506 -0.0388
  128OSM   H11F13785   2.015   4.793   7.846 -2.5405  1.3016 -2.3474
  128OSM   H11G13786   1.976   4.963   7.862  0.3323  0.8281 -0.6487
  128OSM   C12F13787   2.162   4.903   7.960 -0.5585  0.3805  0.0910
  128OSM   H12F13788   2.096   4.925   8.047 -0.9782 -1.6871  0.3326
  128OSM   H12G13789   2.227   4.991   7.941 -1.6841  0.8826 -1.7004
  128OSM   C13F13790   2.241   4.776   7.977 -0.3808  0.1988 -0.0424
  128OSM   H13F13791   2.324   4.795   8.049  1.8998  0.5249 -2.6126
  128OSM   H13G13792   2.287   4.753   7.878  1.1535  0.1245  0.6497
  128OSM   C14F13793   2.154   4.660   8.022 -0.1514  0.6711  0.0768
  128OSM   H14F13794   2.218   4.571   8.000  1.3695  0.9986  2.7248
  128OSM   H14G13795   2.060   4.625   7.975 -1.1446  0.7222  1.9349
  128OSM   C15F13796   2.132   4.659   8.180  0.7180  1.2097 -0.0289
  128OSM   H15F13797   2.080   4.750   8.216 -1.9599 -0.8965  1.8057
  128OSM   H15G13798   2.235   4.652   8.221 -0.0868  0.3656  1.9861
  128OSM   C16F13799   2.062   4.530   8.226  0.1131  1.0547 -0.3713
  128OSM   H16F13800   2.092   4.445   8.160 -1.2616 -0.7523  1.2153
  128OSM   H16G13801   1.953   4.542   8.209 -0.2097 -0.2975  0.6287
  128OSM   C17F13802   2.098   4.496   8.368  0.0697  0.0413  0.9975
  128OSM   H17F13803   2.208   4.508   8.377 -0.0219  0.1228  2.1907
  128OSM   H17G13804   2.091   4.386   8.383 -1.2277 -0.9910 -4.7648
  128OSM   C18F13805   2.024   4.576   8.479  0.1681  0.1356  0.7020
  128OSM   H18F13806   2.054   4.522   8.572  1.9318 -0.7026 -0.3058
  128OSM   H18G13807   1.913   4.569   8.481  0.1589 -0.9157 -1.2128
  128OSM   H18H13808   2.060   4.680   8.499 -0.2816  0.5254 -0.4519
  129OSM      N13809   5.837   0.834   6.602  0.0222 -0.6307 -0.2131
  129OSM    C1513810   5.833   0.722   6.510  0.4852  0.4972  0.2342
  129OSM   H15A13811   5.761   0.654   6.552  0.2935  1.0042  0.7329
  129OSM   H15B13812   5.926   0.670   6.493  0.5082  0.6565 -0.1383
  129OSM   H15C13813   5.799   0.753   6.412  1.1543 -1.2907 -0.6014
  129OSM    C1413814   5.700   0.892   6.639 -1.3840 -0.3446  0.2831
  129OSM   H14A13815   5.659   0.928   6.546 -0.0020 -0.2417 -0.3045
  129OSM   H14B13816   5.713   0.977   6.704  0.8177 -1.6182  1.6152
  129OSM   H14C13817   5.642   0.813   6.685 -0.4111 -1.3662 -0.1859
  129OSM    C1313818   5.911   0.805   6.733  0.0694  0.0947 -0.0281
  129OSM   H13A13819   6.014   0.785   6.707  0.2418  1.5195 -0.5639
  129OSM   H13B13820   5.873   0.715   6.779  0.9343 -0.2279  0.0708
  129OSM   H13C13821   5.906   0.878   6.813  1.3496  1.1532 -0.8669
  129OSM    C1213822   5.924   0.954   6.549 -0.3748 -0.8674  0.1991
  129OSM   H12A13823   6.027   0.926   6.529  0.5272  1.2507  1.4818
  129OSM   H12B13824   5.947   1.015   6.635  2.7727 -0.3468 -0.8825
  129OSM    C1113825   5.874   1.045   6.436  0.1171  0.3105  0.4638
  129OSM   H11A13826   5.772   1.080   6.463  1.1087  4.1188 -0.1651
  129OSM   H11B13827   5.865   0.996   6.336  0.1816 -0.8426  0.9997
  129OSM      P13828   6.118   1.127   6.368  0.0335  0.1578 -0.2839
  129OSM    O1313829   6.177   1.004   6.416  0.0939  0.3319 -0.3750
  129OSM    O1413830   6.121   1.153   6.220  0.3285  0.0387 -0.0827
  129OSM    O1113831   6.185   1.243   6.445  0.4129 -0.0661 -0.2654
  129OSM    O1213832   5.969   1.150   6.419  0.0786 -1.3284 -0.1869
  129OSM    C1S13833   6.156   1.260   6.587  0.3384 -0.1920 -0.2579
  129OSM    H1S13834   6.049   1.257   6.614  0.3721 -3.1270 -0.0631
  129OSM    H1T13835   6.186   1.362   6.617 -2.0800  0.0771  1.4832
  129OSM     NF13836   6.205   1.191   6.821 -0.2879 -0.3511 -0.8375
  129OSM    HNF13837   6.256   1.260   6.872 -0.4726 -0.3152 -0.6995
  129OSM    C2S13838   6.243   1.169   6.681 -1.0185 -0.9101 -0.5735
  129OSM    H2S13839   6.219   1.064   6.651  1.0119 -0.8827 -2.5962
  129OSM    C3S13840   6.391   1.200   6.654  0.2564  0.1240 -0.2710
  129OSM    H3S13841   6.422   1.299   6.693 -0.9954  0.9797 -1.3529
  129OSM     O313842   6.428   1.204   6.517 -0.1123 -0.3619  0.1626
  129OSM    HO313843   6.347   1.209   6.466 -0.3425  1.4659  0.6247
  129OSM    C4S13844   6.474   1.093   6.727  0.1497  1.3091  0.9031
  129OSM    H4S13845   6.489   1.122   6.832  0.8253 -0.4535  1.3240
  129OSM    C5S13846   6.523   0.974   6.680  0.1121  0.1730 -0.0770
  129OSM    H5S13847   6.502   0.955   6.574 -0.9872 -3.0829  0.6243
  129OSM    C6S13848   6.602   0.873   6.764 -0.4952 -0.6407  0.0309
  129OSM    H6S13849   6.662   0.928   6.840 -1.3738 -0.9143  0.9468
  129OSM    H6T13850   6.664   0.809   6.698 -0.1505 -0.8132  0.5093
  129OSM    C7S13851   6.510   0.774   6.841  0.2264 -0.4860 -0.4606
  129OSM    H7S13852   6.462   0.697   6.776 -0.7186  0.9826 -1.5679
  129OSM    H7T13853   6.426   0.825   6.893 -0.0935 -2.7930  1.4508
  129OSM    C8S13854   6.585   0.697   6.949  0.0140  0.2240  1.2192
  129OSM    H8S13855   6.661   0.767   6.989  1.3712  0.7150 -1.8972
  129OSM    H8T13856   6.636   0.613   6.896  0.4631  1.7363 -0.8970
  129OSM    C9S13857   6.496   0.652   7.059  0.3429 -0.2182 -0.3239
  129OSM    H9S13858   6.420   0.591   7.007 -2.4944  2.7312 -0.0088
  129OSM    H9T13859   6.448   0.732   7.120 -0.0788 -0.1837 -0.7011
  129OSM   C10S13860   6.573   0.563   7.168  0.4308 -0.7590  0.1500
  129OSM   H10S13861   6.679   0.594   7.156 -0.0548  0.6210 -0.9692
  129OSM   H10T13862   6.559   0.455   7.148 -0.1902 -0.4234 -1.3568
  129OSM   C11S13863   6.537   0.604   7.305  1.0811  0.1042 -0.5301
  129OSM   H11S13864   6.429   0.585   7.324  1.1341 -0.0044 -0.3205
  129OSM   H11T13865   6.538   0.714   7.321 -2.5451  0.2244 -0.3508
  129OSM   C12S13866   6.618   0.521   7.402  0.2978  0.7408 -0.2700
  129OSM   H12S13867   6.726   0.544   7.392 -0.1528  2.8694 -0.7447
  129OSM   H12T13868   6.613   0.412   7.380  0.6955  0.6436  0.1120
  129OSM   C13S13869   6.583   0.551   7.551  0.7595  0.1372  0.7874
  129OSM   H13S13870   6.474   0.551   7.569  0.5986  3.3839  0.4390
  129OSM   H13T13871   6.619   0.656   7.559  3.5897 -0.7421  0.7881
  129OSM   C14S13872   6.656   0.458   7.653  0.4015 -0.3827  0.0763
  129OSM   H14S13873   6.765   0.474   7.640  0.0942 -0.1338 -2.7924
  129OSM   H14T13874   6.622   0.357   7.622 -0.2931 -0.0608 -0.2336
  129OSM   C15S13875   6.608   0.474   7.798  0.5750 -0.5643 -0.5798
  129OSM   H15S13876   6.509   0.425   7.807  0.0279  0.3033 -1.5683
  129OSM   H15T13877   6.584   0.582   7.797 -2.7358 -1.2038  0.5467
  129OSM   C16S13878   6.708   0.409   7.887 -0.4127 -0.3801 -0.7556
  129OSM   H16S13879   6.798   0.473   7.870  1.7951 -2.5988  1.8488
  129OSM   H16T13880   6.728   0.304   7.858 -0.8387 -0.3740 -1.0864
  129OSM   C17S13881   6.680   0.429   8.036 -0.2873  0.2359 -0.2310
  129OSM   H17S13882   6.577   0.390   8.049  0.8449 -2.6803  0.6493
  129OSM   H17T13883   6.673   0.539   8.053 -1.4539  0.0503  0.6341
  129OSM   C18S13884   6.781   0.373   8.141  0.1556 -0.2123  0.2595
  129OSM   H18S13885   6.875   0.429   8.119  0.4265 -0.8939 -0.3646
  129OSM   H18T13886   6.805   0.268   8.111  2.6398  0.4759 -0.4567
  129OSM   H18U13887   6.743   0.385   8.244 -1.9436 -2.4289 -0.1796
  129OSM    C1F13888   6.106   1.131   6.880 -0.5106  0.1995 -0.0947
  129OSM     OF13889   6.011   1.088   6.815 -0.6488 -0.2563  0.7216
  129OSM    C2F13890   6.109   1.121   7.025  0.2390  0.5483  0.2034
  129OSM    H2F13891   6.047   1.195   7.079 -1.6078 -1.0514  0.3784
  129OSM    H2G13892   6.214   1.111   7.062 -0.4605 -1.3313  1.8300
  129OSM    C3F13893   6.036   0.981   7.059  0.0142  0.2378 -0.5220
  129OSM    H3F13894   6.071   0.913   6.979 -1.3805  0.5958 -1.4603
  129OSM    H3G13895   5.927   0.980   7.041  0.1537 -0.8623 -1.3907
  129OSM    C4F13896   6.067   0.930   7.198  0.0099  0.7877  0.1188
  129OSM    H4F13897   6.168   0.884   7.203 -1.8276 -3.5329  1.7301
  129OSM    H4G13898   5.993   0.851   7.219  0.9395  0.3890  2.0857
  129OSM    C5F13899   6.048   1.034   7.310  0.0466  0.4577 -0.9212
  129OSM    H5F13900   5.965   1.103   7.285  0.1119  0.7147 -0.4321
  129OSM    H5G13901   6.139   1.097   7.321  0.7138 -0.4191 -1.2939
  129OSM    C6F13902   6.020   0.965   7.445 -0.1686 -0.6680 -0.2687
  129OSM    H6F13903   6.103   0.898   7.475 -0.0305  0.5089  2.2486
  129OSM    H6G13904   5.935   0.895   7.431 -0.2855 -0.3870 -1.0170
  129OSM    C7F13905   6.016   1.073   7.553 -0.2731  0.0771  0.6089
  129OSM    H7F13906   5.942   1.151   7.523 -0.1397 -0.7224 -2.0031
  129OSM    H7G13907   6.114   1.126   7.557  0.0118 -0.1332 -2.0511
  129OSM    C8F13908   6.005   1.019   7.696  0.1376 -0.4382 -0.0891
  129OSM    H8F13909   6.016   1.107   7.764  0.1963  0.1581 -0.8573
  129OSM    H8G13910   6.073   0.932   7.704  1.3257  0.5241  0.5225
  129OSM    C9F13911   5.867   0.975   7.713 -0.0531 -0.3602  0.1662
  129OSM    H9F13912   5.803   0.943   7.629 -1.7402 -1.7278  1.9029
  129OSM   C10F13913   5.814   0.935   7.831 -0.4250 -0.3550  0.4487
  129OSM   H10F13914   5.713   0.893   7.833 -0.6596  0.1003 -0.8938
  129OSM   C11F13915   5.870   0.949   7.970 -0.2915 -0.2531  0.0249
  129OSM   H11F13916   5.839   1.044   8.019  1.2001  0.2351  0.0784
  129OSM   H11G13917   5.981   0.944   7.972 -0.2488 -1.2391 -2.0916
  129OSM   C12F13918   5.818   0.838   8.069  0.1411  0.0104  0.4585
  129OSM   H12F13919   5.708   0.843   8.083 -0.2921 -3.6215 -0.5787
  129OSM   H12G13920   5.874   0.849   8.164  1.1110  1.3677 -0.2472
  129OSM   C13F13921   5.853   0.694   8.023  0.8093 -0.1306 -0.7126
  129OSM   H13F13922   5.962   0.708   8.009  0.8347  0.4452  0.0014
  129OSM   H13G13923   5.789   0.666   7.936 -0.3472 -0.7104  0.2956
  129OSM   C14F13924   5.827   0.588   8.129  0.9102  0.6772 -0.0573
  129OSM   H14F13925   5.722   0.589   8.164  0.6500 -0.7332 -0.7546
  129OSM   H14G13926   5.890   0.613   8.218 -0.4457 -1.4035  1.5943
  129OSM   C15F13927   5.857   0.449   8.071  0.6804 -0.2811 -0.2341
  129OSM   H15F13928   5.968   0.444   8.065  0.7186  0.7666 -0.4832
  129OSM   H15G13929   5.833   0.445   7.962  0.2883  2.3244 -0.3054
  129OSM   C16F13930   5.805   0.340   8.170  0.0107 -0.1787 -0.3360
  129OSM   H16F13931   5.695   0.346   8.185  0.2003 -0.9142  1.6073
  129OSM   H16G13932   5.846   0.362   8.271  0.9783  1.3455 -1.0330
  129OSM   C17F13933   5.846   0.204   8.125 -0.6356 -0.0153  0.0901
  129OSM   H17F13934   5.956   0.200   8.118 -0.6579  1.5868 -3.5435
  129OSM   H17G13935   5.802   0.185   8.025  2.8521  1.1651 -1.8173
  129OSM   C18F13936   5.807   0.096   8.235  0.5064  0.1029 -0.8663
  129OSM   H18F13937   5.699   0.069   8.231  0.6834 -0.8342  0.3272
  129OSM   H18G13938   5.845   0.127   8.334 -0.0182  1.5235 -1.0865
  129OSM   H18H13939   5.848   0.002   8.193  0.5963 -0.4625  0.4490
  130OSM      N13940   2.450   4.276   6.039 -0.4088 -0.5332 -0.1378
  130OSM    C1513941   2.435   4.159   6.135  0.3749  0.4829 -0.0471
  130OSM   H15A13942   2.363   4.187   6.210  1.0512 -0.4612  0.9771
  130OSM   H15B13943   2.531   4.141   6.181  1.1093  0.8869 -1.3584
  130OSM   H15C13944   2.404   4.069   6.085  1.1737 -0.0252  0.3525
  130OSM    C1413945   2.482   4.403   6.115  0.6293 -0.0980  0.7460
  130OSM   H14A13946   2.488   4.496   6.060 -1.1411  0.4729  1.4576
  130OSM   H14B13947   2.570   4.396   6.177  0.3866  1.9941  1.4043
  130OSM   H14C13948   2.398   4.421   6.180  0.3287  0.8985  0.1084
  130OSM    C1313949   2.562   4.242   5.939  0.0907  0.8037 -0.2482
  130OSM   H13A13950   2.544   4.145   5.894 -0.3025  0.8057 -0.1068
  130OSM   H13B13951   2.655   4.241   5.993 -0.3688  0.2141  0.5451
  130OSM   H13C13952   2.568   4.311   5.856 -0.0563  1.1416  0.0200
  130OSM    C1213953   2.315   4.286   5.973 -0.1414  0.1029  0.4323
  130OSM   H12A13954   2.232   4.268   6.040 -0.2810 -1.8387 -0.2163
  130OSM   H12B13955   2.317   4.207   5.899 -3.4003 -0.0880  0.3960
  130OSM    C1113956   2.288   4.408   5.889 -0.2315 -0.6573 -0.3988
  130OSM   H11A13957   2.208   4.376   5.819 -2.4658  2.0468  0.7516
  130OSM   H11B13958   2.377   4.435   5.828 -0.2979  0.8865  0.1609
  130OSM      P13959   2.106   4.512   6.036  0.2844  0.2270 -0.0180
  130OSM    O1313960   2.057   4.649   6.052 -0.0476  0.3469 -0.8663
  130OSM    O1413961   2.017   4.415   5.964  0.6395  0.0761 -0.0887
  130OSM    O1113962   2.144   4.454   6.180  0.3680 -0.3638  0.2307
  130OSM    O1213963   2.240   4.518   5.969 -0.6171 -0.0903  0.3769
  130OSM    C1S13964   2.200   4.536   6.281  0.1163 -0.9849  0.2773
  130OSM    H1S13965   2.172   4.642   6.264 -4.1755 -2.2261 -2.1116
  130OSM    H1T13966   2.310   4.536   6.266 -0.2535 -0.1468 -3.5616
  130OSM     NF13967   2.182   4.591   6.520  0.0525 -0.1604 -0.1102
  130OSM    HNF13968   2.258   4.568   6.580  0.8744 -0.0736 -1.1082
  130OSM    C2S13969   2.142   4.493   6.419 -0.3288 -0.1032 -0.1597
  130OSM    H2S13970   2.031   4.496   6.414 -0.3478  0.8143  0.5538
  130OSM    C3S13971   2.196   4.350   6.448 -0.1327  0.1247 -0.3154
  130OSM    H3S13972   2.303   4.364   6.472 -0.2424 -0.3453  0.4937
  130OSM     O313973   2.198   4.250   6.348  0.4474 -0.7141 -0.5545
  130OSM    HO313974   2.183   4.300   6.268 -2.6548  0.2549  0.4878
  130OSM    C4S13975   2.130   4.299   6.570 -0.3492 -0.4326 -0.3788
  130OSM    H4S13976   2.189   4.317   6.661  0.6957 -0.0696 -1.1082
  130OSM    C5S13977   2.018   4.229   6.583 -0.0600  0.2598  0.0377
  130OSM    H5S13978   1.968   4.191   6.493  1.0715 -0.5291 -0.2846
  130OSM    C6S13979   1.955   4.187   6.716  0.3114 -0.1641  0.6474
  130OSM    H6S13980   1.977   4.080   6.735 -0.9549 -0.8961 -1.5514
  130OSM    H6T13981   1.844   4.188   6.707  0.2431 -2.4975  0.6621
  130OSM    C7S13982   1.994   4.264   6.838  0.3964  0.3326  0.4137
  130OSM    H7S13983   2.000   4.374   6.826  3.0959 -0.0129 -3.0732
  130OSM    H7T13984   2.103   4.242   6.844  0.3922  0.7460  2.7596
  130OSM    C8S13985   1.912   4.224   6.959  0.7148 -0.0001  1.1521
  130OSM    H8S13986   1.908   4.116   6.985  2.7105 -0.1097  1.1862
  130OSM    H8T13987   1.805   4.244   6.940  1.1605  1.2197 -0.3462
  130OSM    C9S13988   1.968   4.304   7.081 -0.1720  0.3414 -0.0429
  130OSM    H9S13989   1.939   4.410   7.076  0.7611  0.5954 -0.4009
  130OSM    H9T13990   2.079   4.303   7.091 -0.3010  2.3007  2.2414
  130OSM   C10S13991   1.927   4.236   7.211  0.0551  0.0852 -0.0502
  130OSM   H10S13992   1.959   4.130   7.206  1.1007  0.3330  1.0361
  130OSM   H10T13993   1.818   4.250   7.229  0.2984  2.8369 -0.3349
  130OSM   C11S13994   2.007   4.297   7.333 -0.1633  0.4860  0.1021
  130OSM   H11S13995   1.987   4.406   7.349 -1.4812  0.0955  1.3713
  130OSM   H11T13996   2.115   4.277   7.318 -0.4536 -0.1898 -1.1981
  130OSM   C12S13997   1.963   4.218   7.463 -0.9556 -0.6206 -0.1136
  130OSM   H12S13998   1.978   4.114   7.428 -0.3242 -0.8510  0.7964
  130OSM   H12T13999   1.855   4.212   7.485 -1.0010 -0.6877 -0.3605
  130OSM   C13S14000   2.041   4.263   7.590 -0.3402 -0.4210  0.3486
  130OSM   H13S14001   2.021   4.371   7.607 -1.3201 -0.2650 -1.5083
  130OSM   H13T14002   2.151   4.251   7.578  0.0800  1.4951  1.7396
  130OSM   C14S14003   2.006   4.180   7.711 -0.1036  0.8398 -0.2260
  130OSM   H14S14004   2.027   4.076   7.679  2.3675  0.5734  1.9844
  130OSM   H14T14005   1.895   4.187   7.722  0.0446  0.7019  1.6220
  130OSM   C15S14006   2.088   4.213   7.840  0.9463  0.3189  0.6051
  130OSM   H15S14007   2.063   4.315   7.877 -0.2500  1.2786 -2.5386
  130OSM   H15T14008   2.191   4.226   7.799  0.3238  1.4070 -0.6739
  130OSM   C16S14009   2.069   4.122   7.963  0.4751 -0.0492  0.7306
  130OSM   H16S14010   2.140   4.155   8.042  0.4219  1.9530 -0.0048
  130OSM   H16T14011   2.075   4.014   7.936 -1.2774 -0.1899  0.7460
  130OSM   C17S14012   1.928   4.146   8.025  0.4151 -0.0687 -0.2080
  130OSM   H17S14013   1.851   4.091   7.966 -1.3284  1.6485  0.3786
  130OSM   H17T14014   1.892   4.251   8.026 -2.0082 -0.8326 -0.3069
  130OSM   C18S14015   1.924   4.076   8.164  0.9549  0.2351  0.0717
  130OSM   H18S14016   1.820   4.063   8.201  0.6944 -1.7521 -1.1967
  130OSM   H18T14017   1.982   4.120   8.248  0.9249 -3.1708  2.0545
  130OSM   H18U14018   1.956   3.970   8.159  2.3345  0.6171  0.5512
  130OSM    C1F14019   2.142   4.720   6.535 -0.3254  0.5764  0.1327
  130OSM     OF14020   2.092   4.776   6.442  0.6200 -0.3284  0.0780
  130OSM    C2F14021   2.152   4.784   6.672 -0.4967  0.4827  0.8846
  130OSM    H2F14022   2.103   4.883   6.660 -0.4845  0.5821  1.6416
  130OSM    H2G14023   2.261   4.791   6.691  0.1532  0.6216 -2.3528
  130OSM    C3F14024   2.083   4.698   6.785  0.3970 -1.0123  0.1816
  130OSM    H3F14025   2.144   4.606   6.792 -0.3288 -1.6657 -1.5366
  130OSM    H3G14026   1.983   4.665   6.750  0.1630 -1.1126  0.9214
  130OSM    C4F14027   2.072   4.765   6.919 -0.2400  0.3542 -0.1347
  130OSM    H4F14028   2.029   4.690   6.988  0.2262 -1.1832 -1.4586
  130OSM    H4G14029   2.006   4.854   6.904  0.1089  0.3578 -1.8319
  130OSM    C5F14030   2.198   4.802   6.980 -0.5008 -0.8517 -0.4006
  130OSM    H5F14031   2.250   4.880   6.919 -0.6742  0.3515  0.9235
  130OSM    H5G14032   2.265   4.714   6.988  1.5794  0.7336  0.8140
  130OSM    C6F14033   2.190   4.868   7.119  0.5683  0.2542  0.3263
  130OSM    H6F14034   2.189   4.786   7.193  1.6232 -0.4393 -0.3932
  130OSM    H6G14035   2.097   4.927   7.136  0.8853 -0.0820  3.8973
  130OSM    C7F14036   2.305   4.966   7.150 -0.3016  0.4146  0.6241
  130OSM    H7F14037   2.276   5.033   7.234  0.5224  0.9569  0.4920
  130OSM    H7G14038   2.320   5.037   7.065 -1.6742 -2.3141 -2.0949
  130OSM    C8F14039   2.423   4.884   7.197  0.4290  0.3529  0.0623
  130OSM    H8F14040   2.427   4.797   7.128 -2.5735 -0.9722  1.3992
  130OSM    H8G14041   2.390   4.844   7.295 -0.3255  0.4608 -0.1401
  130OSM    C9F14042   2.557   4.951   7.204  0.1993  0.7190  0.3420
  130OSM    H9F14043   2.626   4.914   7.127 -0.3352 -1.1062  0.6780
  130OSM   C10F14044   2.603   5.014   7.311 -0.6998 -0.0980  0.9480
  130OSM   H10F14045   2.704   5.057   7.300 -0.7286  0.0760  1.3492
  130OSM   C11F14046   2.537   5.030   7.445  0.4588  0.6790  0.0474
  130OSM   H11F14047   2.430   4.998   7.439  0.5804  0.3822 -0.6004
  130OSM   H11G14048   2.533   5.137   7.477 -0.2237  0.9062 -0.7414
  130OSM   C12F14049   2.593   4.926   7.543  0.5307  0.0683 -0.3048
  130OSM   H12F14050   2.702   4.914   7.525  0.4152 -0.1855 -0.8837
  130OSM   H12G14051   2.563   4.821   7.519  0.6227  0.5188 -2.6075
  130OSM   C13F14052   2.567   4.970   7.690  0.0894 -0.1303  0.0574
  130OSM   H13F14053   2.457   4.969   7.704 -0.1261 -2.0587 -1.3649
  130OSM   H13G14054   2.609   5.073   7.698 -2.9755  1.1696  0.8384
  130OSM   C14F14055   2.633   4.868   7.789 -0.3945  0.5081 -0.2586
  130OSM   H14F14056   2.741   4.854   7.767 -0.2170 -0.7986  1.2323
  130OSM   H14G14057   2.581   4.771   7.778 -1.2951  0.6232  2.2431
  130OSM   C15F14058   2.622   4.921   7.928  0.1365  0.2077 -0.2723
  130OSM   H15F14059   2.516   4.935   7.958  0.4144  1.3920  0.2363
  130OSM   H15G14060   2.659   5.026   7.922  0.5061  0.0656 -0.5299
  130OSM   C16F14061   2.697   4.848   8.042  0.0591 -0.5378 -0.0495
  130OSM   H16F14062   2.806   4.858   8.022  0.4804  0.6581  2.4332
  130OSM   H16G14063   2.661   4.744   8.027  0.5678 -0.6888 -0.2456
  130OSM   C17F14064   2.669   4.898   8.194  0.5685  0.1016  0.5074
  130OSM   H17F14065   2.670   5.009   8.189 -3.1372  0.1985 -2.1116
  130OSM   H17G14066   2.755   4.863   8.255 -0.2205 -2.5935  0.2318
  130OSM   C18F14067   2.536   4.845   8.246 -0.0056  0.1134 -0.0444
  130OSM   H18F14068   2.466   4.892   8.174  0.4234 -1.0600 -1.2554
  130OSM   H18G14069   2.533   4.887   8.349  2.8796  0.4474  0.0041
  130OSM   H18H14070   2.526   4.735   8.252  0.7401  0.0406  0.0460
  131OSM      N14071   6.525   1.107   6.128  0.2061  0.1450  0.1598
  131OSM    C1514072   6.449   1.232   6.159  0.9370  0.1188 -0.2412
  131OSM   H15A14073   6.502   1.325   6.150 -0.7780  1.8432  4.6550
  131OSM   H15B14074   6.420   1.235   6.263  0.4167  2.8273 -0.3890
  131OSM   H15C14075   6.354   1.224   6.108  1.1738 -2.4599 -0.4394
  131OSM    C1414076   6.568   1.112   5.983  0.4907  0.0487 -0.0645
  131OSM   H14A14077   6.640   1.034   5.962 -1.3882 -2.1088  1.1197
  131OSM   H14B14078   6.600   1.211   5.953  0.8359 -1.1023 -4.1796
  131OSM   H14C14079   6.476   1.099   5.928 -1.1249  0.9659  2.2854
  131OSM    C1314080   6.648   1.113   6.218  0.7401 -0.0199 -0.1354
  131OSM   H13A14081   6.720   1.038   6.189 -0.9450 -1.7258 -0.1071
  131OSM   H13B14082   6.604   1.106   6.317  1.4559  0.5109  0.2308
  131OSM   H13C14083   6.693   1.210   6.234  0.0951  0.5924 -1.8275
  131OSM    C1214084   6.439   0.976   6.154 -0.5774  0.5868  0.9612
  131OSM   H12A14085   6.368   0.973   6.073 -0.3351  3.5371  0.5268
  131OSM   H12B14086   6.376   0.988   6.241 -2.6300  0.3641 -0.4217
  131OSM    C1114087   6.513   0.842   6.161  0.1233 -0.0799  0.2771
  131OSM   H11A14088   6.445   0.775   6.218 -0.1862 -2.3689 -2.5284
  131OSM   H11B14089   6.605   0.862   6.219  0.6322 -1.8554  0.1345
  131OSM      P14090   6.689   0.733   5.986  0.0654  0.1942 -0.0198
  131OSM    O1314091   6.679   0.594   5.939 -0.1347 -0.0066 -0.4398
  131OSM    O1414092   6.737   0.828   5.883 -0.2701 -0.6401  0.2554
  131OSM    O1114093   6.785   0.746   6.118  0.0516  0.4452  0.0962
  131OSM    O1214094   6.542   0.779   6.035 -0.6060  0.5174  0.1762
  131OSM    C1S14095   6.772   0.639   6.214  0.7363 -0.0228  0.5933
  131OSM    H1S14096   6.798   0.540   6.172 -1.0434 -1.1100  1.9303
  131OSM    H1T14097   6.665   0.629   6.240  0.4105 -1.3005 -1.0663
  131OSM     NF14098   6.829   0.566   6.440 -0.1590  1.0231  0.4498
  131OSM    HNF14099   6.748   0.573   6.497  0.6545  0.9368  1.6441
  131OSM    C2S14100   6.850   0.667   6.342 -0.8863  0.4020  0.0377
  131OSM    H2S14101   6.959   0.670   6.320 -0.8961 -1.1312 -0.2760
  131OSM    C3S14102   6.833   0.814   6.403  0.6076 -0.7175  0.2180
  131OSM    H3S14103   6.732   0.844   6.438  1.1725  1.0519  0.4336
  131OSM     O314104   6.873   0.919   6.309  0.4700  0.1034 -0.2183
  131OSM    HO314105   6.894   0.874   6.226  1.0844 -2.4093  1.2154
  131OSM    C4S14106   6.921   0.825   6.529  0.9276 -0.4940 -0.2251
  131OSM    H4S14107   6.863   0.799   6.620 -1.2280 -0.4383 -1.5143
  131OSM    C5S14108   7.048   0.866   6.538  0.0037  0.0326 -0.6398
  131OSM    H5S14109   7.103   0.880   6.443 -2.8276 -0.9870 -2.5428
  131OSM    C6S14110   7.127   0.873   6.665  0.4336 -0.0818 -0.5488
  131OSM    H6S14111   7.141   0.980   6.694  0.0793  0.3626 -1.9217
  131OSM    H6T14112   7.234   0.849   6.647  0.5337  0.9912 -1.5249
  131OSM    C7S14113   7.076   0.790   6.791  0.0418  0.3267  0.3660
  131OSM    H7S14114   7.068   0.683   6.761  1.3495  0.5242 -0.8286
  131OSM    H7T14115   6.969   0.819   6.798  0.1305  0.8660 -0.3649
  131OSM    C8S14116   7.151   0.812   6.919 -0.0631 -0.7611 -0.2888
  131OSM    H8S14117   7.163   0.922   6.933 -1.2213 -0.8376  1.7338
  131OSM    H8T14118   7.247   0.758   6.909 -0.5680 -1.8929  0.7513
  131OSM    C9S14119   7.077   0.756   7.040  0.1858 -0.2858  0.3194
  131OSM    H9S14120   7.087   0.646   7.048  2.6382 -0.4102 -2.6688
  131OSM    H9T14121   6.972   0.793   7.036  0.0911 -0.6550 -0.6634
  131OSM   C10S14122   7.126   0.802   7.178 -0.5740 -0.2510 -0.1873
  131OSM   H10S14123   7.147   0.911   7.172 -0.3541 -0.2198  0.8726
  131OSM   H10T14124   7.225   0.756   7.199  0.4419  1.2040 -1.5221
  131OSM   C11S14125   7.036   0.766   7.296 -0.3532  0.0358 -0.2860
  131OSM   H11S14126   7.016   0.657   7.306  0.5028 -0.1501 -0.5593
  131OSM   H11T14127   6.940   0.813   7.263 -0.9181 -1.4091 -0.7655
  131OSM   C12S14128   7.078   0.818   7.439 -0.4255 -0.3789  0.5780
  131OSM   H12S14129   7.091   0.928   7.432 -0.0356 -0.3448  1.7137
  131OSM   H12T14130   7.175   0.763   7.446 -0.5047 -1.1482 -2.6575
  131OSM   C13S14131   6.964   0.788   7.535 -0.4415 -0.6291  0.3208
  131OSM   H13S14132   6.943   0.679   7.532  1.5672 -1.0449 -0.5110
  131OSM   H13T14133   6.878   0.853   7.508 -1.2774 -1.3711  1.1137
  131OSM   C14S14134   7.013   0.821   7.677 -0.0444  0.1108 -0.1592
  131OSM   H14S14135   7.046   0.927   7.670  3.0391 -0.7036  0.2833
  131OSM   H14T14136   7.110   0.767   7.689  0.2422  0.2984 -1.4993
  131OSM   C15S14137   6.918   0.788   7.793 -0.3551  0.0762 -0.0356
  131OSM   H15S14138   6.896   0.680   7.802 -3.4837  0.1542 -4.0017
  131OSM   H15T14139   6.814   0.822   7.779 -0.1495  0.4667 -0.6911
  131OSM   C16S14140   6.966   0.857   7.925  0.2582 -0.5250 -1.0725
  131OSM   H16S14141   6.958   0.966   7.909  1.0970 -0.6066 -2.1653
  131OSM   H16T14142   7.074   0.840   7.943  0.2851 -0.1394 -0.8720
  131OSM   C17S14143   6.889   0.809   8.047  0.4444 -0.3294 -0.2598
  131OSM   H17S14144   6.914   0.702   8.065  0.8861  0.0914  1.9672
  131OSM   H17T14145   6.780   0.811   8.026  0.2178 -0.1132  0.8771
  131OSM   C18S14146   6.924   0.883   8.177  0.5154  0.1060  0.4848
  131OSM   H18S14147   6.911   0.993   8.162 -0.3549 -0.1373 -0.6560
  131OSM   H18T14148   7.028   0.864   8.209  0.8911  1.1358 -0.0663
  131OSM   H18U14149   6.849   0.847   8.251  1.7826 -0.1392  1.6974
  131OSM    C1F14150   6.874   0.442   6.429  0.5420 -0.3868  0.0541
  131OSM     OF14151   6.944   0.413   6.330  0.1953  0.5484 -0.0792
  131OSM    C2F14152   6.825   0.336   6.523 -0.2790 -0.2839 -0.7677
  131OSM    H2F14153   6.885   0.243   6.509  1.1418  0.7527 -1.8300
  131OSM    H2G14154   6.718   0.318   6.502 -0.3640  0.7993 -1.3238
  131OSM    C3F14155   6.843   0.394   6.667 -0.0537 -0.9462  1.4126
  131OSM    H3F14156   6.777   0.481   6.689  2.7219  1.4143  1.0056
  131OSM    H3G14157   6.946   0.435   6.666 -0.6807  0.7506  1.8844
  131OSM    C4F14158   6.835   0.299   6.787  0.7869  0.0386 -0.2117
  131OSM    H4F14159   6.903   0.212   6.779 -1.7967 -1.9611 -3.0405
  131OSM    H4G14160   6.734   0.253   6.795  0.5708  0.3507 -1.0408
  131OSM    C5F14161   6.867   0.375   6.915 -0.4211  0.3121  0.8243
  131OSM    H5F14162   6.794   0.458   6.923  0.2317  0.9320  0.4334
  131OSM    H5G14163   6.969   0.418   6.904 -1.7280  3.6477  0.8251
  131OSM    C6F14164   6.850   0.277   7.032 -0.2069 -0.0266 -0.0388
  131OSM    H6F14165   6.926   0.200   7.007 -1.3543 -2.2416  2.7233
  131OSM    H6G14166   6.747   0.234   7.028 -0.7733  0.7435  3.2574
  131OSM    C7F14167   6.878   0.342   7.172  1.1253  0.2413  0.4737
  131OSM    H7F14168   6.799   0.419   7.188 -0.5841 -1.0857 -1.0943
  131OSM    H7G14169   6.972   0.401   7.168 -0.2085  2.4843  0.6937
  131OSM    C8F14170   6.856   0.257   7.296  0.4403  0.1368  0.2061
  131OSM    H8F14171   6.747   0.235   7.305  0.3822  0.3418  0.0009
  131OSM    H8G14172   6.885   0.323   7.380  1.5003  0.7097 -0.5944
  131OSM    C9F14173   6.951   0.137   7.305  0.1561 -0.7488  0.0419
  131OSM    H9F14174   6.968   0.082   7.211  1.4923 -0.9348  0.3718
  131OSM   C10F14175   7.027   0.107   7.413  0.0340 -0.3761  0.6144
  131OSM   H10F14176   7.091   0.017   7.413 -0.7067 -0.9279  1.7004
  131OSM   C11F14177   7.030   0.184   7.545  0.2771 -0.0599  0.2622
  131OSM   H11F14178   6.923   0.190   7.574  0.1570 -1.0436  0.0587
  131OSM   H11G14179   7.085   0.279   7.530  0.7938 -0.5406 -1.0585
  131OSM   C12F14180   7.100   0.089   7.643 -0.5503 -0.0220  0.3488
  131OSM   H12F14181   7.206   0.077   7.610 -0.6262  0.3309 -0.0426
  131OSM   H12G14182   7.051  -0.010   7.648 -1.2463  0.3188  0.2810
  131OSM   C13F14183   7.089   0.151   7.786  0.6241 -0.9716  0.0245
  131OSM   H13F14184   7.135   0.073   7.850  1.4145  1.2077  2.2998
  131OSM   H13G14185   6.982   0.156   7.814  0.4033 -0.4569 -0.8621
  131OSM   C14F14186   7.157   0.284   7.813 -1.1011 -0.0728 -0.3892
  131OSM   H14F14187   7.102   0.364   7.759 -0.7133  1.4164  1.3211
  131OSM   H14G14188   7.261   0.281   7.773 -1.1201  1.5611 -0.6262
  131OSM   C15F14189   7.178   0.311   7.959  0.3038 -0.0163  0.3579
  131OSM   H15F14190   7.251   0.240   8.003  0.0453 -0.4928  0.0281
  131OSM   H15G14191   7.086   0.295   8.019 -0.1228  1.2712  0.0851
  131OSM   C16F14192   7.250   0.451   7.990  0.5800 -0.2420  0.3711
  131OSM   H16F14193   7.187   0.526   7.937 -1.1485 -2.7485 -1.3595
  131OSM   H16G14194   7.347   0.453   7.936 -0.1662 -0.9088 -1.0453
  131OSM   C17F14195   7.272   0.470   8.144 -0.4805 -0.2567 -0.4301
  131OSM   H17F14196   7.288   0.579   8.157 -2.3364 -0.0925  0.9211
  131OSM   H17G14197   7.362   0.408   8.163 -0.8274 -0.5725  0.1893
  131OSM   C18F14198   7.162   0.434   8.241 -0.1804  0.1390 -0.3860
  131OSM   H18F14199   7.076   0.503   8.251 -1.2409 -1.1355 -0.4541
  131OSM   H18G14200   7.207   0.417   8.342  0.2685  0.6459 -0.4950
  131OSM   H18H14201   7.109   0.340   8.217  0.7792 -0.1332 -1.5129
  132OSM      N14202   2.072   1.819   6.120  0.2302 -0.6722 -0.1528
  132OSM    C1514203   2.014   1.686   6.080 -0.3917 -0.5368 -0.0785
  132OSM   H15A14204   2.066   1.638   5.998  0.2302  0.7043 -0.4318
  132OSM   H15B14205   1.913   1.703   6.046  0.8451  2.0757 -2.9282
  132OSM   H15C14206   2.014   1.617   6.163 -0.0123 -1.6126 -0.9464
  132OSM    C1414207   2.221   1.798   6.133 -0.8220  0.3123 -0.0025
  132OSM   H14A14208   2.254   1.753   6.041  0.1702 -0.9337  0.9203
  132OSM   H14B14209   2.241   1.729   6.214  0.0985 -0.1346 -0.5904
  132OSM   H14C14210   2.283   1.882   6.158  1.4328 -1.0772 -0.6063
  132OSM    C1314211   2.040   1.912   5.996 -0.1425 -0.0630 -0.0658
  132OSM   H13A14212   2.094   2.005   6.008 -0.8418  0.3211  0.1849
  132OSM   H13B14213   1.935   1.937   5.992  0.1606  1.2887 -0.0194
  132OSM   H13C14214   2.063   1.868   5.900  0.4342  2.2534 -1.0478
  132OSM    C1214215   2.012   1.875   6.240  0.1862  0.1649 -0.2964
  132OSM   H12A14216   2.038   1.978   6.261 -2.4990  0.8878 -0.1252
  132OSM   H12B14217   2.038   1.800   6.313 -1.9436 -2.1296 -1.7290
  132OSM    C1114218   1.853   1.870   6.238  0.1033  0.8256  0.3718
  132OSM   H11A14219   1.817   1.824   6.333  2.4377 -0.2559  0.8096
  132OSM   H11B14220   1.802   1.811   6.159  1.3771 -0.2949  0.3541
  132OSM      P14221   1.706   2.073   6.305  0.3384  0.0298  0.2827
  132OSM    O1314222   1.696   2.221   6.275 -0.4296  0.2753 -0.3311
  132OSM    O1414223   1.579   1.994   6.312  0.3138  0.3481 -0.5620
  132OSM    O1114224   1.764   2.046   6.447 -0.1501  0.3774  0.0116
  132OSM    O1214225   1.816   1.999   6.218 -0.3580 -0.0684  0.0362
  132OSM    C1S14226   1.690   2.096   6.562 -0.0302  0.5867  1.0801
  132OSM    H1S14227   1.592   2.045   6.571  0.7934 -0.9272  1.7577
  132OSM    H1T14228   1.679   2.207   6.561  1.0552  0.7022  1.1487
  132OSM     NF14229   1.659   2.090   6.809 -0.4981 -0.3239  0.4949
  132OSM    HNF14230   1.676   2.166   6.871  1.4683 -2.4498  2.7888
  132OSM    C2S14231   1.762   2.079   6.701  0.6367  0.3935 -0.0909
  132OSM    H2S14232   1.796   1.974   6.702  0.4508  0.2440  3.3671
  132OSM    C3S14233   1.882   2.178   6.710  0.3834  0.4716  0.3909
  132OSM    H3S14234   1.840   2.280   6.721 -3.1651 -0.9380  1.4045
  132OSM     O314235   1.960   2.206   6.591 -0.1221  0.3906  0.1261
  132OSM    HO314236   1.903   2.171   6.522 -0.6564  2.2812 -0.4841
  132OSM    C4S14237   1.963   2.130   6.825 -0.1357 -0.3520  0.4541
  132OSM    H4S14238   1.921   2.179   6.914 -1.9891  0.1308 -0.6381
  132OSM    C5S14239   2.077   2.058   6.829 -0.0846  0.8426 -0.7157
  132OSM    H5S14240   2.122   2.022   6.735 -1.8831 -1.2993 -0.8283
  132OSM    C6S14241   2.156   2.038   6.958  0.0059  0.2545 -0.5944
  132OSM    H6S14242   2.263   2.059   6.936 -0.2855  1.2277 -1.1487
  132OSM    H6T14243   2.137   1.931   6.981  1.0166  0.0188 -0.8244
  132OSM    C7S14244   2.123   2.118   7.082 -0.4486 -0.6257 -0.1971
  132OSM    H7S14245   2.031   2.095   7.141  0.1071  1.8511  1.7763
  132OSM    H7T14246   2.106   2.222   7.048 -1.4745 -1.2168 -1.6493
  132OSM    C8S14247   2.237   2.110   7.180  1.2845 -0.0870 -0.0636
  132OSM    H8S14248   2.332   2.145   7.136  1.9782 -2.4947 -0.6347
  132OSM    H8T14249   2.258   2.001   7.193  1.6486 -0.4664 -3.1540
  132OSM    C9S14250   2.206   2.174   7.317 -0.3206 -0.1015 -0.9445
  132OSM    H9S14251   2.103   2.151   7.352  0.2025  0.6576  1.2910
  132OSM    H9T14252   2.220   2.284   7.317  0.2567 -0.1693 -1.5263
  132OSM   C10S14253   2.310   2.125   7.426 -0.0094 -0.5207 -0.2184
  132OSM   H10S14254   2.410   2.157   7.387  0.0470 -1.1106 -0.5719
  132OSM   H10T14255   2.309   2.014   7.424  0.4918 -0.5360 -2.2412
  132OSM   C11S14256   2.300   2.176   7.568 -0.6348  0.2175 -0.8474
  132OSM   H11S14257   2.309   2.286   7.578 -1.1165  0.1628  0.3765
  132OSM   H11T14258   2.387   2.144   7.631 -2.2097  1.7514  2.3401
  132OSM   C12S14259   2.171   2.126   7.633  0.4510  0.9544 -0.2199
  132OSM   H12S14260   2.143   2.032   7.582  0.3189  0.2375  1.1156
  132OSM   H12T14261   2.090   2.200   7.611  0.6680  1.3887  0.3899
  132OSM   C13S14262   2.191   2.094   7.786  0.0377  0.5428 -0.8193
  132OSM   H13S14263   2.292   2.114   7.826 -0.3427 -0.6608  0.8580
  132OSM   H13T14264   2.196   1.983   7.787  1.2538  0.5725  1.3817
  132OSM   C14S14265   2.084   2.145   7.884 -0.3993  0.4445  0.2214
  132OSM   H14S14266   1.986   2.123   7.836  0.1530  0.8553 -1.1435
  132OSM   H14T14267   2.099   2.255   7.890  2.4191  0.0937  0.6571
  132OSM   C15S14268   2.083   2.077   8.027  0.0958  0.9625  0.2413
  132OSM   H15S14269   2.187   2.083   8.066 -0.5057  0.5134  2.0390
  132OSM   H15T14270   2.065   1.969   8.009 -0.6189  0.7379  2.0518
  132OSM   C16S14271   1.992   2.141   8.129 -0.1233  0.6002  0.0046
  132OSM   H16S14272   1.894   2.153   8.079 -0.5498  1.2523  0.9790
  132OSM   H16T14273   2.023   2.243   8.159 -0.0320  0.7303 -0.5174
  132OSM   C17S14274   1.982   2.052   8.258  0.8328 -0.9102 -0.3715
  132OSM   H17S14275   2.080   2.045   8.309  0.3200 -0.7190  0.6761
  132OSM   H17T14276   1.943   1.950   8.238 -0.5877 -0.1982 -1.4312
  132OSM   C18S14277   1.871   2.102   8.356 -0.2811  0.4601  0.5587
  132OSM   H18S14278   1.799   2.019   8.372  1.2294 -1.2128 -0.8658
  132OSM   H18T14279   1.824   2.186   8.301  0.4874 -0.7782 -2.1129
  132OSM   H18U14280   1.903   2.147   8.453  1.0333 -1.4217  1.0547
  132OSM    C1F14281   1.562   2.004   6.834 -0.4975 -0.0732 -0.3241
  132OSM     OF14282   1.551   1.908   6.762 -0.1043  0.5284  0.0430
  132OSM    C2F14283   1.473   2.039   6.938  0.5277  0.4365  0.3421
  132OSM    H2F14284   1.377   2.086   6.906  1.1633  3.2753  2.2718
  132OSM    H2G14285   1.526   2.106   7.009 -0.8075  0.1920  1.6202
  132OSM    C3F14286   1.417   1.912   7.010  0.4446  0.2802 -0.0571
  132OSM    H3F14287   1.502   1.851   7.049  0.4164 -0.6839 -1.4432
  132OSM    H3G14288   1.361   1.851   6.935  1.4912 -0.6905 -0.0807
  132OSM    C4F14289   1.328   1.940   7.136  0.1383 -0.3353 -0.8183
  132OSM    H4F14290   1.277   1.844   7.160 -2.6828  0.5693 -2.6552
  132OSM    H4G14291   1.243   2.000   7.099 -0.8364 -0.3587  1.2444
  132OSM    C5F14292   1.406   2.008   7.249 -0.0269  0.5779  0.5970
  132OSM    H5F14293   1.428   2.113   7.218 -0.9880  0.6531  0.1111
  132OSM    H5G14294   1.504   1.962   7.272 -0.2335 -0.2119 -0.0555
  132OSM    C6F14295   1.323   2.018   7.370  0.7363 -0.2918 -0.7334
  132OSM    H6F14296   1.221   2.049   7.338  1.0068  0.6983 -0.6479
  132OSM    H6G14297   1.366   2.097   7.436  0.4383 -1.0639  0.4206
  132OSM    C7F14298   1.313   1.889   7.453 -0.1316 -0.5305  0.4908
  132OSM    H7F14299   1.414   1.845   7.465  0.9714  1.4078 -1.1126
  132OSM    H7G14300   1.249   1.818   7.397  0.6523 -3.2583  2.8365
  132OSM    C8F14301   1.258   1.905   7.592  0.4349  0.1770 -0.3082
  132OSM    H8F14302   1.338   1.944   7.658 -1.0816  0.2866  1.5346
  132OSM    H8G14303   1.244   1.804   7.638  1.3261  0.0989 -0.1977
  132OSM    C9F14304   1.126   1.978   7.600  0.6187  0.0225 -0.3394
  132OSM    H9F14305   1.043   1.930   7.545 -0.8178  0.8283  1.0661
  132OSM   C10F14306   1.084   2.083   7.675 -0.0057  0.2693  0.4684
  132OSM   H10F14307   0.983   2.125   7.670  0.1018  0.3810 -1.2959
  132OSM   C11F14308   1.173   2.151   7.777  0.6068 -0.0513  0.1419
  132OSM   H11F14309   1.135   2.252   7.803  1.1323  0.1385  0.1728
  132OSM   H11G14310   1.280   2.159   7.749  1.0649  0.2174  1.8593
  132OSM   C12F14311   1.169   2.083   7.912  0.2769 -0.0410  0.4985
  132OSM   H12F14312   1.223   2.165   7.963 -0.4617  0.8014 -0.0396
  132OSM   H12G14313   1.208   1.979   7.905  0.2072 -0.0220 -0.3205
  132OSM   C13F14314   1.027   2.086   7.986 -0.1170 -0.2258  0.7310
  132OSM   H13F14315   0.969   2.008   7.933 -0.5546  0.6056 -0.0530
  132OSM   H13G14316   0.982   2.188   7.978  0.1274 -0.2614 -3.3976
  132OSM   C14F14317   1.043   2.045   8.134 -0.5939 -0.2681 -1.1099
  132OSM   H14F14318   1.120   1.967   8.150 -0.1843  0.3821  0.2944
  132OSM   H14G14319   0.948   2.010   8.177  0.9859 -1.5017  1.6460
  132OSM   C15F14320   1.073   2.171   8.221 -0.3139 -0.7089 -1.0092
  132OSM   H15F14321   0.975   2.223   8.226 -1.1469 -2.2863  1.5302
  132OSM   H15G14322   1.145   2.236   8.167  2.1300 -0.8136  1.8796
  132OSM   C16F14323   1.136   2.141   8.358  0.3729  0.0604  0.2620
  132OSM   H16F14324   1.120   2.230   8.423 -0.3760  0.7540 -0.8468
  132OSM   H16G14325   1.244   2.124   8.341  0.1193 -0.4683 -0.9074
  132OSM   C17F14326   1.086   2.026   8.447  0.0462  0.3319 -0.2806
  132OSM   H17F14327   1.103   1.941   8.378  0.6283 -0.2389  0.5503
  132OSM   H17G14328   0.976   2.042   8.454  0.1492  0.4540  1.9365
  132OSM   C18F14329   1.153   2.020   8.584  0.4527 -0.0665 -0.1702
  132OSM   H18F14330   1.260   1.996   8.567  0.1028 -2.4335  0.6123
  132OSM   H18G14331   1.113   1.937   8.645  1.1744 -0.8253 -0.7082
  132OSM   H18H14332   1.137   2.120   8.630  1.2585  0.6212 -1.3249
  133OSM      N14333   1.728   1.112   6.551 -0.5374 -0.4026  0.1304
  133OSM    C1514334   1.754   1.141   6.698 -0.0535  0.2138  0.2020
  133OSM   H15A14335   1.790   1.055   6.754  1.6890  0.6292 -0.1989
  133OSM   H15B14336   1.665   1.186   6.739 -0.2664  3.6147 -3.4304
  133OSM   H15C14337   1.833   1.213   6.713  0.8590  0.2336 -3.6703
  133OSM    C1414338   1.843   1.035   6.490  0.4096  0.1252 -0.1120
  133OSM   H14A14339   1.809   1.007   6.391  0.9443  0.1925 -0.3199
  133OSM   H14B14340   1.880   0.949   6.544  0.4913  1.1554  1.5298
  133OSM   H14C14341   1.928   1.099   6.472  0.5583 -0.0484 -0.0200
  133OSM    C1314342   1.613   1.018   6.555 -0.1028 -1.3081 -0.1279
  133OSM   H13A14343   1.591   0.987   6.454 -3.6008  0.2382  0.0128
  133OSM   H13B14344   1.536   1.053   6.622  1.1521 -0.5644  0.9857
  133OSM   H13C14345   1.635   0.926   6.606 -1.7472 -0.6022  2.0052
  133OSM    C1214346   1.709   1.239   6.470 -0.2156  0.6103  0.2931
  133OSM   H12A14347   1.787   1.309   6.495  0.1721 -0.1640  1.3216
  133OSM   H12B14348   1.618   1.282   6.509  0.0616 -0.8053  2.7392
  133OSM    C1114349   1.698   1.226   6.322  0.0457  0.7159  0.8460
  133OSM   H11A14350   1.624   1.144   6.306  0.1654  0.4028  1.8283
  133OSM   H11B14351   1.793   1.197   6.273 -1.2894 -0.1620 -1.3610
  133OSM      P14352   1.739   1.465   6.253 -0.2356  0.3776 -0.3762
  133OSM    O1314353   1.869   1.427   6.195  0.0308  0.8047 -0.0762
  133OSM    O1414354   1.658   1.549   6.166 -0.1384  0.0239  0.4198
  133OSM    O1114355   1.759   1.517   6.394 -0.4001 -0.7113 -0.0396
  133OSM    O1214356   1.645   1.337   6.280  0.8762 -0.2972  0.2995
  133OSM    C1S14357   1.650   1.584   6.461 -0.9129  0.2544 -0.1174
  133OSM    H1S14358   1.565   1.513   6.451 -0.8971 -0.0785  1.7501
  133OSM    H1T14359   1.632   1.685   6.420  1.5856  0.7529 -0.1413
  133OSM     NF14360   1.558   1.627   6.686 -0.7750  0.0535  0.8610
  133OSM    HNF14361   1.553   1.720   6.721  1.6485  1.7228 -2.7119
  133OSM    C2S14362   1.679   1.600   6.613  0.7483  0.4152  0.3014
  133OSM    H2S14363   1.709   1.502   6.655 -0.9850  0.0667  0.8106
  133OSM    C3S14364   1.793   1.700   6.632 -0.1499 -0.6679 -0.1156
  133OSM    H3S14365   1.755   1.798   6.598  1.6421 -0.2430 -0.9979
  133OSM     O314366   1.904   1.671   6.553 -0.5642 -0.0074  1.0078
  133OSM    HO314367   1.861   1.617   6.487 -0.3600  0.9574  0.0622
  133OSM    C4S14368   1.827   1.715   6.774  0.2518  0.7472  0.3617
  133OSM    H4S14369   1.757   1.784   6.824 -1.7942 -0.7995 -0.2397
  133OSM    C5S14370   1.920   1.651   6.853  0.3728 -0.1890  0.3539
  133OSM    H5S14371   1.987   1.581   6.801 -1.4992 -0.4958 -1.8066
  133OSM    C6S14372   1.942   1.677   6.997  0.0496  0.3674 -0.8552
  133OSM    H6S14373   2.047   1.711   7.011  0.7584 -2.3897  1.2515
  133OSM    H6T14374   1.948   1.580   7.049  1.1340  0.1793 -1.2996
  133OSM    C7S14375   1.837   1.779   7.059  0.1358 -0.2826 -0.5461
  133OSM    H7S14376   1.739   1.729   7.048  1.1684 -3.0039  1.3976
  133OSM    H7T14377   1.847   1.881   7.016  0.6612  0.0701  0.3799
  133OSM    C8S14378   1.867   1.789   7.208 -0.7875 -0.0662  0.2776
  133OSM    H8S14379   1.965   1.842   7.211 -1.5774  1.4534  0.3501
  133OSM    H8T14380   1.897   1.695   7.258 -0.2442 -1.1635 -1.9760
  133OSM    C9S14381   1.765   1.869   7.284 -0.3866  0.5488  0.5164
  133OSM    H9S14382   1.664   1.822   7.278 -0.4150  0.6191  0.4326
  133OSM    H9T14383   1.754   1.971   7.242 -0.5902  0.4132  0.2341
  133OSM   C10S14384   1.811   1.898   7.424  0.0225 -0.0111 -0.4306
  133OSM   H10S14385   1.902   1.961   7.422  0.5735 -0.7134  0.8165
  133OSM   H10T14386   1.828   1.794   7.461 -0.6460 -0.9540 -2.6256
  133OSM   C11S14387   1.709   1.965   7.517 -0.0490 -0.3954 -0.3734
  133OSM   H11S14388   1.612   1.921   7.486 -0.2442 -0.5150  0.3798
  133OSM   H11T14389   1.707   2.073   7.492 -0.1325 -0.3175 -0.0478
  133OSM   C12S14390   1.739   1.933   7.664 -0.2131  0.0945  0.5738
  133OSM   H12S14391   1.845   1.959   7.684  0.3176  0.0715 -1.8816
  133OSM   H12T14392   1.748   1.825   7.685  3.0848 -0.4528 -2.5848
  133OSM   C13S14393   1.635   2.003   7.766 -0.4385  0.6042 -0.3293
  133OSM   H13S14394   1.530   1.975   7.745 -0.8181 -0.3529  2.3613
  133OSM   H13T14395   1.649   2.112   7.753 -2.2962  1.0271  0.8493
  133OSM   C14S14396   1.653   1.974   7.919  0.0017 -0.6164 -0.1796
  133OSM   H14S14397   1.755   2.006   7.949  0.3898 -0.0636 -1.9400
  133OSM   H14T14398   1.645   1.864   7.926  0.7900 -0.5726  1.9594
  133OSM   C15S14399   1.531   2.037   7.998 -0.4615  0.1535  0.0549
  133OSM   H15S14400   1.437   1.992   7.958  2.6455 -5.1437 -2.3756
  133OSM   H15T14401   1.519   2.144   7.968 -2.7646 -0.0942 -0.0782
  133OSM   C16S14402   1.551   2.026   8.148 -0.3463 -0.5405  0.9605
  133OSM   H16S14403   1.508   2.116   8.196 -0.9381 -1.0460  1.3907
  133OSM   H16T14404   1.658   2.044   8.171 -0.8961  2.3674  1.6761
  133OSM   C17S14405   1.486   1.914   8.214 -0.0099  0.1682  0.3981
  133OSM   H17S14406   1.521   1.817   8.173  1.5680  1.2819 -1.0141
  133OSM   H17T14407   1.376   1.915   8.198  0.1868  1.1396 -1.0270
  133OSM   C18S14408   1.499   1.915   8.373 -0.0009  0.7299  0.2724
  133OSM   H18S14409   1.430   1.846   8.427 -1.1027  0.3617 -1.4978
  133OSM   H18T14410   1.488   2.014   8.422  0.8773  0.6477  0.6451
  133OSM   H18U14411   1.600   1.873   8.391 -0.7753 -1.4230 -0.0964
  133OSM    C1F14412   1.454   1.539   6.696 -0.1531 -0.0291 -1.0761
  133OSM     OF14413   1.466   1.423   6.658  0.3165  0.0910 -0.2039
  133OSM    C2F14414   1.322   1.597   6.748 -0.6948  0.6965  0.1586
  133OSM    H2F14415   1.245   1.598   6.668 -0.9640  0.2995  0.4150
  133OSM    H2G14416   1.345   1.698   6.788  1.1871 -0.1498  1.3663
  133OSM    C3F14417   1.261   1.514   6.867 -1.0999 -1.1134  1.0553
  133OSM    H3F14418   1.338   1.484   6.941  1.1345 -0.5107 -0.9163
  133OSM    H3G14419   1.223   1.412   6.843  1.4702 -1.7265 -0.6923
  133OSM    C4F14420   1.163   1.592   6.953  0.0466 -0.8769 -0.2454
  133OSM    H4F14421   1.062   1.580   6.909 -0.1896  0.1901 -0.0006
  133OSM    H4G14422   1.188   1.700   6.944 -1.5492 -0.6620 -3.6378
  133OSM    C5F14423   1.154   1.543   7.100 -0.5649  0.1724  0.2416
  133OSM    H5F14424   1.243   1.568   7.161 -0.3001 -2.0905  0.8680
  133OSM    H5G14425   1.158   1.432   7.108  0.8493 -0.1192 -2.9550
  133OSM    C6F14426   1.039   1.610   7.171 -0.0240  0.4765 -0.5529
  133OSM    H6F14427   0.943   1.571   7.132  0.0783 -1.5888  1.1170
  133OSM    H6G14428   1.036   1.721   7.160 -0.2020  0.4050 -1.2304
  133OSM    C7F14429   1.048   1.584   7.327 -0.0253  0.3220  0.2110
  133OSM    H7F14430   1.154   1.597   7.358  0.1794 -1.5546  0.3887
  133OSM    H7G14431   1.030   1.475   7.335  3.3348 -0.2133  2.9441
  133OSM    C8F14432   0.944   1.669   7.399 -0.2196 -0.4599  0.2949
  133OSM    H8F14433   0.846   1.657   7.348  1.5334 -1.8636 -3.0389
  133OSM    H8G14434   0.984   1.773   7.395 -0.2338 -0.4136  1.1816
  133OSM    C9F14435   0.945   1.619   7.535  0.1070 -0.9958 -0.2604
  133OSM    H9F14436   1.044   1.632   7.580 -0.9860 -1.2540  2.4347
  133OSM   C10F14437   0.843   1.566   7.608  0.9387  0.2802 -0.2581
  133OSM   H10F14438   0.855   1.551   7.717  1.2404  0.9432 -0.1954
  133OSM   C11F14439   0.703   1.541   7.557  0.1403  0.0390  0.2537
  133OSM   H11F14440   0.685   1.594   7.461 -1.7762 -0.9198  0.0367
  133OSM   H11G14441   0.622   1.576   7.624 -1.0458 -0.3586 -0.9340
  133OSM   C12F14442   0.679   1.391   7.523 -0.4961  0.0913 -0.1246
  133OSM   H12F14443   0.759   1.359   7.453  0.1075  1.2373  0.0245
  133OSM   H12G14444   0.584   1.392   7.467 -0.5787 -0.5372 -0.0022
  133OSM   C13F14445   0.672   1.301   7.654  0.0028 -0.2788  0.8456
  133OSM   H13F14446   0.605   1.353   7.726 -1.3481 -0.7170 -0.0513
  133OSM   H13G14447   0.771   1.296   7.702  1.5599  2.3197 -1.7744
  133OSM   C14F14448   0.625   1.156   7.613  0.3014 -0.0862 -0.8457
  133OSM   H14F14449   0.699   1.122   7.538 -0.3883  0.9937 -2.0636
  133OSM   H14G14450   0.527   1.153   7.561  0.1135 -3.3615 -0.4691
  133OSM   C15F14451   0.628   1.052   7.728 -0.3884  0.1328  0.5856
  133OSM   H15F14452   0.734   1.031   7.752  0.4579 -0.1705 -2.8676
  133OSM   H15G14453   0.590   0.959   7.682  1.8674 -0.7714  0.4139
  133OSM   C16F14454   0.546   1.091   7.854  0.4718 -0.0088 -0.2342
  133OSM   H16F14455   0.446   1.042   7.856  0.7072 -0.5508  3.0985
  133OSM   H16G14456   0.533   1.201   7.856 -1.0713 -0.1817  0.4490
  133OSM   C17F14457   0.614   1.052   7.982  0.2307  0.1760 -0.0046
  133OSM   H17F14458   0.705   1.116   7.990 -0.6807  1.6977 -1.3408
  133OSM   H17G14459   0.646   0.949   7.955  1.1846  1.2353 -3.3906
  133OSM   C18F14460   0.534   1.060   8.112 -0.2623  0.2306  0.2413
  133OSM   H18F14461   0.440   1.002   8.108  0.0328 -0.4401  2.2042
  133OSM   H18G14462   0.514   1.165   8.142 -0.2989  0.2776  0.0518
  133OSM   H18H14463   0.595   1.022   8.197 -0.8645  0.7241  0.9126
  134OSM      N14464   3.089   3.914   6.307  0.0456  0.5434 -0.1438
  134OSM    C1514465   3.148   3.787   6.362 -0.3179  0.6617  0.6076
  134OSM   H15A14466   3.241   3.768   6.311 -1.7011  0.9739 -2.2243
  134OSM   H15B14467   3.071   3.714   6.342 -0.5377  0.9611  0.3540
  134OSM   H15C14468   3.159   3.789   6.469  1.8173 -2.2239  0.5779
  134OSM    C1414469   3.189   4.017   6.295 -0.2971 -0.2396 -0.0968
  134OSM   H14A14470   3.230   4.035   6.394 -1.3608 -1.2002  0.5314
  134OSM   H14B14471   3.155   4.116   6.266 -2.2490 -0.5490  1.0080
  134OSM   H14C14472   3.276   3.993   6.236 -1.3266 -1.6969 -1.0674
  134OSM    C1314473   3.039   3.884   6.166 -0.5237  0.0751  0.1276
  134OSM   H13A14474   2.966   3.805   6.174 -0.5754  0.2721  2.0701
  134OSM   H13B14475   3.123   3.856   6.105  0.0359  0.4487  0.7105
  134OSM   H13C14476   3.001   3.967   6.108 -1.2777 -1.5224 -1.7563
  134OSM    C1214477   2.964   3.954   6.388 -0.5944 -1.0036  0.4445
  134OSM   H12A14478   2.883   3.883   6.380 -1.0536 -0.5783  1.2335
  134OSM   H12B14479   2.927   4.049   6.354  1.4086 -0.7966 -1.3923
  134OSM    C1114480   2.978   3.972   6.541  0.0075 -0.3405 -0.2489
  134OSM   H11A14481   3.003   3.875   6.588  0.3137 -0.2785 -0.2803
  134OSM   H11B14482   2.875   3.990   6.579 -0.0068 -3.4618  1.4691
  134OSM      P14483   3.006   4.229   6.586  0.1580 -0.2208  0.3797
  134OSM    O1314484   3.101   4.315   6.656 -0.0022  0.7658 -0.2690
  134OSM    O1414485   2.954   4.271   6.452 -0.1771  0.1893  0.4558
  134OSM    O1114486   2.881   4.206   6.674  0.4548  0.7646 -0.0740
  134OSM    O1214487   3.066   4.080   6.583  0.4102  0.3866  0.2598
  134OSM    C1S14488   2.878   4.141   6.799 -0.1232  0.1755  0.2364
  134OSM    H1S14489   2.932   4.204   6.873  2.0933 -1.1272 -0.1740
  134OSM    H1T14490   2.933   4.045   6.797  0.1725  0.3248  0.9526
  134OSM     NF14491   2.732   4.072   6.984 -0.3488 -0.8381  0.2548
  134OSM    HNF14492   2.776   3.982   6.986 -2.7741 -2.2254 -2.3077
  134OSM    C2S14493   2.733   4.116   6.845 -0.4913 -0.2834  0.3799
  134OSM    H2S14494   2.683   4.215   6.836  1.6068  0.7745 -0.3743
  134OSM    C3S14495   2.661   4.017   6.755  0.5403 -1.0483 -0.6322
  134OSM    H3S14496   2.715   3.921   6.744  1.6428 -0.3706 -1.2423
  134OSM     O314497   2.641   4.063   6.624 -0.0337  0.5737 -0.7408
  134OSM    HO314498   2.686   4.148   6.619 -1.7270  1.5276 -0.3301
  134OSM    C4S14499   2.531   3.977   6.820 -0.3785  0.6798  0.4734
  134OSM    H4S14500   2.548   3.896   6.893 -1.2124  0.0181 -0.0526
  134OSM    C5S14501   2.402   4.016   6.793 -0.2340 -0.8393 -0.5696
  134OSM    H5S14502   2.397   4.094   6.715  1.0098  2.2654  2.2403
  134OSM    C6S14503   2.276   3.961   6.857  0.5359 -0.0236 -0.3502
  134OSM    H6S14504   2.211   3.923   6.775 -0.8918 -0.1727  0.8133
  134OSM    H6T14505   2.232   4.058   6.891  2.8267  0.6996  0.7848
  134OSM    C7S14506   2.293   3.862   6.979 -0.2747 -0.1074  0.6007
  134OSM    H7S14507   2.354   3.776   6.943 -0.9264  0.2081 -1.3554
  134OSM    H7T14508   2.191   3.818   6.993  0.4876 -1.6030  1.8290
  134OSM    C8S14509   2.355   3.925   7.102 -0.2764 -0.1148  0.1020
  134OSM    H8S14510   2.311   4.025   7.127 -1.6648  0.2311 -3.1383
  134OSM    H8T14511   2.464   3.939   7.086  0.4744 -3.1682  1.8205
  134OSM    C9S14512   2.327   3.839   7.225 -0.1635  0.4652 -0.2873
  134OSM    H9S14513   2.399   3.755   7.235  0.8945  1.3393 -0.3939
  134OSM    H9T14514   2.222   3.803   7.224  0.8659 -2.7982 -1.1258
  134OSM   C10S14515   2.356   3.918   7.358 -0.2171 -0.1039 -0.1690
  134OSM   H10S14516   2.292   4.009   7.359 -0.0721 -0.0001 -0.1796
  134OSM   H10T14517   2.461   3.954   7.352 -0.4445  0.4979 -0.6105
  134OSM   C11S14518   2.319   3.850   7.489 -0.4862  0.0924  0.7409
  134OSM   H11S14519   2.382   3.759   7.488 -1.7190 -0.8289 -1.8304
  134OSM   H11T14520   2.214   3.815   7.490 -0.2806 -0.5269  0.7960
  134OSM   C12S14521   2.343   3.948   7.610 -0.5224 -0.2504  0.0431
  134OSM   H12S14522   2.257   4.019   7.608  0.5632  1.1142  0.4421
  134OSM   H12T14523   2.437   4.006   7.598 -2.8933  3.9282 -0.5740
  134OSM   C13S14524   2.340   3.883   7.747 -0.2429 -0.3422 -0.4467
  134OSM   H13S14525   2.428   3.816   7.754  0.0007  0.0118 -0.0652
  134OSM   H13T14526   2.240   3.841   7.768  0.2979 -1.9142 -0.8809
  134OSM   C14S14527   2.376   3.968   7.870 -0.1949  0.0435 -0.1563
  134OSM   H14S14528   2.298   4.046   7.881  1.5463  2.1184 -1.5158
  134OSM   H14T14529   2.472   4.020   7.850 -0.3600  1.0085  1.4137
  134OSM   C15S14530   2.379   3.882   7.994  0.1290  0.6796 -0.9796
  134OSM   H15S14531   2.428   3.785   7.972 -2.3683 -1.0846  0.5941
  134OSM   H15T14532   2.273   3.856   8.017 -0.3243  1.4568 -2.0949
  134OSM   C16S14533   2.457   3.942   8.114 -0.9620  0.3234 -0.4953
  134OSM   H16S14534   2.409   4.036   8.150 -1.3170  0.3460 -1.0217
  134OSM   H16T14535   2.557   3.973   8.077 -1.7974  1.6960 -1.7230
  134OSM   C17S14536   2.471   3.837   8.227  0.2383 -0.2492 -0.0369
  134OSM   H17S14537   2.551   3.858   8.301 -1.0146 -2.2116  1.9966
  134OSM   H17T14538   2.509   3.749   8.171  1.0717  0.9826 -1.4772
  134OSM   C18S14539   2.340   3.802   8.302  0.9751  0.0333  0.1716
  134OSM   H18S14540   2.262   3.882   8.306 -0.2366 -1.1348  0.6359
  134OSM   H18T14541   2.368   3.759   8.401  1.9188 -1.7032 -0.7998
  134OSM   H18U14542   2.286   3.728   8.239  1.1121 -0.2786  0.4191
  134OSM    C1F14543   2.761   4.165   7.078 -0.0620 -0.3641  0.7815
  134OSM     OF14544   2.723   4.279   7.062  0.2988  0.3225 -0.5606
  134OSM    C2F14545   2.863   4.133   7.190 -1.0604  0.1124  0.1058
  134OSM    H2F14546   2.950   4.199   7.207 -1.6638  0.8447  0.3961
  134OSM    H2G14547   2.910   4.032   7.180 -2.5670 -0.7616  1.3367
  134OSM    C3F14548   2.783   4.114   7.324  0.2989 -0.2759 -0.4881
  134OSM    H3F14549   2.716   4.033   7.289  0.1744  1.5059 -5.2532
  134OSM    H3G14550   2.723   4.204   7.351  0.2869  0.3609 -2.4137
  134OSM    C4F14551   2.879   4.058   7.428 -0.1644 -0.0226  0.2593
  134OSM    H4F14552   2.978   4.108   7.419  1.1913 -2.2222  1.7912
  134OSM    H4G14553   2.897   3.953   7.396  1.7925  1.1880 -3.0426
  134OSM    C5F14554   2.836   4.074   7.572  0.1477 -0.0222  0.2122
  134OSM    H5F14555   2.731   4.038   7.568 -0.6198  1.9901  0.9035
  134OSM    H5G14556   2.835   4.181   7.601  0.7567  0.2944 -0.8793
  134OSM    C6F14557   2.927   4.004   7.676  0.8781 -0.1289  0.2175
  134OSM    H6F14558   3.017   4.069   7.684  0.0596  0.8753  1.8105
  134OSM    H6G14559   2.953   3.897   7.660 -1.3138 -1.0259  2.0625
  134OSM    C7F14560   2.858   4.004   7.814  0.5726 -0.1735  0.5340
  134OSM    H7F14561   2.759   3.954   7.806  0.7495 -0.6144  0.9826
  134OSM    H7G14562   2.835   4.112   7.826  0.8351  0.4847 -3.4627
  134OSM    C8F14563   2.944   3.949   7.923 -0.2564  0.3897 -0.0162
  134OSM    H8F14564   3.040   4.004   7.926 -0.3321  0.5050  0.3207
  134OSM    H8G14565   2.968   3.843   7.900  3.0201  0.8763  0.7585
  134OSM    C9F14566   2.858   3.953   8.050  0.4800  0.0774  0.3141
  134OSM    H9F14567   2.759   3.906   8.039  0.0350  0.5835  1.8676
  134OSM   C10F14568   2.868   4.024   8.166 -0.3527  0.1093 -0.3417
  134OSM   H10F14569   2.790   4.012   8.242  0.5938 -1.7971  0.3815
  134OSM   C11F14570   2.987   4.104   8.215  0.6828  0.0143 -0.0913
  134OSM   H11F14571   2.981   4.212   8.186  0.6426  0.3319  1.0739
  134OSM   H11G14572   3.082   4.064   8.173 -0.4975 -3.9606  0.6500
  134OSM   C12F14573   3.012   4.109   8.363 -0.1616  0.3729 -0.2904
  134OSM   H12F14574   2.935   4.164   8.420 -0.3657 -0.5626  0.3592
  134OSM   H12G14575   3.113   4.155   8.362  0.2678 -0.5382 -0.9323
  134OSM   C13F14576   3.043   3.971   8.423  0.0806  0.5890 -0.1116
  134OSM   H13F14577   3.127   3.913   8.379 -1.4103 -2.8732  1.2477
  134OSM   H13G14578   2.967   3.900   8.386 -0.9189  1.8343 -0.5252
  134OSM   C14F14579   3.066   3.947   8.573  0.2199 -0.5627 -0.8857
  134OSM   H14F14580   3.102   3.844   8.596 -1.2602 -0.9705 -0.2404
  134OSM   H14G14581   2.969   3.973   8.621  1.0596  1.1876 -0.0506
  134OSM   C15F14582   3.160   4.055   8.626  0.1913  0.2375  0.6255
  134OSM   H15F14583   3.111   4.155   8.626 -0.3195  0.0254 -0.8585
  134OSM   H15G14584   3.236   4.059   8.545  0.2876 -0.1735  0.6948
  134OSM   C16F14585   3.217   4.034   8.760  0.0218  0.5387 -0.3263
  134OSM   H16F14586   3.145   4.016   8.842  0.4131  0.6074  0.0382
  134OSM   H16G14587   3.273   4.120   8.804  0.5992 -0.0507  0.1010
  134OSM   C17F14588   3.319   3.914   8.765 -0.2187  0.1732  0.5937
  134OSM   H17F14589   3.406   3.940   8.701  0.0784  1.9154  1.6517
  134OSM   H17G14590   3.269   3.823   8.726  0.3404  0.8162 -1.7648
  134OSM   C18F14591   3.375   3.899   8.903 -0.2512  0.3988 -0.2399
  134OSM   H18F14592   3.450   3.976   8.929 -1.7897  1.6770  0.5855
  134OSM   H18G14593   3.416   3.796   8.904 -2.1645 -0.4208  1.6579
  134OSM   H18H14594   3.303   3.896   8.988  0.0780 -0.8310  0.0110
  135OSM      N14595   2.473   5.000   6.303  0.0608 -0.1596 -0.4405
  135OSM    C1514596   2.612   4.989   6.262 -0.3486  0.1762 -0.4258
  135OSM   H15A14597   2.633   4.886   6.235 -3.8634 -1.3945  1.9755
  135OSM   H15B14598   2.672   5.005   6.351  1.5644  1.0238 -1.8059
  135OSM   H15C14599   2.637   5.065   6.190 -0.1682 -0.1015 -0.6562
  135OSM    C1414600   2.443   5.145   6.325  0.0609  1.4141  0.6092
  135OSM   H14A14601   2.455   5.209   6.239 -0.9206 -1.2244 -1.6327
  135OSM   H14B14602   2.503   5.180   6.407  0.1054  1.3797  0.5915
  135OSM   H14C14603   2.337   5.151   6.348 -0.8114 -0.0714 -2.4402
  135OSM    C1314604   2.391   4.960   6.184 -0.2483  0.0217 -0.1821
  135OSM   H13A14605   2.286   4.985   6.186 -0.8577 -2.1861 -1.5864
  135OSM   H13B14606   2.405   4.854   6.171  1.7619  0.3601 -1.1107
  135OSM   H13C14607   2.433   4.998   6.092 -1.4992 -1.0153 -1.2186
  135OSM    C1214608   2.436   4.917   6.420  0.2507  0.2501  0.0248
  135OSM   H12A14609   2.330   4.917   6.439  0.3508 -1.9200  0.7978
  135OSM   H12B14610   2.483   4.960   6.507 -1.3930 -0.6071  1.3920
  135OSM    C1114611   2.482   4.771   6.407  0.6230  0.6142  0.9051
  135OSM   H11A14612   2.470   4.719   6.310  0.3173  0.6816  0.9064
  135OSM   H11B14613   2.416   4.713   6.475 -0.5010  2.0688  1.0959
  135OSM      P14614   2.707   4.641   6.426  0.3521  0.0336  0.0411
  135OSM    O1314615   2.692   4.627   6.281  0.2825 -0.0823 -0.0691
  135OSM    O1414616   2.848   4.671   6.471  0.5365  0.6041 -0.0197
  135OSM    O1114617   2.638   4.523   6.502 -0.0094  0.3064  0.0202
  135OSM    O1214618   2.621   4.762   6.458  0.7013 -0.0981  0.2592
  135OSM    C1S14619   2.696   4.474   6.622 -0.9417 -0.8324 -0.0871
  135OSM    H1S14620   2.806   4.488   6.622 -0.9382 -0.4463 -2.4739
  135OSM    H1T14621   2.693   4.363   6.627 -0.8443 -0.8697 -0.7622
  135OSM     NF14622   2.719   4.510   6.869 -0.2027  0.6747 -0.2815
  135OSM    HNF14623   2.712   4.434   6.933  0.4106  1.8144  1.1919
  135OSM    C2S14624   2.633   4.527   6.758 -0.4287  0.0533 -0.8565
  135OSM    H2S14625   2.625   4.636   6.737  0.1249 -0.0543 -1.6548
  135OSM    C3S14626   2.498   4.459   6.776 -0.3423  0.3399 -0.1720
  135OSM    H3S14627   2.496   4.349   6.766  0.0646  0.3802 -0.6916
  135OSM     O314628   2.414   4.494   6.667 -0.3101 -0.1231 -0.0273
  135OSM    HO314629   2.460   4.552   6.606 -2.3642  2.2236  0.4941
  135OSM    C4S14630   2.432   4.512   6.899  0.0465  0.3053 -0.7986
  135OSM    H4S14631   2.440   4.621   6.910  0.0355  0.2313  0.0164
  135OSM    C5S14632   2.389   4.431   6.998 -0.0770  0.1672  0.7722
  135OSM    H5S14633   2.402   4.323   6.981 -0.1834  0.2154  0.3884
  135OSM    C6S14634   2.338   4.485   7.133  0.2789 -0.1870 -0.1011
  135OSM    H6S14635   2.227   4.491   7.130  0.1417 -1.4496  1.3351
  135OSM    H6T14636   2.371   4.589   7.157  0.2060 -0.3333  0.6698
  135OSM    C7S14637   2.398   4.394   7.244  0.2610  0.0750  0.3241
  135OSM    H7S14638   2.506   4.392   7.221 -0.0562 -0.9676 -1.1973
  135OSM    H7T14639   2.359   4.291   7.232 -1.0679  0.3308  1.9692
  135OSM    C8S14640   2.381   4.438   7.385 -0.0009  0.4529  0.1417
  135OSM    H8S14641   2.271   4.446   7.388 -0.0956  1.1505 -2.4999
  135OSM    H8T14642   2.428   4.533   7.417  1.4263 -0.3110  0.4013
  135OSM    C9S14643   2.432   4.335   7.495 -0.3253 -0.7570 -0.0670
  135OSM    H9S14644   2.542   4.323   7.478 -0.1721  0.3752 -0.0156
  135OSM    H9T14645   2.373   4.244   7.473  0.2310 -1.1878  0.1977
  135OSM   C10S14646   2.426   4.388   7.637 -0.1653  0.1589 -0.4421
  135OSM   H10S14647   2.327   4.367   7.681  0.1280 -1.6839 -0.5814
  135OSM   H10T14648   2.433   4.499   7.629 -0.2263  0.2886  1.0055
  135OSM   C11S14649   2.521   4.315   7.726 -0.1195  0.2064  0.2736
  135OSM   H11S14650   2.618   4.363   7.699 -0.2054  0.0932 -0.2443
  135OSM   H11T14651   2.536   4.207   7.705  1.1916  0.3047  0.6100
  135OSM   C12S14652   2.491   4.328   7.875  0.8802 -0.8586 -0.0297
  135OSM   H12S14653   2.391   4.282   7.890 -0.2848  1.3844 -0.4733
  135OSM   H12T14654   2.479   4.438   7.891 -2.8591 -0.9595 -1.1701
  135OSM   C13S14655   2.588   4.278   7.988 -0.1953 -0.6324  0.7607
  135OSM   H13S14656   2.685   4.283   7.934 -0.6346 -1.8435 -0.1913
  135OSM   H13T14657   2.566   4.172   8.012  0.2797 -1.0638 -0.5755
  135OSM   C14S14658   2.589   4.369   8.111 -0.6285  0.4638 -0.0513
  135OSM   H14S14659   2.487   4.369   8.156 -0.8707  1.5799 -0.5740
  135OSM   H14T14660   2.609   4.473   8.081  0.5161  0.1948 -0.2354
  135OSM   C15S14661   2.701   4.334   8.208 -0.2500 -0.2875  0.7513
  135OSM   H15S14662   2.785   4.322   8.137  0.4773  2.7948  0.9603
  135OSM   H15T14663   2.684   4.245   8.273  0.7494 -0.4934  0.7507
  135OSM   C16S14664   2.730   4.452   8.297 -0.5256  0.0411  0.3650
  135OSM   H16S14665   2.729   4.545   8.236  0.7187 -1.8398 -2.7590
  135OSM   H16T14666   2.834   4.440   8.332  0.1679  1.8585 -0.8929
  135OSM   C17S14667   2.621   4.480   8.401  0.1864  0.2829 -0.4906
  135OSM   H17S14668   2.588   4.396   8.466  1.4865 -0.0653 -0.2540
  135OSM   H17T14669   2.534   4.518   8.344  0.4359  1.9725  0.1977
  135OSM   C18S14670   2.668   4.578   8.511 -0.4362  0.1180 -0.3426
  135OSM   H18S14671   2.738   4.657   8.475  1.8977 -2.3745 -1.6161
  135OSM   H18T14672   2.738   4.526   8.580  0.3809  1.6794  0.0643
  135OSM   H18U14673   2.586   4.618   8.575  0.1663 -1.5664  1.6023
  135OSM    C1F14674   2.830   4.583   6.883 -0.9317 -0.0325  0.3046
  135OSM     OF14675   2.857   4.669   6.802  0.4092 -0.2770  0.3154
  135OSM    C2F14676   2.916   4.556   7.009 -0.3056 -0.3819 -0.5504
  135OSM    H2F14677   3.001   4.490   6.981 -0.7129 -1.9388  1.6358
  135OSM    H2G14678   2.847   4.505   7.079 -0.1025 -0.0353 -0.0906
  135OSM    C3F14679   2.969   4.691   7.075  1.1913 -0.3051  0.2759
  135OSM    H3F14680   3.047   4.735   7.009  1.4053  2.6900  2.3251
  135OSM    H3G14681   3.035   4.668   7.161  1.4392  1.2220  0.5203
  135OSM    C4F14682   2.866   4.802   7.096  0.0638 -0.0868  0.2719
  135OSM    H4F14683   2.783   4.770   7.162  0.6901  1.7336  2.0556
  135OSM    H4G14684   2.824   4.838   6.999  0.0183  1.5194  0.8642
  135OSM    C5F14685   2.921   4.933   7.158 -0.3988  0.1948 -0.0347
  135OSM    H5F14686   2.861   5.023   7.134 -0.2512  0.2378 -0.2379
  135OSM    H5G14687   3.016   4.965   7.110 -0.6883 -1.6488 -1.9973
  135OSM    C6F14688   2.950   4.936   7.312  0.0279  0.4940 -0.3822
  135OSM    H6F14689   3.027   4.857   7.328  1.2251  1.7133 -0.0094
  135OSM    H6G14690   2.872   4.901   7.383 -0.3862 -0.0431 -1.0850
  135OSM    C7F14691   2.997   5.069   7.374 -0.4839  0.7240  0.0293
  135OSM    H7F14692   2.912   5.140   7.384 -2.3657 -1.2968 -0.7540
  135OSM    H7G14693   3.059   5.123   7.300  0.1747  2.4852  1.7831
  135OSM    C8F14694   3.071   5.044   7.507  0.3855  0.3967 -0.2276
  135OSM    H8F14695   3.150   4.968   7.488  0.2353  0.6298 -1.9227
  135OSM    H8G14696   2.997   5.007   7.582  0.0891  1.0725 -0.1804
  135OSM    C9F14697   3.131   5.171   7.566  0.3008 -0.1595 -0.0439
  135OSM    H9F14698   3.161   5.239   7.485  0.8018 -3.0623 -2.4277
  135OSM   C10F14699   3.149   5.195   7.700  0.0922 -0.7906 -0.3600
  135OSM   H10F14700   3.197   5.290   7.726 -1.5517 -0.0936  0.2426
  135OSM   C11F14701   3.108   5.111   7.819 -0.9192 -0.0129 -0.5565
  135OSM   H11F14702   3.014   5.056   7.799 -0.0837 -1.6140 -0.2238
  135OSM   H11G14703   3.096   5.183   7.903  1.0197 -1.1033  0.7420
  135OSM   C12F14704   3.203   5.003   7.871 -0.4411 -0.0644 -0.0983
  135OSM   H12F14705   3.292   5.045   7.923 -0.7120 -0.1393  0.4259
  135OSM   H12G14706   3.240   4.952   7.779  0.9828 -0.7875  0.8412
  135OSM   C13F14707   3.129   4.902   7.956  0.2597 -0.3107 -0.3435
  135OSM   H13F14708   3.200   4.822   7.984 -0.2131 -0.8208 -0.5677
  135OSM   H13G14709   3.051   4.849   7.896  0.5550 -3.3929  1.7465
  135OSM   C14F14710   3.066   4.960   8.086  0.0812 -0.2359  0.6215
  135OSM   H14F14711   2.966   4.999   8.059 -1.1026 -2.0865  2.1038
  135OSM   H14G14712   3.131   5.041   8.125 -0.8466  0.0635  1.5708
  135OSM   C15F14713   3.052   4.852   8.201  0.0560  0.3043  0.3238
  135OSM   H15F14714   3.150   4.800   8.208 -0.0000  0.3386  1.4249
  135OSM   H15G14715   2.978   4.778   8.162 -1.0586  1.5402  0.0282
  135OSM   C16F14716   3.019   4.900   8.341  0.6949 -0.4391  0.5732
  135OSM   H16F14717   2.916   4.944   8.341 -0.4037 -2.8565  1.2156
  135OSM   H16G14718   3.088   4.984   8.366 -0.6365  0.6481  0.7465
  135OSM   C17F14719   3.018   4.785   8.431  0.1417 -0.0053 -0.3406
  135OSM   H17F14720   3.123   4.749   8.432 -0.1785 -1.0556 -1.4858
  135OSM   H17G14721   2.956   4.704   8.387 -0.0251 -0.2066  0.2509
  135OSM   C18F14722   2.963   4.810   8.573 -0.0635 -0.4893 -0.0900
  135OSM   H18F14723   2.854   4.829   8.563 -0.1333 -1.6064 -1.8468
  135OSM   H18G14724   3.006   4.907   8.605  0.0524 -0.3817 -0.5627
  135OSM   H18H14725   2.994   4.738   8.652 -0.4438 -1.1469 -0.5261
  136OSM      N14726   0.449   6.371   5.971 -0.1205 -0.2959 -0.4735
  136OSM    C1514727   0.352   6.423   5.870 -0.5133 -0.1287  0.4596
  136OSM   H15A14728   0.252   6.447   5.904 -0.6929  0.9143 -0.7577
  136OSM   H15B14729   0.346   6.359   5.783  1.2697  2.1694 -1.4681
  136OSM   H15C14730   0.397   6.511   5.828  0.8135 -1.1063 -0.2237
  136OSM    C1414731   0.589   6.360   5.922 -0.5947  0.0960 -0.8182
  136OSM   H14A14732   0.655   6.306   5.989 -1.7348  0.4914  0.7006
  136OSM   H14B14733   0.641   6.453   5.903  1.5831 -0.6213  1.1969
  136OSM   H14C14734   0.591   6.317   5.823 -0.7354  0.2623 -0.8945
  136OSM    C1314735   0.453   6.459   6.095 -0.3256 -0.1432  0.4779
  136OSM   H13A14736   0.493   6.558   6.083 -1.7752  0.2970 -1.1195
  136OSM   H13B14737   0.515   6.415   6.171  1.3312  0.1799 -0.6399
  136OSM   H13C14738   0.354   6.468   6.137  0.2962  0.7666  1.8242
  136OSM    C1214739   0.414   6.227   6.015  0.4432 -0.3143  1.0507
  136OSM   H12A14740   0.335   6.238   6.088  0.3155  1.4210  0.7039
  136OSM   H12B14741   0.494   6.186   6.074  0.3840 -1.2133  0.5172
  136OSM    C1114742   0.391   6.129   5.895 -0.8516  0.4844 -0.6386
  136OSM   H11A14743   0.491   6.122   5.848 -2.0378  0.6636 -3.3646
  136OSM   H11B14744   0.317   6.156   5.817 -1.6762  0.7390  0.2003
  136OSM      P14745   0.485   5.909   6.007 -0.3220 -0.2597  0.4825
  136OSM    O1314746   0.433   5.789   6.076  0.2300 -0.1719  0.9749
  136OSM    O1414747   0.591   5.878   5.907  0.0925 -0.0732 -0.1524
  136OSM    O1114748   0.554   6.009   6.111  0.6196  0.3094  0.3480
  136OSM    O1214749   0.365   5.995   5.940 -0.2286  1.1363 -0.0421
  136OSM    C1S14750   0.577   5.964   6.241 -0.5157 -0.2861  0.1575
  136OSM    H1S14751   0.643   5.875   6.227  3.8805  2.4693  1.1811
  136OSM    H1T14752   0.482   5.935   6.289 -0.3852  0.1987  0.7167
  136OSM     NF14753   0.618   6.049   6.467  0.4156 -0.4741 -0.1866
  136OSM    HNF14754   0.561   6.124   6.498  1.0162 -0.5625  1.2110
  136OSM    C2S14755   0.663   6.059   6.326  0.2947  0.6261 -0.0420
  136OSM    H2S14756   0.761   6.007   6.329  0.5399  1.1335  2.9041
  136OSM    C3S14757   0.677   6.200   6.269  0.1489 -0.1835  0.5607
  136OSM    H3S14758   0.573   6.236   6.252 -0.9340 -1.7970  3.1989
  136OSM     O314759   0.751   6.205   6.151 -0.2314 -0.3169  0.4339
  136OSM    HO314760   0.758   6.112   6.128 -0.9948  0.3105 -2.9156
  136OSM    C4S14761   0.750   6.292   6.365  0.7859  0.3250  0.3054
  136OSM    H4S14762   0.846   6.261   6.410  1.4653  0.4975 -0.9810
  136OSM    C5S14763   0.720   6.425   6.380 -0.0002  0.1168  0.0531
  136OSM    H5S14764   0.639   6.469   6.321 -0.5912 -1.9931 -0.7857
  136OSM    C6S14765   0.794   6.521   6.477  0.6944  0.3796  0.2697
  136OSM    H6S14766   0.740   6.618   6.477  0.7904  0.4398 -0.4318
  136OSM    H6T14767   0.898   6.538   6.440  0.8656  2.1191  1.4218
  136OSM    C7S14768   0.811   6.468   6.618 -0.3523 -0.0451  0.9069
  136OSM    H7S14769   0.878   6.540   6.670  0.9448 -0.6331  0.1133
  136OSM    H7T14770   0.854   6.366   6.615 -1.6260 -0.6051 -2.1198
  136OSM    C8S14771   0.672   6.445   6.686 -0.6742 -0.3207 -0.7241
  136OSM    H8S14772   0.613   6.366   6.635 -2.2062  0.4676 -0.2456
  136OSM    H8T14773   0.623   6.545   6.689 -0.0105  0.0587 -1.9905
  136OSM    C9S14774   0.682   6.393   6.832  0.0782 -0.4440 -0.5209
  136OSM    H9S14775   0.726   6.466   6.903  1.1106 -0.6890 -0.8883
  136OSM    H9T14776   0.747   6.303   6.832  0.6390 -0.0782  1.7161
  136OSM   C10S14777   0.554   6.344   6.897  0.6504  0.5735  0.1757
  136OSM   H10S14778   0.500   6.271   6.833 -1.2691  0.9491  1.2803
  136OSM   H10T14779   0.483   6.427   6.919  0.6566  0.4296  0.7599
  136OSM   C11S14780   0.588   6.284   7.040  0.4043 -0.5757 -0.3172
  136OSM   H11S14781   0.622   6.372   7.099  1.0817 -1.1398  0.1556
  136OSM   H11T14782   0.660   6.199   7.032 -1.1829 -2.6183  3.7846
  136OSM   C12S14783   0.466   6.229   7.130  0.0484 -0.0744  0.2988
  136OSM   H12S14784   0.429   6.132   7.091 -0.0343  0.7060 -1.6677
  136OSM   H12T14785   0.386   6.304   7.119 -0.3560 -0.3000  1.4958
  136OSM   C13S14786   0.512   6.220   7.277  0.5732 -0.1932  0.2363
  136OSM   H13S14787   0.570   6.313   7.296  0.0157  1.2119 -3.9418
  136OSM   H13T14788   0.584   6.135   7.283 -1.1923 -1.6530  1.5043
  136OSM   C14S14789   0.392   6.198   7.374 -0.1621 -0.0360  0.2820
  136OSM   H14S14790   0.355   6.103   7.329 -0.5623  1.5207 -3.0068
  136OSM   H14T14791   0.323   6.285   7.377  1.8500  1.7348 -1.6413
  136OSM   C15S14792   0.433   6.183   7.526  0.1349  0.2089 -0.5824
  136OSM   H15S14793   0.497   6.274   7.539  0.6181  0.0095 -1.4804
  136OSM   H15T14794   0.500   6.095   7.538  0.3868  0.2486 -1.5859
  136OSM   C16S14795   0.312   6.180   7.625 -0.2482 -0.4993 -0.3630
  136OSM   H16S14796   0.241   6.098   7.599  0.8948 -1.9908  1.0371
  136OSM   H16T14797   0.271   6.280   7.600  0.2138 -0.0203  0.7674
  136OSM   C17S14798   0.336   6.161   7.776 -0.1717  0.1607  0.0065
  136OSM   H17S14799   0.406   6.246   7.792  0.6764 -0.1184 -1.8769
  136OSM   H17T14800   0.394   6.070   7.805  0.8232  0.7196 -0.1905
  136OSM   C18S14801   0.214   6.173   7.875  0.2471  0.4300  0.1969
  136OSM   H18S14802   0.148   6.086   7.856  0.4410  0.8990 -3.5482
  136OSM   H18T14803   0.154   6.265   7.863 -0.8949 -0.1466  1.2823
  136OSM   H18U14804   0.250   6.182   7.979 -1.7346  0.4917  0.9080
  136OSM    C1F14805   0.631   5.937   6.532  0.2317  0.1135 -0.0826
  136OSM     OF14806   0.691   5.840   6.481  0.1582 -0.1493 -0.1639
  136OSM    C2F14807   0.550   5.925   6.656 -0.1656  0.1673 -0.1194
  136OSM    H2F14808   0.448   5.894   6.625  0.1253  1.0595 -2.1816
  136OSM    H2G14809   0.536   6.022   6.709  0.4598 -0.6108  1.5112
  136OSM    C3F14810   0.600   5.816   6.750  0.2583 -0.1763 -0.1995
  136OSM    H3F14811   0.705   5.837   6.779  0.2064 -1.0446  0.6879
  136OSM    H3G14812   0.599   5.714   6.705 -2.8671  0.4017 -1.7381
  136OSM    C4F14813   0.520   5.811   6.887 -0.3737 -0.3611  0.5677
  136OSM    H4F14814   0.421   5.763   6.872 -0.3351 -1.0150  2.2059
  136OSM    H4G14815   0.527   5.915   6.927 -0.0243  0.4820 -1.5443
  136OSM    C5F14816   0.594   5.718   6.986 -0.5966 -0.5365 -0.1097
  136OSM    H5F14817   0.699   5.754   6.988 -0.3983 -1.0578  2.7035
  136OSM    H5G14818   0.588   5.616   6.942 -0.1321  0.7704 -3.5466
  136OSM    C6F14819   0.537   5.734   7.132 -0.0151 -0.1822  0.4112
  136OSM    H6F14820   0.440   5.681   7.130  0.0947 -0.4252 -2.5594
  136OSM    H6G14821   0.522   5.843   7.149  0.8108  0.1043 -0.5879
  136OSM    C7F14822   0.643   5.676   7.234  0.5260 -0.0960 -0.1358
  136OSM    H7F14823   0.722   5.752   7.247  0.1947  0.3201 -0.5198
  136OSM    H7G14824   0.680   5.585   7.181 -0.0404 -0.5194  0.1792
  136OSM    C8F14825   0.591   5.646   7.370 -0.1458 -0.1935  0.1670
  136OSM    H8F14826   0.670   5.599   7.432 -0.2718  0.9566  1.2370
  136OSM    H8G14827   0.505   5.575   7.362  0.1295 -0.8160  2.1813
  136OSM    C9F14828   0.541   5.765   7.443  0.2909 -0.6891  0.4238
  136OSM    H9F14829   0.537   5.855   7.380 -0.5816 -0.5222  0.7069
  136OSM   C10F14830   0.490   5.767   7.569  0.6388  0.7294 -0.1976
  136OSM   H10F14831   0.465   5.866   7.610  1.2278  0.9785 -0.4232
  136OSM   C11F14832   0.477   5.642   7.659  0.0464  0.1088 -0.2757
  136OSM   H11F14833   0.513   5.553   7.603 -0.3102  0.3367 -0.8752
  136OSM   H11G14834   0.369   5.622   7.677 -0.5613  0.0244 -3.3521
  136OSM   C12F14835   0.566   5.660   7.784 -0.1904 -0.2483 -0.5564
  136OSM   H12F14836   0.526   5.734   7.856 -0.7023  1.2762 -2.3382
  136OSM   H12G14837   0.664   5.691   7.743 -1.3685  1.9014 -1.9317
  136OSM   C13F14838   0.586   5.528   7.862 -0.1013  0.0243 -0.5743
  136OSM   H13F14839   0.651   5.474   7.790  2.0836  1.3769  0.2636
  136OSM   H13G14840   0.490   5.477   7.882  0.5044 -0.2961  1.8314
  136OSM   C14F14841   0.676   5.547   7.983  0.5088  0.3761 -0.5519
  136OSM   H14F14842   0.752   5.625   7.958 -1.2700  2.1451 -0.7026
  136OSM   H14G14843   0.726   5.455   8.020 -0.1365  1.0958  2.4146
  136OSM   C15F14844   0.597   5.593   8.102  0.4242 -0.3289 -0.2290
  136OSM   H15F14845   0.563   5.695   8.075  1.3773  0.1883  0.4446
  136OSM   H15G14846   0.663   5.599   8.192 -1.5080 -3.4281  1.5676
  136OSM   C16F14847   0.473   5.502   8.144 -0.2001  0.3196  0.3975
  136OSM   H16F14848   0.501   5.395   8.151  2.0204  0.8001 -0.3013
  136OSM   H16G14849   0.393   5.510   8.067  0.6823 -2.9819 -1.0130
  136OSM   C17F14850   0.427   5.543   8.279 -0.2881  1.2764 -0.8707
  136OSM   H17F14851   0.413   5.653   8.288  1.6190  1.4157  1.8148
  136OSM   H17G14852   0.505   5.532   8.358 -0.9209  0.8896 -0.2882
  136OSM   C18F14853   0.295   5.476   8.327  0.3820 -0.6616  0.2528
  136OSM   H18F14854   0.291   5.365   8.330  2.2911 -0.8940 -2.0726
  136OSM   H18G14855   0.219   5.518   8.257  0.6853 -0.1840  0.2021
  136OSM   H18H14856   0.274   5.504   8.432 -0.8927 -2.1717  0.4411
  137OSM      N14857   3.767   3.513   6.269  1.2395  0.4187  0.3521
  137OSM    C1514858   3.865   3.623   6.254 -0.3432 -0.4597 -0.2738
  137OSM   H15A14859   3.928   3.631   6.167 -0.2694  2.5816 -0.0624
  137OSM   H15B14860   3.936   3.619   6.336 -0.9984 -0.9426  0.2858
  137OSM   H15C14861   3.820   3.720   6.270  0.4745  0.0845 -1.1648
  137OSM    C1414862   3.668   3.533   6.159  0.4915  0.0305 -0.1202
  137OSM   H14A14863   3.712   3.523   6.061 -1.6000 -0.3404 -1.0808
  137OSM   H14B14864   3.629   3.633   6.175  1.6767  0.3905  0.6938
  137OSM   H14C14865   3.579   3.472   6.166 -0.2114  0.8692 -1.3335
  137OSM    C1314866   3.833   3.381   6.248 -0.4065  0.5411  0.0713
  137OSM   H13A14867   3.919   3.371   6.313  1.6865  0.8041 -2.4750
  137OSM   H13B14868   3.872   3.367   6.148 -0.3034  1.8405 -0.0901
  137OSM   H13C14869   3.768   3.297   6.267 -1.3829  1.3097  0.1874
  137OSM    C1214870   3.689   3.515   6.400  0.0726 -0.2600 -0.2209
  137OSM   H12A14871   3.614   3.437   6.395  1.1960 -1.6456  2.4511
  137OSM   H12B14872   3.638   3.608   6.417 -1.6127 -1.0799 -0.5207
  137OSM    C1114873   3.768   3.501   6.539  0.5320  0.1728 -0.1284
  137OSM   H11A14874   3.845   3.421   6.535  1.0884  0.3996  3.1083
  137OSM   H11B14875   3.693   3.487   6.620 -2.7839 -0.5741 -3.0571
  137OSM      P14876   3.776   3.760   6.617 -0.1485  0.3650  0.0569
  137OSM    O1314877   3.856   3.872   6.568 -0.2143 -0.5671  0.5223
  137OSM    O1414878   3.634   3.764   6.581 -0.3750  0.3070  0.1704
  137OSM    O1114879   3.806   3.735   6.774  0.5036 -0.1209  0.9093
  137OSM    O1214880   3.840   3.627   6.560  0.2896 -0.3527  0.0922
  137OSM    C1S14881   3.737   3.797   6.881 -0.3524  0.4320  0.1521
  137OSM    H1S14882   3.686   3.891   6.852 -1.4826  0.8668  3.2323
  137OSM    H1T14883   3.817   3.827   6.951 -0.1850  1.7261 -0.5617
  137OSM     NF14884   3.573   3.772   7.057  0.2014  0.3007 -0.1358
  137OSM    HNF14885   3.607   3.747   7.147  1.6703  0.8933 -0.4867
  137OSM    C2S14886   3.638   3.698   6.947  0.4294  0.1331  0.1119
  137OSM    H2S14887   3.562   3.664   6.874  0.3280  0.3773  0.1023
  137OSM    C3S14888   3.714   3.571   6.996 -0.0233 -0.6539  0.5534
  137OSM    H3S14889   3.798   3.611   7.057 -0.6841  1.7878 -0.0093
  137OSM     O314890   3.756   3.491   6.892  0.0944 -0.2512 -0.0784
  137OSM    HO314891   3.773   3.549   6.817  0.3138 -1.1460 -0.7425
  137OSM    C4S14892   3.639   3.486   7.091  0.0638 -0.0953  0.1608
  137OSM    H4S14893   3.675   3.497   7.195 -0.4604  1.3893  0.2002
  137OSM    C5S14894   3.542   3.401   7.051  0.9348 -0.2593  0.2786
  137OSM    H5S14895   3.526   3.388   6.942 -2.1477  1.9426  0.3311
  137OSM    C6S14896   3.469   3.308   7.145  0.2815  0.2657 -0.1286
  137OSM    H6S14897   3.511   3.206   7.131  3.3755  1.2014  1.4671
  137OSM    H6T14898   3.361   3.311   7.121  0.2882 -1.2026 -0.4531
  137OSM    C7S14899   3.485   3.350   7.293  0.4934  0.2371 -0.2472
  137OSM    H7S14900   3.428   3.445   7.305  0.7042  0.3474 -0.1204
  137OSM    H7T14901   3.590   3.376   7.319  0.4102  0.0991  0.2267
  137OSM    C8S14902   3.432   3.239   7.393  0.5019 -0.7608  0.0752
  137OSM    H8S14903   3.491   3.146   7.380 -2.0925 -2.6089  0.8704
  137OSM    H8T14904   3.331   3.198   7.372 -0.1474  0.6448  0.2767
  137OSM    C9S14905   3.426   3.280   7.543 -0.4989 -0.5386 -0.1281
  137OSM    H9S14906   3.340   3.350   7.557  0.5864  0.9087 -0.4769
  137OSM    H9T14907   3.507   3.355   7.555  0.2547 -1.2991 -0.3706
  137OSM   C10S14908   3.442   3.170   7.650  0.0009  0.6122  0.4227
  137OSM   H10S14909   3.546   3.133   7.636  0.0957  0.2185  1.9831
  137OSM   H10T14910   3.380   3.083   7.619 -0.2872  1.5156 -1.7231
  137OSM   C11S14911   3.414   3.198   7.794 -0.1041 -0.1008  0.2476
  137OSM   H11S14912   3.306   3.175   7.805 -0.0853 -2.1972 -2.7000
  137OSM   H11T14913   3.423   3.305   7.825 -0.7809  0.2079 -0.5782
  137OSM   C12S14914   3.493   3.101   7.878 -0.0341  1.1693  0.8642
  137OSM   H12S14915   3.594   3.087   7.832 -0.0730 -0.0845  1.1126
  137OSM   H12T14916   3.437   3.005   7.886 -0.7202  1.2080 -2.1495
  137OSM   C13S14917   3.510   3.155   8.023  0.7837 -0.0324  0.1251
  137OSM   H13S14918   3.565   3.251   8.019 -2.1347  1.7006 -0.5396
  137OSM   H13T14919   3.560   3.074   8.081 -0.2436  0.7901  2.2727
  137OSM   C14S14920   3.378   3.183   8.090  0.5507 -0.0623  0.3881
  137OSM   H14S14921   3.344   3.088   8.137 -1.5427  1.6379  2.5633
  137OSM   H14T14922   3.297   3.220   8.023 -0.2479 -0.4667  1.1023
  137OSM   C15S14923   3.385   3.274   8.214  0.1351 -0.8933  0.4805
  137OSM   H15S14924   3.390   3.377   8.174  2.5958 -0.3094  2.0232
  137OSM   H15T14925   3.488   3.256   8.253  0.9520 -0.1082 -1.2060
  137OSM   C16S14926   3.282   3.263   8.322  0.1003  0.7761  0.5953
  137OSM   H16S14927   3.299   3.164   8.368 -1.4925  0.6421  0.9514
  137OSM   H16T14928   3.183   3.280   8.274  0.5550 -1.3761 -1.2695
  137OSM   C17S14929   3.300   3.370   8.430 -0.1546 -0.0944 -0.8288
  137OSM   H17S14930   3.406   3.381   8.461 -0.7039  3.2762  0.2914
  137OSM   H17T14931   3.247   3.340   8.523  2.1254 -0.0254  0.5717
  137OSM   C18S14932   3.260   3.511   8.388  0.8550 -0.8057  0.2757
  137OSM   H18S14933   3.330   3.548   8.311  1.5999 -0.0695  1.2762
  137OSM   H18T14934   3.261   3.577   8.478 -0.3734  1.1326 -1.0474
  137OSM   H18U14935   3.159   3.506   8.342  0.1905  0.8532  1.4731
  137OSM    C1F14936   3.486   3.881   7.056 -0.4970 -0.5750 -0.8600
  137OSM     OF14937   3.447   3.931   6.951  0.8026  0.9652 -0.5073
  137OSM    C2F14938   3.445   3.928   7.188 -0.3042 -0.4145 -0.1861
  137OSM    H2F14939   3.525   3.913   7.264  1.8902  1.4999 -1.9754
  137OSM    H2G14940   3.357   3.868   7.219  0.2456 -0.8598  0.5832
  137OSM    C3F14941   3.413   4.080   7.200 -0.1507 -0.3937  0.0697
  137OSM    H3F14942   3.376   4.132   7.109  1.1801  1.8069  0.6897
  137OSM    H3G14943   3.509   4.132   7.223 -0.4087 -0.7190  2.0006
  137OSM    C4F14944   3.327   4.125   7.320 -0.6225 -1.0386  0.3015
  137OSM    H4F14945   3.228   4.075   7.315  0.0243 -2.2265 -1.9338
  137OSM    H4G14946   3.307   4.233   7.305 -2.0213 -0.9791  2.3172
  137OSM    C5F14947   3.400   4.118   7.451  0.1227  0.1661  0.3543
  137OSM    H5F14948   3.480   4.194   7.441 -0.4276  0.9853  1.7657
  137OSM    H5G14949   3.451   4.021   7.464 -1.2859 -0.5463  0.8245
  137OSM    C6F14950   3.311   4.156   7.569  0.4855  0.1834 -0.0818
  137OSM    H6F14951   3.212   4.117   7.537  0.1638 -0.4602  1.6019
  137OSM    H6G14952   3.303   4.265   7.551  1.5901  0.4613  0.9385
  137OSM    C7F14953   3.376   4.102   7.695  0.2612  0.8068  0.5276
  137OSM    H7F14954   3.485   4.122   7.706  0.2964  2.0250 -1.4752
  137OSM    H7G14955   3.359   3.992   7.697  1.9859  0.5186  0.5321
  137OSM    C8F14956   3.308   4.175   7.817  0.4055  0.4239 -0.4282
  137OSM    H8F14957   3.341   4.116   7.906 -0.3228  1.1414  0.3451
  137OSM    H8G14958   3.198   4.160   7.810  0.5230 -0.7145 -0.1885
  137OSM    C9F14959   3.347   4.318   7.832 -0.6326 -0.2742  0.2485
  137OSM    H9F14960   3.439   4.343   7.776  0.3469 -0.3528  1.7474
  137OSM   C10F14961   3.276   4.407   7.906 -0.0590  0.2718 -0.3842
  137OSM   H10F14962   3.326   4.502   7.931  1.7254 -1.2160  2.1724
  137OSM   C11F14963   3.159   4.384   7.997 -0.6797 -0.2321 -0.4464
  137OSM   H11F14964   3.189   4.412   8.101 -1.2868  0.5393 -0.4711
  137OSM   H11G14965   3.120   4.280   7.988 -1.2939  0.0112 -0.6083
  137OSM   C12F14966   3.047   4.488   7.962 -0.2783 -0.1588  0.2897
  137OSM   H12F14967   3.081   4.593   7.952 -0.5346 -0.0871  0.1660
  137OSM   H12G14968   2.970   4.486   8.043 -0.5075  1.0858  0.1138
  137OSM   C13F14969   2.969   4.464   7.829 -0.0307  0.2044  0.5139
  137OSM   H13F14970   2.866   4.427   7.852  1.0034 -2.9095  0.6120
  137OSM   H13G14971   3.016   4.386   7.766 -0.9581 -0.2715  0.3990
  137OSM   C14F14972   2.956   4.587   7.737 -0.2964 -0.0353 -0.1943
  137OSM   H14F14973   3.058   4.620   7.711 -0.4540  1.9550  1.4825
  137OSM   H14G14974   2.913   4.678   7.783 -0.2894 -0.1342  0.0097
  137OSM   C15F14975   2.874   4.556   7.607 -1.0430 -0.5094 -0.3644
  137OSM   H15F14976   2.844   4.650   7.555 -0.3863 -0.4917 -0.7253
  137OSM   H15G14977   2.786   4.492   7.628  0.2601 -2.1920  0.1798
  137OSM   C16F14978   2.963   4.467   7.507  0.5729  0.0982  0.4211
  137OSM   H16F14979   2.907   4.435   7.416  1.0024  0.5918 -0.0205
  137OSM   H16G14980   2.983   4.373   7.563 -1.5861 -0.4597  0.3739
  137OSM   C17F14981   3.085   4.551   7.458 -0.7688  0.6486 -0.3609
  137OSM   H17F14982   3.158   4.579   7.537 -0.2026 -0.6220 -0.4227
  137OSM   H17G14983   3.042   4.647   7.421  0.5748  0.4302 -2.6517
  137OSM   C18F14984   3.157   4.495   7.336  0.2597  0.2881  1.4070
  137OSM   H18F14985   3.185   4.388   7.346 -1.4572 -0.2485  0.7956
  137OSM   H18G14986   3.232   4.566   7.295  0.5409 -1.1673 -0.8231
  137OSM   H18H14987   3.086   4.487   7.251 -1.4653  2.3146  2.5643
  138OSM      N14988   3.778   5.890   6.164  0.5454 -0.0797  0.9685
  138OSM    C1514989   3.664   5.831   6.083 -0.4903 -0.7710 -0.0412
  138OSM   H15A14990   3.565   5.862   6.113 -0.7218 -0.4006 -1.1402
  138OSM   H15B14991   3.663   5.723   6.084 -0.0543 -0.7756  1.3260
  138OSM   H15C14992   3.683   5.869   5.984  0.8848 -0.7881  0.2038
  138OSM    C1414993   3.782   5.831   6.296  0.1534  0.1014 -0.1199
  138OSM   H14A14994   3.799   5.724   6.295  0.3544  0.0813  1.7304
  138OSM   H14B14995   3.689   5.836   6.350  1.8850 -0.6975  3.1941
  138OSM   H14C14996   3.861   5.880   6.351 -1.2093  2.3976 -0.0746
  138OSM    C1314997   3.907   5.860   6.096 -0.0701 -1.0595  0.3132
  138OSM   H13A14998   3.988   5.880   6.165 -0.5833 -3.5878  1.7678
  138OSM   H13B14999   3.917   5.907   5.999  2.2973 -0.9794  0.5420
  138OSM   H13C15000   3.917   5.753   6.086  2.1518 -0.8831  0.1564
  138OSM    C1215001   3.780   6.039   6.172  0.7851 -0.0419 -0.6928
  138OSM   H12A15002   3.798   6.081   6.074  0.2155 -1.1744 -1.2956
  138OSM   H12B15003   3.873   6.048   6.228  0.0882 -0.1390  0.5139
  138OSM    C1115004   3.669   6.115   6.246  0.2451  0.7959  0.4772
  138OSM   H11A15005   3.697   6.221   6.260 -0.4916  1.0154  0.3215
  138OSM   H11B15006   3.665   6.082   6.352  1.3136  0.6007  0.4694
  138OSM      P15007   3.415   6.177   6.218 -0.0251 -0.4878 -0.3099
  138OSM    O1315008   3.411   6.315   6.173 -0.0626 -0.3586  0.2395
  138OSM    O1415009   3.298   6.089   6.190 -0.0451  0.1251  0.1346
  138OSM    O1115010   3.435   6.178   6.375  0.0021  0.1474 -0.0724
  138OSM    O1215011   3.548   6.099   6.163  0.2815  0.1636 -0.5065
  138OSM    C1S15012   3.395   6.081   6.463  0.9532  0.5832 -0.4412
  138OSM    H1S15013   3.413   5.979   6.423  1.5359  0.5788 -0.1683
  138OSM    H1T15014   3.284   6.075   6.469  1.0203 -3.5472 -0.9232
  138OSM     NF15015   3.431   5.969   6.685 -0.0128  0.1932  0.1495
  138OSM    HNF15016   3.357   5.981   6.750  0.4666  2.0010  0.4238
  138OSM    C2S15017   3.472   6.083   6.603  0.1246  0.1887  0.3624
  138OSM    H2S15018   3.582   6.075   6.594 -0.0538 -0.8687 -1.2517
  138OSM    C3S15019   3.448   6.221   6.672  1.7194  0.7571 -0.3384
  138OSM    H3S15020   3.337   6.230   6.677  1.4151 -2.2363 -0.0797
  138OSM     O315021   3.481   6.332   6.590  0.0442  0.2304  0.1825
  138OSM    HO315022   3.476   6.291   6.503  2.3124  0.7471 -0.2659
  138OSM    C4S15023   3.507   6.234   6.806  0.1649  0.0746  0.0730
  138OSM    H4S15024   3.616   6.242   6.796 -0.0667  1.2626 -1.9281
  138OSM    C5S15025   3.442   6.246   6.922 -0.0519 -0.2847 -0.4440
  138OSM    H5S15026   3.333   6.244   6.929 -0.1637 -1.7621 -1.9818
  138OSM    C6S15027   3.501   6.261   7.059 -0.0002 -0.2330  0.0133
  138OSM    H6S15028   3.527   6.365   7.087  2.7119 -0.7444 -0.2614
  138OSM    H6T15029   3.601   6.213   7.064  0.4699  0.3932 -2.1184
  138OSM    C7S15030   3.413   6.192   7.162  0.6212 -0.6272  0.7714
  138OSM    H7S15031   3.406   6.082   7.147 -1.8806 -0.6009  1.2455
  138OSM    H7T15032   3.310   6.233   7.155  0.7247 -0.1763  1.7526
  138OSM    C8S15033   3.462   6.216   7.306 -0.5669  0.1829  0.2332
  138OSM    H8S15034   3.474   6.327   7.310 -0.2512  0.2689 -1.8010
  138OSM    H8T15035   3.566   6.178   7.312 -1.2738 -2.2500 -1.4031
  138OSM    C9S15036   3.364   6.160   7.412 -0.6380 -0.4924  0.7930
  138OSM    H9S15037   3.330   6.055   7.405 -1.2578 -0.3049  0.9418
  138OSM    H9T15038   3.277   6.223   7.383  0.3206  0.0252 -1.1411
  138OSM   C10S15039   3.434   6.182   7.556  0.0964 -0.1988 -0.1592
  138OSM   H10S15040   3.359   6.151   7.632  1.8148 -0.7249  1.4002
  138OSM   H10T15041   3.457   6.290   7.573 -2.0125  0.3361 -0.4278
  138OSM   C11S15042   3.545   6.086   7.570 -0.7599  0.9526 -0.3845
  138OSM   H11S15043   3.624   6.104   7.495  0.2250  1.4221  0.7350
  138OSM   H11T15044   3.512   5.981   7.561  1.3333  0.1519  0.6682
  138OSM   C12S15045   3.626   6.088   7.711  0.5890  0.1771 -0.6225
  138OSM   H12S15046   3.671   6.190   7.713  0.1784  0.3576 -0.5609
  138OSM   H12T15047   3.720   6.029   7.711  1.8935  2.0857  1.5442
  138OSM   C13S15048   3.544   6.070   7.840 -0.3031 -0.6327  0.3806
  138OSM   H13S15049   3.448   6.016   7.823 -0.3734 -0.3272 -0.2035
  138OSM   H13T15050   3.514   6.173   7.869 -2.1048 -1.4189  1.4712
  138OSM   C14S15051   3.621   6.021   7.959 -0.4932 -0.0325 -0.5504
  138OSM   H14S15052   3.693   6.104   7.977  1.7508 -1.1883 -3.3211
  138OSM   H14T15053   3.670   5.927   7.925 -0.9756  0.7468 -3.7632
  138OSM   C15S15054   3.547   6.002   8.091  0.1184 -0.3481  0.1211
  138OSM   H15S15055   3.483   5.913   8.072  0.7212 -0.3755 -1.9758
  138OSM   H15T15056   3.476   6.084   8.117 -1.3768 -1.8220  0.9517
  138OSM   C16S15057   3.635   5.972   8.205  0.0670 -0.5857 -0.8290
  138OSM   H16S15058   3.694   5.880   8.185 -0.3394 -1.0098 -0.1278
  138OSM   H16T15059   3.570   5.935   8.287 -0.7188  0.3615 -1.0084
  138OSM   C17S15060   3.724   6.091   8.248  0.1904 -0.1594 -0.1149
  138OSM   H17S15061   3.679   6.192   8.253 -0.6792 -0.5800  1.2596
  138OSM   H17T15062   3.807   6.097   8.175  0.9164  3.1757  0.8123
  138OSM   C18S15063   3.787   6.077   8.390 -0.1495  0.3840 -0.3893
  138OSM   H18S15064   3.713   6.068   8.472  1.3737 -3.8743  0.7986
  138OSM   H18T15065   3.862   6.156   8.411 -0.5616  0.6363  0.1517
  138OSM   H18U15066   3.851   5.987   8.402 -0.2044  0.3012 -0.7084
  138OSM    C1F15067   3.468   5.840   6.660 -1.1003  0.3395 -0.5404
  138OSM     OF15068   3.561   5.826   6.579  0.0890  0.8747 -0.2619
  138OSM    C2F15069   3.406   5.724   6.732  0.4871  0.3218 -0.0036
  138OSM    H2F15070   3.343   5.675   6.656  0.5762  2.8448 -1.8357
  138OSM    H2G15071   3.347   5.757   6.821 -0.7402 -0.4735 -0.5077
  138OSM    C3F15072   3.512   5.619   6.777 -0.0358  0.6977  0.2984
  138OSM    H3F15073   3.571   5.580   6.691 -1.4136  0.5119 -0.5866
  138OSM    H3G15074   3.462   5.527   6.812  2.3250 -0.4354  0.8651
  138OSM    C4F15075   3.616   5.664   6.881  0.0058  0.1133 -0.1423
  138OSM    H4F15076   3.670   5.747   6.829  1.0445 -1.8761 -2.4801
  138OSM    H4G15077   3.683   5.576   6.895 -0.8372 -0.3181  1.3150
  138OSM    C5F15078   3.564   5.695   7.022  0.6606 -0.6170  0.1306
  138OSM    H5F15079   3.528   5.602   7.070 -1.2895 -0.2323 -0.5077
  138OSM    H5G15080   3.486   5.772   7.004  0.2534 -0.7863  1.1468
  138OSM    C6F15081   3.674   5.762   7.098  0.5719 -0.3453  0.1394
  138OSM    H6F15082   3.702   5.859   7.052  0.9964 -0.7097 -0.3846
  138OSM    H6G15083   3.769   5.705   7.110  2.2840  2.4894  0.9108
  138OSM    C7F15084   3.618   5.804   7.237 -0.1252  0.1697  0.2748
  138OSM    H7F15085   3.534   5.738   7.268  3.4409 -4.5311  1.1130
  138OSM    H7G15086   3.586   5.910   7.237  0.4643  0.3707 -1.1256
  138OSM    C8F15087   3.722   5.796   7.355 -0.3597  0.1258 -0.0454
  138OSM    H8F15088   3.672   5.858   7.433 -1.4709  0.0630 -0.6834
  138OSM    H8G15089   3.803   5.854   7.306 -1.7493  2.0854 -0.1523
  138OSM    C9F15090   3.759   5.653   7.386  0.1177  0.2542  0.1752
  138OSM    H9F15091   3.751   5.583   7.302 -1.4059  2.1967 -1.4222
  138OSM   C10F15092   3.806   5.608   7.501 -0.5053  0.1631 -0.2250
  138OSM   H10F15093   3.832   5.501   7.506  2.6983  0.8786  0.2592
  138OSM   C11F15094   3.835   5.697   7.614 -0.3513 -0.7283  0.0809
  138OSM   H11F15095   3.777   5.791   7.628  2.2721  0.8177  1.3556
  138OSM   H11G15096   3.937   5.736   7.593 -0.7616  0.2524 -0.1102
  138OSM   C12F15097   3.819   5.623   7.754 -0.5245  0.1581  0.6102
  138OSM   H12F15098   3.824   5.512   7.747 -0.6922  0.0690  1.7720
  138OSM   H12G15099   3.719   5.652   7.793 -0.0118  1.1049  1.2578
  138OSM   C13F15100   3.925   5.682   7.850  0.6033 -0.2652 -0.1141
  138OSM   H13F15101   3.921   5.793   7.845  1.6329 -0.2207 -0.2933
  138OSM   H13G15102   4.027   5.647   7.821  0.5312 -2.1819  1.6996
  138OSM   C14F15103   3.888   5.633   7.994 -0.2811 -0.3721 -0.1126
  138OSM   H14F15104   3.874   5.524   8.012  0.3229 -0.5449 -0.6633
  138OSM   H14G15105   3.798   5.685   8.034  1.1545  1.2193  1.1612
  138OSM   C15F15106   3.998   5.702   8.083  0.2980 -0.0218  0.0167
  138OSM   H15F15107   4.008   5.805   8.041  2.0510 -0.6694 -1.2944
  138OSM   H15G15108   4.089   5.656   8.039 -0.6167 -0.1276 -1.8473
  138OSM   C16F15109   3.984   5.690   8.230 -1.1228 -0.3950 -0.4333
  138OSM   H16F15110   3.973   5.587   8.269 -2.2089 -0.6417 -1.3105
  138OSM   H16G15111   3.889   5.741   8.257 -1.3655  0.6268 -2.8610
  138OSM   C17F15112   4.095   5.754   8.313 -0.3490 -0.5016 -0.0460
  138OSM   H17F15113   4.061   5.772   8.418  0.7818 -2.0748  0.6259
  138OSM   H17G15114   4.113   5.853   8.264  1.4537 -2.1149 -2.9177
  138OSM   C18F15115   4.220   5.669   8.311  0.6748 -0.0760  0.3273
  138OSM   H18F15116   4.294   5.712   8.382  0.8379 -2.0321  1.4136
  138OSM   H18G15117   4.265   5.678   8.210  1.7846  0.7191  0.8701
  138OSM   H18H15118   4.184   5.567   8.336  1.7243 -0.6452 -0.4093
  139OSM      N15119   3.429   0.930   6.613  0.6637 -0.4375  0.1073
  139OSM    C1515120   3.508   0.805   6.652 -0.9111  0.1079 -1.1511
  139OSM   H15A15121   3.578   0.830   6.730 -2.6905  1.7041  0.0162
  139OSM   H15B15122   3.567   0.776   6.566 -1.4634 -1.3723 -1.0562
  139OSM   H15C15123   3.441   0.725   6.678 -1.8111  0.6161 -1.8151
  139OSM    C1415124   3.346   0.966   6.734  0.9399 -0.0889 -0.2854
  139OSM   H14A15125   3.289   1.057   6.720  2.3570  0.8218 -0.3218
  139OSM   H14B15126   3.401   0.988   6.824 -1.9922  0.2727  1.5771
  139OSM   H14C15127   3.266   0.895   6.750 -0.7611  1.5671 -1.0884
  139OSM    C1315128   3.518   1.036   6.580  0.2759  0.0039 -0.0699
  139OSM   H13A15129   3.594   1.014   6.506 -0.5460  2.3757 -1.7789
  139OSM   H13B15130   3.574   1.082   6.660  1.3227 -2.0558  0.4452
  139OSM   H13C15131   3.462   1.116   6.533 -2.9575 -2.2501 -0.3571
  139OSM    C1215132   3.343   0.897   6.494 -0.4707 -0.2438  0.7477
  139OSM   H12A15133   3.282   0.984   6.474 -1.9135 -1.2536  0.6434
  139OSM   H12B15134   3.272   0.819   6.517 -0.9365 -0.0542 -0.0129
  139OSM    C1115135   3.414   0.854   6.360 -0.3243 -0.1239 -0.8146
  139OSM   H11A15136   3.497   0.925   6.340 -0.6041  0.0593 -1.3590
  139OSM   H11B15137   3.338   0.854   6.279  0.6638 -0.6705 -1.7661
  139OSM      P15138   3.425   0.607   6.291  0.1221 -0.2492  0.1805
  139OSM    O1315139   3.285   0.624   6.256 -0.4385 -0.4674  0.6415
  139OSM    O1415140   3.514   0.599   6.176  0.3870 -0.4755  0.4578
  139OSM    O1115141   3.445   0.476   6.379  0.6477 -0.1328  0.2968
  139OSM    O1215142   3.479   0.723   6.376 -0.1950 -0.4341  0.0879
  139OSM    C1S15143   3.464   0.481   6.518 -0.8699 -0.4207 -0.2808
  139OSM    H1S15144   3.434   0.577   6.565  1.4422 -2.3544  6.2300
  139OSM    H1T15145   3.574   0.477   6.529 -0.5397  3.2213 -0.7543
  139OSM     NF15146   3.461   0.351   6.728 -0.3405  0.2481 -0.4693
  139OSM    HNF15147   3.547   0.302   6.741 -1.2029 -1.3541 -0.4577
  139OSM    C2S15148   3.400   0.360   6.599  0.6240 -0.2271  0.6183
  139OSM    H2S15149   3.297   0.400   6.611  1.4996  2.7471 -0.8039
  139OSM    C3S15150   3.398   0.226   6.514  0.3092 -0.5008 -0.2968
  139OSM    H3S15151   3.502   0.189   6.505  0.5435 -1.3120  3.6297
  139OSM     O315152   3.337   0.232   6.388 -0.1122 -0.1580  0.1227
  139OSM    HO315153   3.334   0.325   6.365 -0.0803 -0.2382 -0.2140
  139OSM    C4S15154   3.330   0.120   6.594 -0.3325 -0.2172  0.1305
  139OSM    H4S15155   3.229   0.137   6.635 -1.0100 -1.2252 -1.0318
  139OSM    C5S15156   3.384   0.002   6.614  0.0808 -0.3319 -0.2091
  139OSM    H5S15157   3.480  -0.029   6.570 -1.1128 -2.7533 -1.2822
  139OSM    C6S15158   3.327  -0.109   6.697  0.4967  0.2094  0.8948
  139OSM    H6S15159   3.412  -0.164   6.745  0.9732  0.9925  0.9642
  139OSM    H6T15160   3.277  -0.180   6.628  0.2374 -0.3404  1.6279
  139OSM    C7S15161   3.232  -0.068   6.810 -0.6616 -0.1365 -0.1454
  139OSM    H7S15162   3.148  -0.019   6.756 -0.9154  0.0548  0.4162
  139OSM    H7T15163   3.279   0.002   6.883 -0.9240 -1.1175  0.9859
  139OSM    C8S15164   3.179  -0.194   6.886  0.5154  0.3264  0.5722
  139OSM    H8S15165   3.170  -0.276   6.812 -0.1492  0.5395  0.4078
  139OSM    H8T15166   3.076  -0.175   6.925 -0.5640  0.5183 -2.1702
  139OSM    C9S15167   3.267  -0.230   7.005  0.3249 -0.1972 -0.8573
  139OSM    H9S15168   3.373  -0.236   6.975  0.3168  0.8634 -1.1390
  139OSM    H9T15169   3.236  -0.336   7.016 -1.4592  0.4133  0.4193
  139OSM   C10S15170   3.244  -0.145   7.136  0.2316  0.5211  0.2357
  139OSM   H10S15171   3.144  -0.098   7.120  0.3155  0.1808 -1.3840
  139OSM   H10T15172   3.316  -0.060   7.142  0.1482  0.6777 -0.8309
  139OSM   C11S15173   3.257  -0.233   7.264 -0.6807  0.1538 -0.2547
  139OSM   H11S15174   3.364  -0.255   7.286 -0.8319 -0.9456 -0.5442
  139OSM   H11T15175   3.211  -0.328   7.229 -0.5085 -0.1202  0.2357
  139OSM   C12S15176   3.183  -0.184   7.390  0.2985 -0.3424 -0.1829
  139OSM   H12S15177   3.075  -0.195   7.365  0.1673 -0.2927  0.3495
  139OSM   H12T15178   3.220  -0.083   7.418 -1.4675  0.0387  0.8917
  139OSM   C13S15179   3.216  -0.282   7.506  0.0221  0.2822  0.2440
  139OSM   H13S15180   3.325  -0.300   7.515  0.2120  0.8996 -0.6787
  139OSM   H13T15181   3.172  -0.380   7.477 -0.2182  0.8016 -1.2259
  139OSM   C14S15182   3.169  -0.224   7.639 -0.7366 -0.1714 -0.5359
  139OSM   H14S15183   3.063  -0.193   7.625 -0.8784  1.2126  2.7084
  139OSM   H14T15184   3.225  -0.132   7.665  0.6210 -1.2398  0.4867
  139OSM   C15S15185   3.179  -0.329   7.750  0.3481  0.2632 -0.9030
  139OSM   H15S15186   3.275  -0.385   7.755 -1.0804 -2.3074 -0.0622
  139OSM   H15T15187   3.108  -0.406   7.711  1.3231 -0.4279 -1.3825
  139OSM   C16S15188   3.142  -0.289   7.893  0.4709 -0.4079  0.3696
  139OSM   H16S15189   3.036  -0.256   7.899  0.7262  0.3252  1.0970
  139OSM   H16T15190   3.196  -0.195   7.918  0.3009  0.2820 -1.7069
  139OSM   C17S15191   3.175  -0.396   8.000  0.1013 -0.4253  0.0650
  139OSM   H17S15192   3.285  -0.414   7.996  0.0790 -0.4303 -1.0923
  139OSM   H17T15193   3.118  -0.487   7.975  0.7072 -1.5862  2.6561
  139OSM   C18S15194   3.140  -0.365   8.147  0.8601  0.7463  0.0389
  139OSM   H18S15195   3.179  -0.265   8.176 -0.7082  1.1577  0.8889
  139OSM   H18T15196   3.178  -0.440   8.219  1.4150  3.0517  2.3161
  139OSM   H18U15197   3.030  -0.347   8.150  0.9201  1.0314  1.2815
  139OSM    C1F15198   3.449   0.452   6.819 -0.0555 -0.2715 -0.0743
  139OSM     OF15199   3.367   0.543   6.795 -0.1603  0.0816 -0.3203
  139OSM    C2F15200   3.528   0.448   6.945  0.1892 -0.0200  0.3818
  139OSM    H2F15201   3.610   0.522   6.928 -0.6638  0.9910  0.5816
  139OSM    H2G15202   3.570   0.346   6.960  0.1391  0.1354  1.7370
  139OSM    C3F15203   3.443   0.466   7.071 -0.8832  0.1173  0.2852
  139OSM    H3F15204   3.430   0.576   7.084 -0.3575  0.2777 -0.4683
  139OSM    H3G15205   3.507   0.432   7.155 -1.4167 -2.3805 -0.2336
  139OSM    C4F15206   3.314   0.392   7.076 -0.8421 -0.3242 -1.3457
  139OSM    H4F15207   3.269   0.387   6.975  1.2376 -0.9775 -2.2835
  139OSM    H4G15208   3.248   0.447   7.146  0.3791  1.4035 -1.5039
  139OSM    C5F15209   3.329   0.245   7.125 -0.1930 -0.5014  0.6413
  139OSM    H5F15210   3.409   0.207   7.058 -0.1094  4.2928 -2.4061
  139OSM    H5G15211   3.237   0.193   7.091 -1.0833  1.5040 -0.1513
  139OSM    C6F15212   3.354   0.236   7.275  0.0617  0.0388  0.2463
  139OSM    H6F15213   3.406   0.332   7.296 -0.5794  0.5523 -0.4698
  139OSM    H6G15214   3.417   0.145   7.283 -1.5438 -1.3344 -1.7244
  139OSM    C7F15215   3.227   0.220   7.357  0.0690 -0.6080 -0.1521
  139OSM    H7F15216   3.196   0.114   7.348 -0.7215 -0.4841  0.9988
  139OSM    H7G15217   3.147   0.288   7.320  0.8975  0.9887  0.8951
  139OSM    C8F15218   3.252   0.258   7.508  0.4864  0.3211  0.0832
  139OSM    H8F15219   3.275   0.367   7.516  2.5215  0.0718 -1.4643
  139OSM    H8G15220   3.342   0.207   7.547  0.2151  0.1799  0.5309
  139OSM    C9F15221   3.137   0.196   7.579  0.0320  0.1806  0.3711
  139OSM    H9F15222   3.041   0.210   7.529  0.0495 -0.8413  0.0238
  139OSM   C10F15223   3.143   0.124   7.692 -1.4961  0.2295 -0.2394
  139OSM   H10F15224   3.049   0.086   7.734 -2.1237  0.7832 -1.1069
  139OSM   C11F15225   3.262   0.095   7.787  0.0371  0.0215 -0.0211
  139OSM   H11F15226   3.352   0.082   7.723  0.8496  0.1713  1.0631
  139OSM   H11G15227   3.244  -0.007   7.825 -0.9208  0.9936  2.3104
  139OSM   C12F15228   3.286   0.186   7.909  0.0499  0.3736  0.6887
  139OSM   H12F15229   3.196   0.231   7.956 -0.8259 -2.0720  1.5440
  139OSM   H12G15230   3.356   0.266   7.879 -0.3742  0.6755  0.4882
  139OSM   C13F15231   3.350   0.119   8.030 -0.0349 -0.9139  0.5355
  139OSM   H13F15232   3.454   0.096   7.997  0.2664  0.7247  0.2446
  139OSM   H13G15233   3.288   0.028   8.041 -0.5314 -0.7911 -1.0354
  139OSM   C14F15234   3.348   0.203   8.159  0.4045 -0.5752 -0.5402
  139OSM   H14F15235   3.244   0.229   8.188  0.1639 -2.1759  0.1488
  139OSM   H14G15236   3.412   0.292   8.145  1.1297 -0.7337  1.4552
  139OSM   C15F15237   3.411   0.131   8.280  0.0558 -0.1540 -0.5562
  139OSM   H15F15238   3.492   0.062   8.248  2.0647  1.1274  1.4725
  139OSM   H15G15239   3.329   0.075   8.329  0.3971 -0.7022 -0.5991
  139OSM   C16F15240   3.495   0.227   8.372  0.6461  0.1139  0.2544
  139OSM   H16F15241   3.579   0.276   8.318  0.3342  0.5341  0.1433
  139OSM   H16G15242   3.541   0.164   8.451 -0.9324 -2.1423 -0.5075
  139OSM   C17F15243   3.415   0.338   8.443 -0.8730 -0.4903  0.4390
  139OSM   H17F15244   3.338   0.276   8.494 -0.0183 -1.1981  0.8894
  139OSM   H17G15245   3.378   0.407   8.365  2.3039 -1.5231 -2.2049
  139OSM   C18F15246   3.502   0.409   8.547  0.7277  0.6235  0.2403
  139OSM   H18F15247   3.547   0.326   8.605  0.5226 -1.0483 -1.8662
  139OSM   H18G15248   3.434   0.471   8.610  0.5488 -0.4146  1.1158
  139OSM   H18H15249   3.581   0.462   8.491  3.1547 -3.0822 -0.1792
  140OSM      N15250   3.840   1.723   6.047  0.6009 -0.1255  0.1433
  140OSM    C1515251   3.906   1.836   6.124  0.0375 -0.1862 -0.8673
  140OSM   H15A15252   3.915   1.808   6.228  1.8437 -2.0775 -1.4621
  140OSM   H15B15253   3.860   1.933   6.126  2.5382  1.1034 -1.2674
  140OSM   H15C15254   4.010   1.838   6.093 -0.3053  3.4496 -2.2573
  140OSM    C1415255   3.824   1.772   5.903  1.2644 -0.0202  0.0121
  140OSM   H14A15256   3.806   1.691   5.834  1.0646 -0.1223  0.1845
  140OSM   H14B15257   3.909   1.823   5.860 -0.7466  1.0747 -3.0598
  140OSM   H14C15258   3.747   1.847   5.894 -0.2787 -1.2087  2.4454
  140OSM    C1315259   3.937   1.604   6.053 -0.0521 -0.5913  0.1663
  140OSM   H13A15260   4.027   1.629   5.998 -1.3445 -0.7653 -2.1713
  140OSM   H13B15261   3.894   1.515   6.009  0.9908 -1.0727  0.0888
  140OSM   H13C15262   3.957   1.582   6.156 -1.8632 -1.1430  0.4366
  140OSM    C1215263   3.706   1.688   6.104  0.2136 -0.5712 -0.1282
  140OSM   H12A15264   3.670   1.607   6.042 -1.0196  0.6445 -1.0742
  140OSM   H12B15265   3.626   1.755   6.076  0.8061 -1.2468 -4.1487
  140OSM    C1115266   3.702   1.653   6.254 -0.1264 -0.1131  0.3367
  140OSM   H11A15267   3.780   1.576   6.276  2.0744  2.2055  1.1043
  140OSM   H11B15268   3.608   1.596   6.268 -1.3328  0.7637 -3.1186
  140OSM      P15269   3.599   1.861   6.369 -0.0078  0.2454 -0.2175
  140OSM    O1315270   3.647   1.956   6.473 -0.0522  0.0091  0.3447
  140OSM    O1415271   3.552   1.916   6.242  0.3926  0.4214 -0.4684
  140OSM    O1115272   3.492   1.766   6.434  0.0361  0.6986 -0.3226
  140OSM    O1215273   3.714   1.768   6.335  0.1292 -0.4580  0.0748
  140OSM    C1S15274   3.532   1.686   6.548  0.8670 -0.0786 -0.0584
  140OSM    H1S15275   3.641   1.688   6.570  0.6534  0.3556  1.0088
  140OSM    H1T15276   3.509   1.578   6.533 -0.4653  0.1188  0.4897
  140OSM     NF15277   3.514   1.655   6.785  0.2137  0.2063 -0.1013
  140OSM    HNF15278   3.476   1.567   6.811  0.8489 -0.8727 -2.4780
  140OSM    C2S15279   3.449   1.721   6.675 -0.0109  0.1031 -0.5315
  140OSM    H2S15280   3.463   1.830   6.689  1.3226 -0.0751 -0.3268
  140OSM    C3S15281   3.303   1.691   6.652  0.1933  0.6405 -0.4878
  140OSM    H3S15282   3.281   1.582   6.651  2.3926  0.0724  2.0178
  140OSM     O315283   3.259   1.747   6.538  0.4143  0.0224 -0.7218
  140OSM    HO315284   3.340   1.747   6.485  0.5026  0.1862 -0.5876
  140OSM    C4S15285   3.221   1.740   6.771 -0.1898 -0.5682  0.2307
  140OSM    H4S15286   3.204   1.848   6.758 -2.3454 -0.8983 -0.0472
  140OSM    C5S15287   3.162   1.682   6.872  0.3997  0.3285  0.1609
  140OSM    H5S15288   3.180   1.573   6.877  3.8678  0.6145 -2.3835
  140OSM    C6S15289   3.075   1.744   6.979  0.0018  0.2044 -0.4503
  140OSM    H6S15290   2.968   1.714   6.980  0.0764 -0.3940 -3.0453
  140OSM    H6T15291   3.083   1.854   6.961  1.1959  0.2533  0.3119
  140OSM    C7S15292   3.111   1.722   7.129 -0.7281 -0.1812 -0.1397
  140OSM    H7S15293   3.038   1.771   7.196 -0.8842 -1.4236  0.6225
  140OSM    H7T15294   3.206   1.779   7.135 -0.2395 -0.9432 -0.5250
  140OSM    C8S15295   3.143   1.579   7.164 -0.1643 -0.0265 -0.0435
  140OSM    H8S15296   3.234   1.540   7.114 -1.5153 -0.0931 -2.6078
  140OSM    H8T15297   3.054   1.516   7.141 -0.0001 -0.1564 -0.3312
  140OSM    C9S15298   3.169   1.570   7.319 -0.3443 -0.2824  0.3648
  140OSM    H9S15299   3.214   1.665   7.353  0.3528 -0.7486  0.7625
  140OSM    H9T15300   3.231   1.478   7.323 -0.0700 -0.0805  0.7284
  140OSM   C10S15301   3.046   1.551   7.411 -0.2506  1.2400 -0.0538
  140OSM   H10S15302   2.993   1.462   7.369  0.8478  0.1957  0.6868
  140OSM   H10T15303   2.978   1.639   7.418  0.3174  1.6901 -0.1997
  140OSM   C11S15304   3.097   1.525   7.553  0.1886 -0.3177  0.5855
  140OSM   H11S15305   3.137   1.620   7.593 -0.7889 -0.1990  1.3117
  140OSM   H11T15306   3.186   1.459   7.560  0.4208 -0.3128 -1.7219
  140OSM   C12S15307   2.981   1.502   7.653  0.0889 -0.5180  0.1682
  140OSM   H12S15308   2.933   1.411   7.611  0.8175 -1.8484  2.0951
  140OSM   H12T15309   2.904   1.580   7.672  0.5212  0.0099 -0.2235
  140OSM   C13S15310   3.027   1.442   7.784 -0.0560 -0.3824 -0.2964
  140OSM   H13S15311   3.125   1.490   7.805  2.1259 -3.8962 -1.6561
  140OSM   H13T15312   3.064   1.338   7.777  1.5791 -0.0260  1.8572
  140OSM   C14S15313   2.931   1.449   7.908  0.6802  0.1724 -0.2529
  140OSM   H14S15314   2.930   1.554   7.943 -0.2474 -0.4516  1.7109
  140OSM   H14T15315   2.978   1.389   7.989  0.4993 -0.6254 -0.7211
  140OSM   C15S15316   2.793   1.389   7.885  0.3905  0.2262  1.0885
  140OSM   H15S15317   2.806   1.279   7.879 -1.3261 -0.1938  3.5540
  140OSM   H15T15318   2.747   1.419   7.788  1.2396  0.2215  0.6728
  140OSM   C16S15319   2.700   1.436   7.997  0.6465  0.1999  0.3930
  140OSM   H16S15320   2.605   1.381   7.983  2.0315 -2.2671  0.1765
  140OSM   H16T15321   2.680   1.545   7.995  0.5487  0.2247  1.8684
  140OSM   C17S15322   2.753   1.389   8.132 -0.1790  1.1221  0.5056
  140OSM   H17S15323   2.833   1.460   8.163  1.2907 -0.4262  0.3879
  140OSM   H17T15324   2.801   1.289   8.125 -0.3453  1.0828 -0.1120
  140OSM   C18S15325   2.657   1.384   8.246  0.0346 -0.5349  0.0366
  140OSM   H18S15326   2.561   1.338   8.213 -0.1468 -1.3136  1.5864
  140OSM   H18T15327   2.638   1.488   8.279 -2.3785 -0.7870 -0.3393
  140OSM   H18U15328   2.692   1.330   8.336  1.0061  0.6550  0.3861
  140OSM    C1F15329   3.626   1.699   6.838 -0.2224 -0.4716  0.0881
  140OSM     OF15330   3.687   1.799   6.804  0.5642 -0.4104 -0.1275
  140OSM    C2F15331   3.677   1.632   6.955 -0.6802  0.4551  0.2355
  140OSM    H2F15332   3.739   1.710   7.004 -0.2138  2.0837 -2.6910
  140OSM    H2G15333   3.741   1.545   6.932 -1.1316 -0.3945  1.9815
  140OSM    C3F15334   3.569   1.573   7.050  0.1441 -0.6647 -0.2100
  140OSM    H3F15335   3.513   1.481   7.022 -3.3472  0.4148  2.5215
  140OSM    H3G15336   3.484   1.642   7.071 -1.2146 -3.2553  4.1188
  140OSM    C4F15337   3.629   1.542   7.186  0.0285  0.1266  0.0401
  140OSM    H4F15338   3.681   1.629   7.230 -3.2530  2.1730  0.1499
  140OSM    H4G15339   3.709   1.466   7.167 -2.0076 -1.4471 -3.0613
  140OSM    C5F15340   3.524   1.491   7.284  0.2657  0.0683  0.3960
  140OSM    H5F15341   3.491   1.391   7.250 -0.3925  1.3326 -3.0020
  140OSM    H5G15342   3.435   1.557   7.284 -0.6517 -1.0591  2.5690
  140OSM    C6F15343   3.573   1.489   7.429  0.4417 -0.2456 -0.5681
  140OSM    H6F15344   3.652   1.566   7.442  0.4670 -0.1794 -1.1109
  140OSM    H6G15345   3.614   1.388   7.450 -3.1815 -1.3322  2.4008
  140OSM    C7F15346   3.468   1.514   7.535 -0.3766 -0.2998  0.9362
  140OSM    H7F15347   3.392   1.438   7.507 -2.0154  0.9927  1.7573
  140OSM    H7G15348   3.432   1.616   7.511 -2.3168 -1.1468  0.0288
  140OSM    C8F15349   3.517   1.502   7.683  0.7851  0.0101  0.2006
  140OSM    H8F15350   3.426   1.526   7.743  1.4191  1.0643  0.7677
  140OSM    H8G15351   3.595   1.576   7.710  0.3047  1.2772 -1.7250
  140OSM    C9F15352   3.569   1.365   7.730 -0.3115 -0.9865 -0.8740
  140OSM    H9F15353   3.678   1.362   7.736 -0.3418 -3.3825 -0.6999
  140OSM   C10F15354   3.502   1.265   7.794 -0.2577 -0.8175  0.5383
  140OSM   H10F15355   3.554   1.176   7.832 -0.6529 -1.2303  0.1261
  140OSM   C11F15356   3.356   1.262   7.811  0.6095 -0.3117  0.2807
  140OSM   H11F15357   3.323   1.170   7.759 -0.6057  1.0062 -1.4076
  140OSM   H11G15358   3.299   1.350   7.773  0.0513 -1.4602 -1.6817
  140OSM   C12F15359   3.307   1.241   7.956 -0.2663  0.3462  0.5842
  140OSM   H12F15360   3.359   1.153   7.999 -0.3102 -1.7330 -3.1760
  140OSM   H12G15361   3.196   1.233   7.955 -0.2179 -0.3925  0.9592
  140OSM   C13F15362   3.334   1.373   8.043 -0.5193 -0.3104  0.3234
  140OSM   H13F15363   3.293   1.467   8.001  1.2641  0.3656  0.0230
  140OSM   H13G15364   3.444   1.378   8.054 -0.4250 -0.0515 -0.6812
  140OSM   C14F15365   3.269   1.348   8.180  0.6316 -1.6936 -0.7195
  140OSM   H14F15366   3.295   1.243   8.207  3.2887 -0.5400  1.7778
  140OSM   H14G15367   3.160   1.369   8.171  0.8781 -0.7330 -1.7941
  140OSM   C15F15368   3.325   1.452   8.278  0.2338 -0.4274 -0.0418
  140OSM   H15F15369   3.434   1.432   8.289  0.1677 -1.0083 -0.3639
  140OSM   H15G15370   3.280   1.445   8.379 -0.5185 -1.3898 -0.4289
  140OSM   C16F15371   3.316   1.593   8.235 -0.1633 -0.7401 -0.1932
  140OSM   H16F15372   3.217   1.618   8.192 -0.7499 -1.5396  0.6643
  140OSM   H16G15373   3.382   1.614   8.148 -0.1933  0.2365  0.0092
  140OSM   C17F15374   3.336   1.696   8.356 -0.0733  0.0632  0.0178
  140OSM   H17F15375   3.251   1.687   8.427  0.6846  0.9701  1.0828
  140OSM   H17G15376   3.343   1.799   8.315  0.1990 -0.2642 -0.7797
  140OSM   C18F15377   3.454   1.658   8.440 -0.5195  0.8450 -0.4218
  140OSM   H18F15378   3.439   1.557   8.484  2.0179  0.3557 -0.5208
  140OSM   H18G15379   3.474   1.722   8.529  0.2550  1.0900 -0.7672
  140OSM   H18H15380   3.549   1.660   8.383  0.2738 -0.1046  0.8166
  141OSM      N15381   2.314   3.639   6.285  0.1943 -0.6000  0.1314
  141OSM    C1515382   2.191   3.584   6.204 -0.2075 -0.5264 -0.8059
  141OSM   H15A15383   2.226   3.511   6.132  0.6236 -1.5940  0.6233
  141OSM   H15B15384   2.122   3.658   6.167  0.4266 -0.0061 -0.9502
  141OSM   H15C15385   2.130   3.530   6.275  0.9305  0.1998  0.7821
  141OSM    C1415386   2.398   3.723   6.192  0.3448  0.5949 -0.6459
  141OSM   H14A15387   2.496   3.743   6.235 -0.0980 -1.2245  1.3921
  141OSM   H14B15388   2.356   3.815   6.153  0.2547  0.6851 -0.3356
  141OSM   H14C15389   2.422   3.663   6.106  1.5194  0.4534 -0.2374
  141OSM    C1315390   2.267   3.728   6.396  0.2589 -0.0843  0.7596
  141OSM   H13A15391   2.222   3.819   6.360 -2.0707 -1.3489  0.2767
  141OSM   H13B15392   2.343   3.757   6.467  0.8803  1.4696 -0.4648
  141OSM   H13C15393   2.193   3.672   6.451  1.4962  0.6572  3.3111
  141OSM    C1215394   2.391   3.516   6.335  0.3320  0.2783 -0.2854
  141OSM   H12A15395   2.415   3.457   6.248 -0.4551 -0.0883 -0.2639
  141OSM   H12B15396   2.316   3.457   6.387 -2.6874  1.6813 -2.7026
  141OSM    C1115397   2.520   3.540   6.416  0.2750  0.1564 -0.6035
  141OSM   H11A15398   2.550   3.442   6.461  2.3961  0.6443 -0.8388
  141OSM   H11B15399   2.491   3.618   6.489  0.9398 -0.7068  0.6321
  141OSM      P15400   2.741   3.662   6.388 -0.1217 -0.1486 -0.2096
  141OSM    O1315401   2.874   3.614   6.340  0.3497 -0.4296  0.2457
  141OSM    O1415402   2.713   3.802   6.359  0.4152 -0.5710 -0.4282
  141OSM    O1115403   2.730   3.633   6.543  0.2964 -0.1658 -0.1688
  141OSM    O1215404   2.629   3.576   6.331 -0.0810 -0.6354  1.4099
  141OSM    C1S15405   2.838   3.590   6.615  0.9596 -0.8329  0.1738
  141OSM    H1S15406   2.928   3.654   6.605  0.2103  0.5780  1.9835
  141OSM    H1T15407   2.865   3.488   6.582  0.9047 -0.8553  0.1978
  141OSM     NF15408   2.941   3.542   6.832  0.3006 -0.6473  0.7242
  141OSM    HNF15409   2.951   3.465   6.894 -1.8937 -0.2871  1.5867
  141OSM    C2S15410   2.819   3.585   6.771  0.7309 -0.0931  0.7766
  141OSM    H2S15411   2.790   3.691   6.786 -1.8640 -0.5664 -0.3826
  141OSM    C3S15412   2.691   3.506   6.806 -0.3321  0.7784 -0.8358
  141OSM    H3S15413   2.705   3.400   6.774 -1.8872  0.5652 -0.8834
  141OSM     O315414   2.578   3.557   6.745 -0.0834  0.0821 -0.0671
  141OSM    HO315415   2.619   3.599   6.668  1.4418  0.1471  0.7421
  141OSM    C4S15416   2.674   3.494   6.954 -0.3464 -0.5811 -0.2831
  141OSM    H4S15417   2.680   3.388   6.984  0.0213  0.1010  2.2644
  141OSM    C5S15418   2.640   3.580   7.056  0.5714  0.2312 -0.2388
  141OSM    H5S15419   2.625   3.688   7.036 -0.0468  0.4271  1.2044
  141OSM    C6S15420   2.627   3.531   7.193 -0.4156  0.2353 -0.1461
  141OSM    H6S15421   2.670   3.430   7.203 -1.0833 -0.0216  0.1528
  141OSM    H6T15422   2.519   3.527   7.218 -0.0261 -2.2049  1.3855
  141OSM    C7S15423   2.691   3.627   7.298  0.2673 -0.1651  0.0469
  141OSM    H7S15424   2.661   3.734   7.299 -1.5902 -0.6447  1.7247
  141OSM    H7T15425   2.801   3.624   7.305  0.3523  2.7278  1.5142
  141OSM    C8S15426   2.669   3.584   7.447 -0.1057 -0.1316  0.2747
  141OSM    H8S15427   2.718   3.486   7.467  2.3926  1.0860  0.4616
  141OSM    H8T15428   2.562   3.583   7.476 -0.6193  0.8097 -1.4623
  141OSM    C9S15429   2.733   3.687   7.541 -0.4353 -0.3107 -0.2876
  141OSM    H9S15430   2.682   3.782   7.514 -1.2128 -1.0676 -1.5175
  141OSM    H9T15431   2.843   3.682   7.522 -0.2682 -0.7521  0.7063
  141OSM   C10S15432   2.709   3.663   7.693 -0.2462 -0.3315 -0.0098
  141OSM   H10S15433   2.600   3.684   7.705 -0.0626  0.5901  0.1529
  141OSM   H10T15434   2.761   3.740   7.754  0.6362 -1.7368  1.0896
  141OSM   C11S15435   2.735   3.516   7.744  0.4537  0.2780 -0.7881
  141OSM   H11S15436   2.842   3.487   7.746  0.4439  0.2167 -1.1503
  141OSM   H11T15437   2.682   3.445   7.678 -0.5020  1.6605 -1.5495
  141OSM   C12S15438   2.682   3.500   7.892 -0.0436 -0.6840 -0.1252
  141OSM   H12S15439   2.692   3.392   7.918 -0.4718 -1.2490 -2.1663
  141OSM   H12T15440   2.572   3.517   7.896  0.2322  1.2594  0.0975
  141OSM   C13S15441   2.757   3.589   8.000  0.1662  0.7232 -0.3928
  141OSM   H13S15442   2.721   3.690   7.972  0.6176  1.1514  0.5570
  141OSM   H13T15443   2.864   3.576   7.971  0.0856 -1.1712  0.0555
  141OSM   C14S15444   2.736   3.542   8.149 -0.4369  0.0232  0.9315
  141OSM   H14S15445   2.767   3.435   8.149  1.5479  0.5599  1.8607
  141OSM   H14T15446   2.631   3.562   8.180 -0.8122  0.4859 -0.5689
  141OSM   C15S15447   2.835   3.602   8.249  0.2771 -0.7211  0.5074
  141OSM   H15S15448   2.809   3.699   8.297 -0.9371 -0.4833 -0.5834
  141OSM   H15T15449   2.930   3.620   8.193 -0.1872  1.6802  0.3801
  141OSM   C16S15450   2.867   3.506   8.366 -0.7549 -0.4522  0.0949
  141OSM   H16S15451   2.936   3.565   8.429 -2.4561  1.7607  0.0225
  141OSM   H16T15452   2.911   3.411   8.331 -1.1725 -1.8259  2.9685
  141OSM   C17S15453   2.747   3.459   8.452 -0.7321 -0.1961  0.5750
  141OSM   H17S15454   2.791   3.391   8.528 -0.0851 -0.1421  0.2609
  141OSM   H17T15455   2.678   3.391   8.399  1.6857 -0.8598 -1.9594
  141OSM   C18S15456   2.667   3.565   8.518 -0.1596  0.0617 -0.2808
  141OSM   H18S15457   2.595   3.532   8.596  1.3800  2.1843  2.2037
  141OSM   H18T15458   2.603   3.619   8.445 -2.8341 -0.2794  1.6453
  141OSM   H18U15459   2.732   3.644   8.561 -1.1402  1.2791 -0.9555
  141OSM    C1F15460   3.050   3.620   6.822 -0.4301 -0.6881 -0.5990
  141OSM     OF15461   3.030   3.738   6.810 -0.0287  0.3113  0.2389
  141OSM    C2F15462   3.179   3.563   6.838 -0.0038 -0.2999 -0.2126
  141OSM    H2F15463   3.245   3.585   6.751 -0.8081  0.3449 -0.6739
  141OSM    H2G15464   3.174   3.452   6.839  1.2012 -0.3635  1.3547
  141OSM    C3F15465   3.235   3.622   6.971 -0.0642 -0.1157 -0.3391
  141OSM    H3F15466   3.264   3.729   6.980  0.7916 -0.3885  0.2186
  141OSM    H3G15467   3.327   3.563   6.988  1.6754  2.2162 -1.2177
  141OSM    C4F15468   3.149   3.568   7.092 -0.6243 -0.2159 -0.5191
  141OSM    H4F15469   3.155   3.457   7.081 -0.0406 -0.1743 -0.6388
  141OSM    H4G15470   3.044   3.606   7.099 -0.1266  1.1586 -0.1846
  141OSM    C5F15471   3.190   3.617   7.239 -0.6316  0.2234  0.3501
  141OSM    H5F15472   3.300   3.633   7.242 -0.8690  1.7947  2.4194
  141OSM    H5G15473   3.164   3.541   7.315 -1.1919 -1.8265 -1.7663
  141OSM    C6F15474   3.124   3.748   7.282  0.3325 -0.3204  0.1259
  141OSM    H6F15475   3.013   3.753   7.280  0.3797  2.2481  0.2660
  141OSM    H6G15476   3.147   3.827   7.208 -0.1851 -1.3231 -1.1314
  141OSM    C7F15477   3.183   3.798   7.413  0.0813 -0.2724 -1.2122
  141OSM    H7F15478   3.155   3.904   7.429  1.4704  0.5378 -3.7205
  141OSM    H7G15479   3.293   3.806   7.399  0.1302  1.2909 -0.1632
  141OSM    C8F15480   3.144   3.700   7.524  0.3394 -0.5582  0.1482
  141OSM    H8F15481   3.057   3.643   7.486  0.8758 -0.2421 -1.6393
  141OSM    H8G15482   3.116   3.769   7.607  2.3686  1.0334 -0.4176
  141OSM    C9F15483   3.240   3.598   7.582  0.7875 -0.5880  0.2880
  141OSM    H9F15484   3.329   3.579   7.521  0.2909 -0.5240 -0.4738
  141OSM   C10F15485   3.231   3.535   7.702 -0.3287  0.0544 -0.1792
  141OSM   H10F15486   3.305   3.460   7.735  0.3857  1.3151  1.2096
  141OSM   C11F15487   3.124   3.555   7.805  0.1321 -0.2323 -0.3196
  141OSM   H11F15488   3.068   3.460   7.818  1.4587 -0.9355  0.5621
  141OSM   H11G15489   3.056   3.639   7.780 -1.3567 -1.3170 -0.0423
  141OSM   C12F15490   3.176   3.596   7.942 -0.0981 -1.2021  0.1850
  141OSM   H12F15491   3.241   3.508   7.962  2.3430  0.2316 -0.9326
  141OSM   H12G15492   3.092   3.598   8.014 -0.5070 -0.4958 -0.2997
  141OSM   C13F15493   3.250   3.731   7.947  0.0281 -0.3973  0.5967
  141OSM   H13F15494   3.180   3.808   7.909  1.0810  0.0467 -0.4997
  141OSM   H13G15495   3.333   3.735   7.873  1.3105  1.8119  2.0402
  141OSM   C14F15496   3.288   3.771   8.089 -0.3039  0.2514  0.1299
  141OSM   H14F15497   3.337   3.683   8.136 -0.0538  1.4263  2.1882
  141OSM   H14G15498   3.204   3.791   8.159  0.8074  1.3017  1.1979
  141OSM   C15F15499   3.370   3.898   8.102  0.0615 -0.8730  0.3185
  141OSM   H15F15500   3.290   3.973   8.086 -0.2386 -1.5874 -1.8339
  141OSM   H15G15501   3.437   3.890   8.014  1.6233  0.3582  1.3558
  141OSM   C16F15502   3.423   3.910   8.240 -0.0229 -0.2268 -0.2327
  141OSM   H16F15503   3.523   3.864   8.222 -0.1356 -0.3856 -0.4553
  141OSM   H16G15504   3.370   3.844   8.312  1.1989 -1.1271 -0.1309
  141OSM   C17F15505   3.424   4.050   8.297  0.3447 -0.6207 -0.5917
  141OSM   H17F15506   3.490   4.051   8.386  0.9581 -0.8692 -1.0325
  141OSM   H17G15507   3.328   4.087   8.338  1.0057  1.5221 -0.8209
  141OSM   C18F15508   3.481   4.153   8.196 -0.4051 -0.6006 -0.1700
  141OSM   H18F15509   3.588   4.135   8.172 -0.6321  0.6871 -2.4345
  141OSM   H18G15510   3.484   4.260   8.223  1.1220  0.4461 -3.9162
  141OSM   H18H15511   3.428   4.145   8.099 -0.7899 -0.6108  0.0396
  142OSM      N15512   3.763   4.410   6.345 -0.1625  0.4346  0.7273
  142OSM    C1515513   3.724   4.337   6.223  0.2375 -0.2092 -0.4694
  142OSM   H15A15514   3.704   4.231   6.232  0.3128 -0.4102 -2.3836
  142OSM   H15B15515   3.806   4.344   6.154 -0.7725 -0.9194 -1.7898
  142OSM   H15C15516   3.635   4.380   6.180  0.0346  0.0704  0.2041
  142OSM    C1415517   3.895   4.354   6.383  0.0188 -0.3104  0.7750
  142OSM   H14A15518   3.942   4.422   6.452 -0.1963  0.6379  0.0041
  142OSM   H14B15519   3.949   4.331   6.292 -1.5939  2.0489 -0.9055
  142OSM   H14C15520   3.880   4.262   6.438  1.3750 -1.0016  0.0482
  142OSM    C1315521   3.786   4.553   6.306  0.3441 -0.0646  0.4074
  142OSM   H13A15522   3.692   4.591   6.269  0.3064  0.5541  1.1128
  142OSM   H13B15523   3.862   4.568   6.232 -1.1216 -2.9521 -1.9051
  142OSM   H13C15524   3.798   4.607   6.399 -1.8275  0.1383  0.6389
  142OSM    C1215525   3.661   4.388   6.456 -0.2292  0.3769 -0.2503
  142OSM   H12A15526   3.668   4.284   6.483  0.9860 -0.5924 -3.6854
  142OSM   H12B15527   3.563   4.394   6.412  0.0187 -0.0686 -0.8885
  142OSM    C1115528   3.659   4.489   6.578  0.6530 -0.0582  0.1424
  142OSM   H11A15529   3.748   4.488   6.643  1.2783  0.0443 -0.6978
  142OSM   H11B15530   3.580   4.443   6.641  0.1455 -0.4341 -0.7395
  142OSM      P15531   3.488   4.666   6.495 -0.1050 -0.3752  0.0264
  142OSM    O1315532   3.488   4.800   6.426  0.4051 -0.0833  0.3458
  142OSM    O1415533   3.433   4.549   6.424  0.1712 -0.0835  0.2200
  142OSM    O1115534   3.409   4.696   6.627  0.0441  0.0247 -0.2094
  142OSM    O1215535   3.626   4.623   6.534 -0.4081 -0.3311  0.3493
  142OSM    C1S15536   3.412   4.822   6.699  0.2898 -0.0442  0.1204
  142OSM    H1S15537   3.375   4.901   6.630 -1.5497  0.1583  1.2680
  142OSM    H1T15538   3.519   4.840   6.723  1.1502 -1.4837 -2.2836
  142OSM     NF15539   3.284   4.953   6.859  0.0256  0.2404 -0.0911
  142OSM    HNF15540   3.336   5.016   6.917 -3.5209  1.6353  1.9358
  142OSM    C2S15541   3.337   4.818   6.833  0.5302  0.2288 -0.1078
  142OSM    H2S15542   3.257   4.744   6.812  0.8492 -0.9585  2.4672
  142OSM    C3S15543   3.434   4.750   6.942  0.6766 -0.4573 -0.0818
  142OSM    H3S15544   3.528   4.809   6.935  0.1581  0.2918 -0.8335
  142OSM     O315545   3.468   4.623   6.901  0.1400  0.4968 -0.0825
  142OSM    HO315546   3.458   4.641   6.807 -0.8017  0.9450  0.0863
  142OSM    C4S15547   3.382   4.749   7.083 -0.4398 -0.9717 -0.1529
  142OSM    H4S15548   3.312   4.669   7.112  2.0724 -4.3165 -2.5684
  142OSM    C5S15549   3.416   4.834   7.181  0.2941  0.4047  0.2825
  142OSM    H5S15550   3.488   4.917   7.165 -0.5865  0.9838 -0.8387
  142OSM    C6S15551   3.357   4.832   7.320 -0.1592 -0.0256 -0.0380
  142OSM    H6S15552   3.264   4.772   7.327 -1.7795  2.1755 -1.2563
  142OSM    H6T15553   3.334   4.938   7.346 -0.6648  0.0256 -0.6700
  142OSM    C7S15554   3.456   4.778   7.420  0.2475 -0.3741  0.1254
  142OSM    H7S15555   3.555   4.828   7.411  1.2021 -2.4958 -2.1957
  142OSM    H7T15556   3.482   4.671   7.407  1.2283 -0.1280 -0.0407
  142OSM    C8S15557   3.413   4.778   7.566 -0.0832 -0.2125  0.6898
  142OSM    H8S15558   3.329   4.705   7.567 -2.1802  2.0413  0.4895
  142OSM    H8T15559   3.358   4.873   7.587 -0.5618 -0.2954 -0.1298
  142OSM    C9S15560   3.517   4.733   7.670  0.1418 -0.4489  0.2294
  142OSM    H9S15561   3.613   4.787   7.654 -1.2622  1.6802 -1.5774
  142OSM    H9T15562   3.534   4.624   7.657  1.0611 -0.2193 -0.6382
  142OSM   C10S15563   3.486   4.775   7.817 -0.1178 -0.1514 -0.7316
  142OSM   H10S15564   3.389   4.740   7.857  1.1085 -1.4317  1.2779
  142OSM   H10T15565   3.488   4.886   7.820  1.0506 -0.1267 -1.5956
  142OSM   C11S15566   3.592   4.724   7.919  0.4001  0.1620  0.2437
  142OSM   H11S15567   3.693   4.769   7.907  0.1919  0.4429 -0.5408
  142OSM   H11T15568   3.603   4.615   7.899  0.4017  0.6140 -2.5575
  142OSM   C12S15569   3.550   4.734   8.062 -0.1226  0.4659  0.0825
  142OSM   H12S15570   3.439   4.733   8.063 -0.1343  0.6638 -0.4020
  142OSM   H12T15571   3.583   4.834   8.097  1.0393  0.6444 -1.3984
  142OSM   C13S15572   3.593   4.614   8.146 -0.9554  0.2326  0.5336
  142OSM   H13S15573   3.704   4.616   8.151 -0.9693  0.0184  0.9974
  142OSM   H13T15574   3.561   4.515   8.105 -0.4710  0.0441  0.6051
  142OSM   C14S15575   3.534   4.621   8.285  0.0416  0.1105 -0.7892
  142OSM   H14S15576   3.545   4.721   8.332  0.3514 -0.1384 -0.3220
  142OSM   H14T15577   3.596   4.553   8.348 -1.7517  2.1153  3.5627
  142OSM   C15S15578   3.387   4.563   8.292 -0.2351  0.2728  0.0852
  142OSM   H15S15579   3.398   4.467   8.238 -0.3614  1.0729 -1.4123
  142OSM   H15T15580   3.322   4.631   8.233 -0.5965 -0.1427  0.0021
  142OSM   C16S15581   3.340   4.529   8.437 -0.0355 -0.5057  0.0608
  142OSM   H16S15582   3.308   4.626   8.482  0.9575  0.3193 -0.9280
  142OSM   H16T15583   3.417   4.495   8.509  0.7119  0.3817 -0.2941
  142OSM   C17S15584   3.222   4.434   8.436  0.7916  0.1637 -1.0527
  142OSM   H17S15585   3.260   4.330   8.423 -1.2710 -0.6194 -1.1459
  142OSM   H17T15586   3.162   4.469   8.349  0.9935  1.5539 -0.6590
  142OSM   C18S15587   3.130   4.447   8.557  0.0943 -0.0643 -0.1458
  142OSM   H18S15588   3.078   4.544   8.571 -1.0429 -0.4692 -1.3234
  142OSM   H18T15589   3.197   4.423   8.642 -0.6893  0.4594  0.6331
  142OSM   H18U15590   3.044   4.377   8.562 -1.5488  1.7884 -1.0645
  142OSM    C1F15591   3.167   4.993   6.801 -0.4836  0.0155  0.0423
  142OSM     OF15592   3.085   4.923   6.747 -0.1903 -0.0831 -0.1813
  142OSM    C2F15593   3.156   5.141   6.798 -1.0211 -0.5528 -0.3770
  142OSM    H2F15594   3.098   5.175   6.709 -1.1486  0.1368 -0.0329
  142OSM    H2G15595   3.259   5.182   6.788 -0.7811 -1.2200 -0.7217
  142OSM    C3F15596   3.087   5.194   6.920 -0.3941  0.2116 -0.0279
  142OSM    H3F15597   3.156   5.170   7.004  2.5482 -1.2638 -2.6178
  142OSM    H3G15598   2.988   5.146   6.928 -0.1242 -0.3157  0.2106
  142OSM    C4F15599   3.057   5.347   6.932 -0.2971  0.2836  0.3979
  142OSM    H4F15600   2.971   5.360   7.000  0.1462  1.2862  0.7833
  142OSM    H4G15601   3.021   5.388   6.835  1.2174  0.4354 -0.1269
  142OSM    C5F15602   3.182   5.429   6.977  0.0749  0.8539 -0.5994
  142OSM    H5F15603   3.157   5.535   6.954 -1.0872  0.7132 -0.0528
  142OSM    H5G15604   3.267   5.403   6.910  1.3013  3.1313 -0.0295
  142OSM    C6F15605   3.215   5.423   7.124  0.1873  0.3289  0.0391
  142OSM    H6F15606   3.277   5.512   7.147 -2.7554  2.4002  0.5126
  142OSM    H6G15607   3.277   5.337   7.159  0.0470  0.7346  1.3173
  142OSM    C7F15608   3.087   5.428   7.208 -0.0374  0.1093 -0.2307
  142OSM    H7F15609   3.046   5.325   7.210  0.4113 -0.0685  0.7814
  142OSM    H7G15610   3.010   5.488   7.156 -1.1138 -1.3097 -0.3174
  142OSM    C8F15611   3.116   5.466   7.353  0.4081 -0.4932  0.4020
  142OSM    H8F15612   3.208   5.417   7.390  0.9570  0.4899  0.3539
  142OSM    H8G15613   3.031   5.427   7.413  0.7536  1.3485  2.2089
  142OSM    C9F15614   3.135   5.615   7.374 -0.2427  0.3779 -0.0382
  142OSM    H9F15615   3.052   5.681   7.344 -0.5629  0.1979  0.4276
  142OSM   C10F15616   3.247   5.672   7.426 -0.5332 -0.3674  0.0379
  142OSM   H10F15617   3.254   5.781   7.435 -1.4551 -0.0327 -2.3568
  142OSM   C11F15618   3.368   5.601   7.477 -0.1370 -0.2543 -0.4987
  142OSM   H11F15619   3.445   5.578   7.401 -0.6684 -0.9744 -0.8341
  142OSM   H11G15620   3.330   5.503   7.515 -1.5296  0.3920 -0.1349
  142OSM   C12F15621   3.451   5.666   7.588  0.5583 -0.0740  0.1317
  142OSM   H12F15622   3.475   5.772   7.564 -2.0910  0.4941 -0.3826
  142OSM   H12G15623   3.551   5.617   7.591 -0.3476 -2.0888 -0.4027
  142OSM   C13F15624   3.395   5.658   7.729 -0.7429 -0.3933 -0.0191
  142OSM   H13F15625   3.285   5.674   7.734 -0.8054 -1.0699  1.0794
  142OSM   H13G15626   3.435   5.740   7.792 -0.4333  0.0462 -0.7787
  142OSM   C14F15627   3.432   5.524   7.794  0.1471  0.0409 -0.3869
  142OSM   H14F15628   3.540   5.499   7.791 -0.2931 -2.2689  0.7716
  142OSM   H14G15629   3.384   5.448   7.728  0.5565 -0.1132 -0.5126
  142OSM   C15F15630   3.370   5.512   7.935 -0.7824  0.0264  0.9089
  142OSM   H15F15631   3.355   5.402   7.938  0.4255 -0.2278 -0.8172
  142OSM   H15G15632   3.287   5.583   7.953 -1.3175 -0.5141  0.5877
  142OSM   C16F15633   3.479   5.534   8.045  0.2470  0.9988  1.0878
  142OSM   H16F15634   3.513   5.640   8.043  1.0132  0.8277 -2.5545
  142OSM   H16G15635   3.573   5.481   8.019 -0.4276 -0.4630  1.5733
  142OSM   C17F15636   3.435   5.509   8.188  0.7558 -0.2357 -0.6200
  142OSM   H17F15637   3.525   5.539   8.246 -0.2190  1.2679  0.2118
  142OSM   H17G15638   3.404   5.404   8.209  0.3048 -0.2280 -1.2109
  142OSM   C18F15639   3.323   5.605   8.239  0.2055 -0.0912 -0.6850
  142OSM   H18F15640   3.353   5.711   8.221  0.1627 -0.1392 -1.0421
  142OSM   H18G15641   3.311   5.593   8.349 -0.6694  0.2074 -0.7449
  142OSM   H18H15642   3.226   5.583   8.190 -1.1757 -0.4857  2.0462
  143OSM      N15643   5.572   0.994   5.765  0.2405  0.7056 -0.0604
  143OSM    C1515644   5.677   1.018   5.668 -0.1227  0.6455 -0.0412
  143OSM   H15A15645   5.760   0.960   5.707 -1.2737  0.0631  1.6656
  143OSM   H15B15646   5.707   1.121   5.660 -0.6409  0.7861 -0.1625
  143OSM   H15C15647   5.655   0.977   5.571 -1.6006  0.3816  0.3891
  143OSM    C1415648   5.438   1.037   5.714 -0.0410 -0.0438  0.6225
  143OSM   H14A15649   5.352   1.021   5.777 -1.2845 -0.2881 -1.0680
  143OSM   H14B15650   5.412   0.972   5.632 -0.8859  0.8130  0.1998
  143OSM   H14C15651   5.443   1.137   5.674 -2.5081 -0.6936 -1.5388
  143OSM    C1315652   5.571   0.847   5.774  0.5988 -0.3578  0.0711
  143OSM   H13A15653   5.667   0.805   5.797  0.8567  1.0334  1.8015
  143OSM   H13B15654   5.536   0.796   5.685 -0.2738  1.7737 -0.8884
  143OSM   H13C15655   5.497   0.818   5.847 -0.1705 -0.3990 -0.7075
  143OSM    C1215656   5.601   1.053   5.895 -0.6094  0.0956 -0.3618
  143OSM   H12A15657   5.608   1.160   5.890  3.8057 -0.0206 -0.4927
  143OSM   H12B15658   5.703   1.036   5.927 -0.5546  0.3438 -0.4031
  143OSM    C1115659   5.525   1.000   6.021  0.3168 -0.0942 -0.6511
  143OSM   H11A15660   5.578   1.052   6.104 -1.2979  1.5810 -0.6147
  143OSM   H11B15661   5.531   0.889   6.028  1.0875  0.0005  0.4437
  143OSM      P15662   5.269   0.965   6.057  0.1268 -0.2316 -0.4870
  143OSM    O1315663   5.148   1.036   6.009  0.6683  0.4057  0.6479
  143OSM    O1415664   5.289   0.828   6.001  0.5237 -0.2030  0.1807
  143OSM    O1115665   5.253   0.949   6.215 -0.2123  0.1158 -0.1931
  143OSM    O1215666   5.390   1.058   6.032 -0.8099  0.2715 -0.2735
  143OSM    C1S15667   5.227   1.071   6.291 -0.1642 -0.0127 -0.3615
  143OSM    H1S15668   5.133   1.119   6.257  0.0809 -1.0412 -2.6354
  143OSM    H1T15669   5.315   1.139   6.292 -0.0810 -0.1063  1.0390
  143OSM     NF15670   5.121   1.134   6.521  0.0283  0.3114 -0.2388
  143OSM    HNF15671   5.161   1.186   6.596 -1.5621 -0.6831  1.4008
  143OSM    C2S15672   5.206   1.037   6.451  0.5112 -0.2531 -1.0785
  143OSM    H2S15673   5.153   0.939   6.454 -0.0461  0.0662  0.8737
  143OSM    C3S15674   5.344   0.999   6.517  0.2138 -0.2274 -0.2596
  143OSM    H3S15675   5.403   1.092   6.516 -1.0144  0.5815  0.2220
  143OSM     O315676   5.412   0.904   6.441  0.1808 -0.1192  0.6408
  143OSM    HO315677   5.357   0.896   6.363 -0.9709  0.3251  1.3773
  143OSM    C4S15678   5.324   0.955   6.664 -0.5573  0.0675  0.2396
  143OSM    H4S15679   5.313   1.038   6.736 -0.2558  1.6358 -1.4601
  143OSM    C5S15680   5.298   0.825   6.700 -0.3018  0.3561 -0.2333
  143OSM    H5S15681   5.285   0.750   6.622 -0.7913 -2.4322  2.3340
  143OSM    C6S15682   5.270   0.763   6.833  0.1230 -0.4663 -0.2871
  143OSM    H6S15683   5.309   0.659   6.833 -1.2007 -1.0241 -2.3293
  143OSM    H6T15684   5.160   0.754   6.846 -0.2701  1.7721 -1.5952
  143OSM    C7S15685   5.329   0.826   6.963 -0.3758 -0.2451 -0.1362
  143OSM    H7S15686   5.314   0.936   6.964 -1.0679 -0.3238  0.9415
  143OSM    H7T15687   5.439   0.812   6.965  0.1569  2.9327 -1.8775
  143OSM    C8S15688   5.265   0.781   7.092  0.1170 -0.9573  0.4194
  143OSM    H8S15689   5.293   0.674   7.090 -2.2092 -1.6382  0.8319
  143OSM    H8T15690   5.154   0.788   7.088  0.1341 -0.6680  0.4207
  143OSM    C9S15691   5.315   0.851   7.211  0.4008 -0.4621 -0.8357
  143OSM    H9S15692   5.295   0.960   7.204  0.5591 -0.3043  0.7356
  143OSM    H9T15693   5.425   0.840   7.219  0.1693 -1.7884  1.5871
  143OSM   C10S15694   5.238   0.808   7.337  0.8508  0.1789  0.2803
  143OSM   H10S15695   5.239   0.697   7.337 -0.9538  0.1317 -0.3207
  143OSM   H10T15696   5.129   0.820   7.319  0.7136 -3.5773 -2.5032
  143OSM   C11S15697   5.296   0.880   7.457 -0.5655  0.5045  0.2280
  143OSM   H11S15698   5.267   0.987   7.451  0.4074  0.7168 -0.9553
  143OSM   H11T15699   5.406   0.881   7.443 -0.7622 -0.8069 -1.7194
  143OSM   C12S15700   5.266   0.815   7.596  0.3896 -0.0127 -0.5826
  143OSM   H12S15701   5.314   0.891   7.662 -0.5444 -0.3651  0.5472
  143OSM   H12T15702   5.309   0.713   7.610 -0.3393 -0.4629 -1.5047
  143OSM   C13S15703   5.114   0.808   7.631 -0.7993 -0.2274 -0.3558
  143OSM   H13S15704   5.067   0.740   7.557 -1.0063  1.6915 -2.0945
  143OSM   H13T15705   5.076   0.910   7.608 -0.5556  0.5170  2.1780
  143OSM   C14S15706   5.091   0.765   7.777 -0.2391  0.0554  0.5469
  143OSM   H14S15707   5.148   0.674   7.807 -0.8695 -0.2174  0.9379
  143OSM   H14T15708   4.985   0.735   7.791 -0.2114  0.0981  0.8711
  143OSM   C15S15709   5.124   0.869   7.890 -0.0742 -0.8757 -0.0156
  143OSM   H15S15710   5.058   0.957   7.871  1.0858 -0.0891 -0.4793
  143OSM   H15T15711   5.227   0.909   7.879  0.7471 -2.9749 -0.3679
  143OSM   C16S15712   5.094   0.818   8.038  0.2850  0.3797  0.5189
  143OSM   H16S15713   5.138   0.887   8.114 -1.3222  0.1099  1.7539
  143OSM   H16T15714   5.143   0.721   8.061  1.3946  0.9273  0.5617
  143OSM   C17S15715   4.941   0.815   8.076 -0.8841  0.3170 -0.3510
  143OSM   H17S15716   4.889   0.747   8.004 -2.6839  0.8869  0.3416
  143OSM   H17T15717   4.893   0.912   8.052  0.0894  0.9721  0.2918
  143OSM   C18S15718   4.908   0.782   8.220 -0.0846 -0.4733 -0.0565
  143OSM   H18S15719   4.932   0.862   8.293 -0.0536  0.3166 -0.9182
  143OSM   H18T15720   4.954   0.686   8.252  3.2195  1.4521  1.5124
  143OSM   H18U15721   4.798   0.763   8.223 -0.2349 -0.0545 -1.8684
  143OSM    C1F15722   4.998   1.149   6.499  0.3864 -0.6423  0.4370
  143OSM     OF15723   4.937   1.062   6.439 -0.1053 -0.0318 -0.0689
  143OSM    C2F15724   4.939   1.282   6.537 -0.2809  0.0782  0.3961
  143OSM    H2F15725   4.871   1.305   6.452 -1.0325 -3.0280  0.0581
  143OSM    H2G15726   5.019   1.359   6.546  0.1637 -0.0679 -1.8095
  143OSM    C3F15727   4.855   1.275   6.670 -0.7176  0.5244  0.3916
  143OSM    H3F15728   4.779   1.198   6.644 -0.3669  0.2338  0.2144
  143OSM    H3G15729   4.815   1.378   6.678  0.5155  1.1198 -0.6620
  143OSM    C4F15730   4.943   1.245   6.797 -0.7092 -0.0812  0.2360
  143OSM    H4F15731   5.019   1.325   6.801 -2.7603  2.0281 -0.4850
  143OSM    H4G15732   5.000   1.150   6.801  0.3720  0.5366 -0.1061
  143OSM    C5F15733   4.862   1.262   6.926 -0.2380 -0.0681 -0.6472
  143OSM    H5F15734   4.801   1.170   6.943 -0.4688  0.2149  0.0893
  143OSM    H5G15735   4.798   1.352   6.915  2.1705  1.6944 -1.2031
  143OSM    C6F15736   4.947   1.286   7.056 -0.1557  0.5190  0.2645
  143OSM    H6F15737   5.007   1.378   7.040 -0.7320  0.9025  0.2594
  143OSM    H6G15738   5.002   1.193   7.082 -0.9553 -0.2590 -0.7327
  143OSM    C7F15739   4.851   1.313   7.171  0.1311  0.0555  0.0492
  143OSM    H7F15740   4.778   1.230   7.180  0.6536 -0.5444 -1.0044
  143OSM    H7G15741   4.790   1.403   7.146  1.2876  0.8178 -0.0787
  143OSM    C8F15742   4.916   1.346   7.306  0.5653  0.6212 -0.8071
  143OSM    H8F15743   5.001   1.417   7.314  1.1052 -0.1888  1.2112
  143OSM    H8G15744   4.963   1.249   7.333  2.2622  1.8384  0.7867
  143OSM    C9F15745   4.810   1.390   7.408  0.0397  0.1450  0.2955
  143OSM    H9F15746   4.726   1.443   7.363 -1.4662 -1.9672  0.4537
  143OSM   C10F15747   4.818   1.357   7.538  0.5005  0.2671 -0.2060
  143OSM   H10F15748   4.734   1.388   7.603 -0.0346  3.9593 -2.3686
  143OSM   C11F15749   4.929   1.281   7.610 -0.7061  0.6109 -0.2483
  143OSM   H11F15750   5.017   1.345   7.590 -0.2715  0.0235 -0.2363
  143OSM   H11G15751   4.947   1.178   7.572 -0.6492  0.6095 -0.2174
  143OSM   C12F15752   4.908   1.258   7.761  0.1450 -0.0272 -0.3216
  143OSM   H12F15753   4.872   1.353   7.804  2.9432  0.7537  0.5472
  143OSM   H12G15754   5.009   1.251   7.807  1.5934  1.1788 -3.0561
  143OSM   C13F15755   4.828   1.133   7.798  0.0749  0.6983  0.3316
  143OSM   H13F15756   4.893   1.045   7.775  1.0208  1.9054 -1.9804
  143OSM   H13G15757   4.747   1.131   7.722  0.4302  2.3402 -0.1250
  143OSM   C14F15758   4.763   1.141   7.938  0.5571 -0.0150  1.1748
  143OSM   H14F15759   4.710   1.046   7.960 -1.0405  0.1405 -1.4759
  143OSM   H14G15760   4.678   1.213   7.943  1.4715  1.1779  0.1807
  143OSM   C15F15761   4.863   1.186   8.042  0.1133  0.7062  0.1312
  143OSM   H15F15762   4.905   1.286   8.020  1.0997 -0.0198 -1.4605
  143OSM   H15G15763   4.952   1.119   8.041  1.1914  2.0950 -0.9971
  143OSM   C16F15764   4.799   1.171   8.182 -0.1824 -0.0200  0.6475
  143OSM   H16F15765   4.755   1.069   8.192  1.5859 -1.1261 -1.7283
  143OSM   H16G15766   4.720   1.248   8.192  0.1733  0.2730  1.2468
  143OSM   C17F15767   4.900   1.209   8.288  0.4226 -0.6629 -0.3482
  143OSM   H17F15768   4.954   1.303   8.262 -0.8903  0.5843  1.2205
  143OSM   H17G15769   4.971   1.125   8.304  1.7705  0.1795 -1.6211
  143OSM   C18F15770   4.833   1.237   8.420  0.2691  0.2825  0.3601
  143OSM   H18F15771   4.897   1.280   8.501  1.4023 -1.1255  0.2681
  143OSM   H18G15772   4.797   1.142   8.465 -1.8473  1.4634  1.2891
  143OSM   H18H15773   4.751   1.310   8.404 -0.0502 -0.0266  0.5981
  144OSM      N15774   3.874   0.081   6.176 -0.4260 -0.1205  0.4312
  144OSM    C1515775   3.834  -0.023   6.074 -0.0654  0.0232  0.1895
  144OSM   H15A15776   3.916  -0.086   6.045  0.4194  0.9533 -0.5278
  144OSM   H15B15777   3.819   0.021   5.976 -0.0142  0.2747  0.2930
  144OSM   H15C15778   3.748  -0.079   6.108  0.4987 -0.2260  1.2442
  144OSM    C1415779   3.768   0.181   6.198  0.5732 -0.2895 -0.1949
  144OSM   H14A15780   3.678   0.134   6.236 -0.3909  0.3052 -1.6355
  144OSM   H14B15781   3.740   0.234   6.108  2.6247  2.7349  0.8198
  144OSM   H14C15782   3.801   0.263   6.259  1.6430 -0.0356 -1.0734
  144OSM    C1315783   3.882  -0.002   6.302  0.0828  0.7366 -0.7747
  144OSM   H13A15784   3.931   0.053   6.381 -1.7225  1.7947 -0.3204
  144OSM   H13B15785   3.939  -0.093   6.295 -0.5001  0.3712 -0.7732
  144OSM   H13C15786   3.782  -0.020   6.337  0.6954 -0.5739  0.3825
  144OSM    C1215787   4.006   0.145   6.139 -0.2911 -0.3018  0.0200
  144OSM   H12A15788   3.993   0.203   6.049  0.4718  0.9909  0.7004
  144OSM   H12B15789   4.080   0.067   6.129  0.2283  0.3165 -1.2194
  144OSM    C1115790   4.066   0.247   6.242 -0.2511 -0.1516 -0.2503
  144OSM   H11A15791   4.170   0.276   6.213 -0.0102  0.2028  0.9103
  144OSM   H11B15792   4.062   0.220   6.350 -1.4653  0.8545 -0.0316
  144OSM      P15793   4.013   0.478   6.133  0.1073  0.2468  0.1388
  144OSM    O1315794   4.096   0.422   6.019 -0.6667 -0.0519  0.2572
  144OSM    O1415795   3.881   0.540   6.101  0.0376  0.3612  0.2698
  144OSM    O1115796   4.101   0.577   6.207  0.5006 -0.6904  0.0039
  144OSM    O1215797   3.992   0.369   6.249 -0.2107  0.0760  0.5095
  144OSM    C1S15798   4.107   0.596   6.345  0.8024 -0.4421 -0.1606
  144OSM    H1S15799   4.038   0.529   6.402  1.7873 -2.4879 -1.2529
  144OSM    H1T15800   4.094   0.704   6.366  2.2983 -0.2299 -0.2698
  144OSM     NF15801   4.232   0.586   6.547 -0.5835 -0.1095  0.2523
  144OSM    HNF15802   4.260   0.671   6.592 -0.3709 -0.0245 -0.0361
  144OSM    C2S15803   4.246   0.574   6.401 -0.2305 -1.0719 -0.0198
  144OSM    H2S15804   4.279   0.469   6.386 -0.7563 -1.6195  2.2590
  144OSM    C3S15805   4.353   0.672   6.321  0.5051  0.0185 -0.3255
  144OSM    H3S15806   4.311   0.774   6.323  1.0985  0.2643  1.7845
  144OSM     O315807   4.387   0.635   6.187 -0.0847  0.3439 -0.1712
  144OSM    HO315808   4.336   0.561   6.156  1.4077 -0.9133  0.2290
  144OSM    C4S15809   4.478   0.678   6.393  0.9222  0.4775 -0.3921
  144OSM    H4S15810   4.512   0.578   6.424 -1.5072 -0.7598 -1.4349
  144OSM    C5S15811   4.548   0.787   6.431  0.6168  0.3058 -0.1981
  144OSM    H5S15812   4.512   0.887   6.401 -1.7841 -0.3750  0.1693
  144OSM    C6S15813   4.670   0.795   6.515 -0.3226 -0.0113  0.0885
  144OSM    H6S15814   4.737   0.868   6.466 -0.6341  0.5129  0.4345
  144OSM    H6T15815   4.724   0.698   6.520  1.2919  0.7548 -1.5431
  144OSM    C7S15816   4.640   0.845   6.657 -0.4203  0.4546  0.2154
  144OSM    H7S15817   4.588   0.757   6.701  2.2308 -2.3492 -1.7737
  144OSM    H7T15818   4.568   0.929   6.654  0.4120  1.1910  0.2682
  144OSM    C8S15819   4.760   0.860   6.748  0.5832  0.5386 -0.1224
  144OSM    H8S15820   4.822   0.940   6.702 -0.2216  0.7891 -0.7699
  144OSM    H8T15821   4.811   0.761   6.753  0.1494  0.3257  0.1305
  144OSM    C9S15822   4.713   0.899   6.891 -0.3464  0.3940 -0.4900
  144OSM    H9S15823   4.642   0.819   6.923 -1.9955  1.7088 -0.7354
  144OSM    H9T15824   4.661   0.997   6.887 -0.4341  0.2980 -2.2266
  144OSM   C10S15825   4.825   0.890   7.000 -0.6643 -0.0676 -0.1537
  144OSM   H10S15826   4.914   0.946   6.962 -0.0005  0.5519  2.1642
  144OSM   H10T15827   4.865   0.786   7.003  1.5692  0.6802 -1.1881
  144OSM   C11S15828   4.777   0.932   7.137 -1.0719 -0.2535  0.2553
  144OSM   H11S15829   4.696   0.869   7.178  0.9807 -0.6608  4.2011
  144OSM   H11T15830   4.738   1.036   7.139 -0.7927 -0.1362  2.0932
  144OSM   C12S15831   4.892   0.931   7.237 -0.0788  0.0488  0.2949
  144OSM   H12S15832   4.959   1.014   7.204  2.2049 -1.1480  1.6226
  144OSM   H12T15833   4.954   0.838   7.241 -0.8166 -0.4209  0.9012
  144OSM   C13S15834   4.850   0.962   7.388 -0.1633 -0.3670 -0.0199
  144OSM   H13S15835   4.774   1.043   7.393 -0.5371 -0.5679 -1.7885
  144OSM   H13T15836   4.936   1.001   7.446 -0.4379 -0.0343  0.1691
  144OSM   C14S15837   4.793   0.835   7.467  0.3096  0.3755  0.2898
  144OSM   H14S15838   4.854   0.742   7.464 -0.4904 -0.1289 -1.0642
  144OSM   H14T15839   4.698   0.812   7.415  0.0686 -0.6283  1.1325
  144OSM   C15S15840   4.757   0.861   7.612  0.0909 -0.1243 -0.1357
  144OSM   H15S15841   4.707   0.960   7.612 -1.9019 -0.8904 -4.2797
  144OSM   H15T15842   4.846   0.862   7.679 -0.9174  0.9192  1.2262
  144OSM   C16S15843   4.666   0.755   7.671  0.3079  0.1274 -1.0832
  144OSM   H16S15844   4.718   0.659   7.651 -0.0612  0.0090 -1.4843
  144OSM   H16T15845   4.575   0.761   7.608  0.7644  2.9227 -1.6303
  144OSM   C17S15846   4.646   0.776   7.820  0.7842 -0.4709  0.6142
  144OSM   H17S15847   4.622   0.881   7.846 -0.5778 -0.2448 -1.4197
  144OSM   H17T15848   4.745   0.749   7.863  1.0648  1.2119  1.0728
  144OSM   C18S15849   4.544   0.681   7.888  0.0662  0.2376  0.0485
  144OSM   H18S15850   4.580   0.581   7.856  2.4380  1.3154 -0.8843
  144OSM   H18T15851   4.439   0.707   7.864  0.3998  2.5381  0.8696
  144OSM   H18U15852   4.550   0.692   7.998 -2.1718  4.0437 -0.0603
  144OSM    C1F15853   4.189   0.488   6.632  0.3518 -0.8238  0.7965
  144OSM     OF15854   4.177   0.374   6.581 -0.5615 -0.2575 -0.3157
  144OSM    C2F15855   4.164   0.516   6.778 -0.5761 -0.3043  0.3698
  144OSM    H2F15856   4.151   0.627   6.782 -1.6562 -0.3443 -1.1174
  144OSM    H2G15857   4.249   0.484   6.841  0.9526  0.9829 -0.9579
  144OSM    C3F15858   4.034   0.453   6.832 -0.1458  0.5370  0.1540
  144OSM    H3F15859   4.044   0.343   6.823 -1.6729  0.2925  1.0992
  144OSM    H3G15860   3.941   0.485   6.781 -1.6250  1.0877  3.0008
  144OSM    C4F15861   4.030   0.466   6.984 -0.4171 -0.3661 -0.0889
  144OSM    H4F15862   3.997   0.569   7.010  2.7468  0.1942  2.3367
  144OSM    H4G15863   4.128   0.463   7.036  0.7042  0.3125 -2.0656
  144OSM    C5F15864   3.935   0.367   7.056 -0.4914 -0.0964  0.5150
  144OSM    H5F15865   3.986   0.268   7.061  1.0484  0.7307  3.0751
  144OSM    H5G15866   3.839   0.356   7.001 -0.7271  2.1498  0.3641
  144OSM    C6F15867   3.903   0.412   7.203 -0.8005 -0.5941 -0.0532
  144OSM    H6F15868   3.885   0.521   7.199 -0.5548 -0.5792 -1.3588
  144OSM    H6G15869   3.989   0.385   7.267 -1.0183 -2.2134 -0.3878
  144OSM    C7F15870   3.786   0.338   7.274  0.2964 -0.7204  0.6047
  144OSM    H7F15871   3.799   0.228   7.276 -0.5595 -0.8396  0.0062
  144OSM    H7G15872   3.707   0.364   7.200  0.7379  0.3455  0.4761
  144OSM    C8F15873   3.756   0.392   7.417 -0.2852 -0.3986  0.0764
  144OSM    H8F15874   3.725   0.497   7.398 -1.2867 -0.4723  1.1467
  144OSM    H8G15875   3.852   0.403   7.471 -0.7942 -1.0414  1.1613
  144OSM    C9F15876   3.647   0.314   7.491 -0.0385 -0.4216  0.2250
  144OSM    H9F15877   3.586   0.244   7.432  0.9895 -2.0738  1.0484
  144OSM   C10F15878   3.646   0.320   7.622 -0.7100  0.3332 -0.1079
  144OSM   H10F15879   3.578   0.255   7.679  0.0498  0.6825  1.2355
  144OSM   C11F15880   3.725   0.395   7.728  0.0814  0.6666 -0.4150
  144OSM   H11F15881   3.648   0.456   7.779  2.0265 -0.0332  3.7727
  144OSM   H11G15882   3.812   0.452   7.690  0.4156  0.7262  0.4237
  144OSM   C12F15883   3.786   0.295   7.826  0.3866  0.6310 -0.2747
  144OSM   H12F15884   3.838   0.204   7.791 -0.8151 -0.5023  0.7778
  144OSM   H12G15885   3.700   0.246   7.876  1.8260 -1.8623 -0.0950
  144OSM   C13F15886   3.853   0.370   7.938 -0.4888 -0.1970 -0.5686
  144OSM   H13F15887   3.794   0.461   7.958  3.6706  2.7797 -0.4904
  144OSM   H13G15888   3.955   0.407   7.913  0.8706 -2.3154  1.4089
  144OSM   C14F15889   3.855   0.313   8.074  0.3450  0.4835  0.3453
  144OSM   H14F15890   3.755   0.266   8.084  1.3246 -2.1888 -1.3924
  144OSM   H14G15891   3.883   0.392   8.148  0.6805  1.3271 -0.6679
  144OSM   C15F15892   3.957   0.194   8.100  0.6222 -0.4515  0.3854
  144OSM   H15F15893   4.059   0.236   8.088 -0.5734  2.8024  0.4927
  144OSM   H15G15894   3.930   0.115   8.028 -1.9368 -0.9414  1.7494
  144OSM   C16F15895   3.934   0.134   8.238  0.0359  0.2793 -1.1771
  144OSM   H16F15896   3.846   0.067   8.238  1.0144 -1.0779  0.6347
  144OSM   H16G15897   3.900   0.209   8.312 -0.6659  1.3542 -2.5405
  144OSM   C17F15898   4.059   0.068   8.297 -0.4908  0.1205  0.4875
  144OSM   H17F15899   4.035   0.009   8.388  1.1778 -0.4990  0.5627
  144OSM   H17G15900   4.142   0.141   8.313  0.8346 -1.7703  3.0129
  144OSM   C18F15901   4.117  -0.035   8.193 -0.1751  0.0890  0.3226
  144OSM   H18F15902   4.045  -0.118   8.179 -1.2519  1.1244 -0.4512
  144OSM   H18G15903   4.216  -0.066   8.234  0.5298  0.3860 -1.1019
  144OSM   H18H15904   4.131   0.014   8.094 -2.4277 -0.8105 -0.4958
  145SAPE     N15905   6.725   2.148  10.640  0.2569 -1.0052 -0.2844
  145SAPE   HN115906   6.812   2.183  10.594  0.4174 -1.8029 -0.6160
  145SAPE   HN215907   6.719   2.050  10.605  2.9363 -0.8101 -1.5712
  145SAPE   HN315908   6.640   2.196  10.605  0.8333  0.4740  0.2481
  145SAPE   C1215909   6.727   2.176  10.788 -0.4166  0.9211  0.1570
  145SAPE  H12A15910   6.636   2.136  10.839 -0.2240  1.2261  0.7542
  145SAPE  H12B15911   6.719   2.287  10.799  5.2288  1.8429 -1.8100
  145SAPE   C1115912   6.858   2.137  10.864 -0.2092  0.4004  0.4754
  145SAPE  H11A15913   6.873   2.032  10.830  1.9749  0.6799  0.4791
  145SAPE  H11B15914   6.847   2.138  10.975  0.0517 -0.1410  0.5064
  145SAPE     P15915   7.116   2.199  10.868  0.3742 -0.6214 -0.3366
  145SAPE   O1315916   7.153   2.291  10.979 -0.5148 -0.0945  0.2001
  145SAPE   O1415917   7.122   2.058  10.906 -0.1915 -0.7448  0.7517
  145SAPE   O1215918   6.964   2.223  10.818 -0.3386  0.0566  0.1044
  145SAPE   O1115919   7.214   2.233  10.742 -0.4334  0.3828 -0.6727
  145SAPE    C115920   7.206   2.356  10.668 -0.1293  0.4897  0.3691
  145SAPE    HA15921   7.164   2.436  10.733 -2.0594 -2.4514  3.1107
  145SAPE    HB15922   7.310   2.389  10.648 -0.3094  0.9192  0.1269
  145SAPE    C215923   7.115   2.353  10.546  0.2258 -0.0955 -0.3688
  145SAPE    HS15924   7.011   2.361  10.584  0.2282 -0.0216 -0.3770
  145SAPE   O2115925   7.141   2.237  10.466  0.2240 -0.1122  0.2080
  145SAPE   C2115926   7.034   2.176  10.430  0.4598 -0.6694 -0.5094
  145SAPE   O2215927   6.918   2.208  10.464 -0.1109  0.4007  0.4985
  145SAPE   C2215928   7.075   2.067  10.330 -0.0986  0.3666  0.5826
  145SAPE   H2R15929   7.143   2.115  10.257  0.1987 -1.6736 -0.5627
  145SAPE   H2S15930   7.138   1.996  10.387  1.3699 -0.8087 -2.2990
  145SAPE    C315931   7.157   2.483  10.460 -0.7719  0.1438 -0.9462
  145SAPE    HX15932   7.263   2.458  10.438 -0.9181 -0.7483 -0.6606
  145SAPE    HY15933   7.140   2.578  10.516  1.2485  1.3300 -2.2089
  145SAPE   O3115934   7.096   2.488  10.332 -0.0398  0.1401 -0.2653
  145SAPE   C3115935   6.967   2.522  10.340  0.1207  0.3437  0.5128
  145SAPE   O3215936   6.908   2.558  10.437  0.5847 -0.2820 -0.3431
  145SAPE   C3215937   6.912   2.517  10.200  0.0892 -0.3971  0.0933
  145SAPE   H2X15938   6.945   2.416  10.167  1.3779  0.0499 -0.0562
  145SAPE   H2Y15939   6.964   2.596  10.141 -0.7329  0.3712  0.3794
  145SAPE   C2315940   6.945   2.008  10.264 -0.1292  0.0061 -0.3665
  145SAPE   H3R15941   6.908   2.086  10.193 -0.7895  1.5135  1.5440
  145SAPE   H3S15942   6.879   1.984  10.350 -0.4726  0.4608 -0.4990
  145SAPE   C2415943   6.985   1.881  10.186  0.1999  0.1494  0.7928
  145SAPE   H4R15944   6.895   1.848  10.131  1.0542 -0.3049 -0.3750
  145SAPE   H4S15945   7.021   1.796  10.249 -4.3412 -0.3906  3.0697
  145SAPE   C2515946   7.085   1.920  10.086  0.4615 -0.4187 -0.0178
  145SAPE   H5R15947   7.188   1.898  10.120  0.8251  3.1097  1.5109
  145SAPE   C2615948   7.064   1.979   9.967  0.6407 -0.2541  0.5655
  145SAPE   H6R15949   7.150   2.018   9.910  0.9085 -1.8216 -0.1537
  145SAPE   C2715950   6.927   2.013   9.901 -0.0741 -0.2296 -0.2909
  145SAPE   H7R15951   6.936   2.116   9.860 -0.3235 -0.0849  0.0185
  145SAPE   H7S15952   6.847   2.024   9.978  0.8997  1.4746  0.5094
  145SAPE   C2815953   6.883   1.919   9.795  0.4268  0.0150 -0.1884
  145SAPE   H8R15954   6.800   1.861   9.839  0.1789 -1.6430 -2.6417
  145SAPE   C2915955   6.933   1.901   9.674 -0.0927  0.0035 -0.0619
  145SAPE   H9R15956   6.888   1.814   9.624  0.1256 -0.8502  1.1690
  145SAPE  C21015957   7.055   1.981   9.617  0.7546 -0.3869 -0.0540
  145SAPE  H10R15958   7.108   2.043   9.693  1.5971 -1.6621  0.4338
  145SAPE  H10S15959   7.029   2.049   9.533 -0.0288 -1.5417 -0.7809
  145SAPE  C21115960   7.157   1.880   9.579 -0.6246 -0.0332  0.2172
  145SAPE  H11R15961   7.183   1.808   9.659 -2.9013 -2.6787 -1.2626
  145SAPE  C21215962   7.193   1.861   9.451 -0.1572  0.7705 -0.3184
  145SAPE  H12R15963   7.261   1.776   9.436 -0.3902  0.3760  0.7486
  145SAPE  C21315964   7.148   1.932   9.325 -0.1891 -0.1853 -0.9057
  145SAPE  H13R15965   7.038   1.951   9.329 -0.1234  0.5159 -1.9843
  145SAPE  H13S15966   7.157   1.864   9.238  0.4108 -0.8669 -0.3245
  145SAPE  C21415967   7.211   2.061   9.282 -0.4882 -0.1531  0.2580
  145SAPE  H14R15968   7.223   2.131   9.366 -0.2385  1.7819 -1.3326
  145SAPE  C21515969   7.231   2.105   9.154 -0.7663  0.0565 -0.6640
  145SAPE  H15R15970   7.280   2.201   9.131  0.1087 -0.7472 -2.3056
  145SAPE  C21615971   7.194   2.024   9.031 -0.6772  0.4495  0.7098
  145SAPE  H16R15972   7.102   1.963   9.045 -0.3965  0.2553  1.8241
  145SAPE  H16S15973   7.287   1.965   9.024 -0.8017  0.2589  0.6716
  145SAPE  C21715974   7.178   2.107   8.906 -0.3009 -0.7556 -0.7705
  145SAPE  H17R15975   7.255   2.184   8.890 -1.0733  0.5482  1.4574
  145SAPE  H17S15976   7.089   2.173   8.912  1.3944  1.5338  0.7523
  145SAPE  C21815977   7.201   2.013   8.780  0.2468 -0.0908 -0.2020
  145SAPE  H18R15978   7.201   1.912   8.828 -1.4431  0.0101  0.0726
  145SAPE  H18S15979   7.303   2.021   8.736  0.5673 -2.5463 -0.0553
  145SAPE  C21915980   7.089   2.036   8.682 -0.1064  0.4153  0.5984
  145SAPE  H19R15981   7.135   2.016   8.583 -0.6477  0.3981  0.3495
  145SAPE  H19S15982   7.056   2.142   8.674  0.3625  0.6489  1.5930
  145SAPE  C22015983   6.970   1.938   8.704  0.7093 -0.4573 -0.0012
  145SAPE  H20R15984   7.001   1.839   8.663 -1.1423 -0.6535 -1.0842
  145SAPE  H20S15985   6.879   1.960   8.643  1.1837 -5.0730 -2.8759
  145SAPE  H20T15986   6.950   1.938   8.813 -2.0304  0.5013 -0.4198
  145SAPE   C3315987   6.758   2.539  10.192 -0.2497  0.4831 -0.0842
  145SAPE   H3X15988   6.733   2.637  10.237  0.1225 -0.4499  2.2844
  145SAPE   H3Y15989   6.709   2.450  10.235  1.2568 -0.6961 -0.7055
  145SAPE   C3415990   6.702   2.550  10.053  0.1180  0.8311 -0.2169
  145SAPE   H4X15991   6.747   2.631   9.991  1.6525 -0.0062 -0.2702
  145SAPE   H4Y15992   6.592   2.555  10.056 -0.1639 -2.4911 -1.0742
  145SAPE   C3515993   6.736   2.419   9.969 -0.6784  0.0544 -0.2620
  145SAPE   H5X15994   6.712   2.328  10.028  1.1207  0.6914  1.6030
  145SAPE   H5Y15995   6.846   2.414   9.961 -0.3976 -0.0738  2.5458
  145SAPE   C3615996   6.664   2.406   9.839  0.1973 -0.2239  0.4011
  145SAPE   H6X15997   6.627   2.505   9.805  0.9077 -0.2190 -0.3875
  145SAPE   H6Y15998   6.574   2.346   9.863 -0.4813  0.9337  0.7947
  145SAPE   C3715999   6.739   2.321   9.738 -0.2459 -0.1466  0.7167
  145SAPE   H7X16000   6.673   2.258   9.676  0.3899  0.8518 -1.0566
  145SAPE   H7Y16001   6.806   2.243   9.780 -0.5068 -1.5139 -1.2664
  145SAPE   C3816002   6.802   2.420   9.642 -0.5323 -0.1319  0.4298
  145SAPE   H8X16003   6.882   2.479   9.691  0.7897 -0.9471 -0.6842
  145SAPE   H8Y16004   6.727   2.485   9.592  1.3638  0.6523 -1.5552
  145SAPE   C3916005   6.860   2.348   9.519 -0.6549  0.1531 -0.0490
  145SAPE   H9X16006   6.793   2.264   9.490 -0.6526  0.2884 -0.4620
  145SAPE   H9Y16007   6.955   2.302   9.553 -0.6595  0.1873  0.0088
  145SAPE  C31016008   6.877   2.441   9.392 -0.4774  0.3405 -0.3851
  145SAPE  H10X16009   6.950   2.522   9.415  0.4589 -0.6124  0.1127
  145SAPE  H10Y16010   6.784   2.495   9.367  0.7039  2.2512 -0.8502
  145SAPE  C31116011   6.930   2.373   9.269  1.0138  0.1896 -0.2291
  145SAPE  H11X16012   6.849   2.308   9.227 -2.3084  2.4144  2.1573
  145SAPE  H11Y16013   7.018   2.306   9.281  0.8765  0.1161  0.4087
  145SAPE  C31216014   6.957   2.477   9.164 -0.3958 -0.3113  0.1405
  145SAPE  H12X16015   6.974   2.420   9.070  1.5358 -0.1618  0.3455
  145SAPE  H12Y16016   7.054   2.520   9.198  0.4546  0.1880 -2.6666
  145SAPE  C31316017   6.851   2.583   9.134  0.3335 -0.1466  0.3858
  145SAPE  H13X16018   6.837   2.645   9.225 -0.4480 -1.7687  1.4176
  145SAPE  H13Y16019   6.757   2.526   9.119 -0.1574  1.2044 -2.1161
  145SAPE  C31416020   6.876   2.648   8.999  0.2509 -0.1069  0.0535
  145SAPE  H14X16021   6.912   2.573   8.925  0.3955 -1.2207  1.2041
  145SAPE  H14Y16022   6.960   2.719   9.015  0.3368  0.0652 -1.0985
  145SAPE  C31516023   6.751   2.732   8.950 -0.4772  0.0563 -0.1643
  145SAPE  H15X16024   6.708   2.785   9.038  0.6966  0.3032  0.2694
  145SAPE  H15Y16025   6.683   2.650   8.919  1.1055 -0.7029 -1.8045
  145SAPE  C31616026   6.788   2.832   8.834  0.3614 -0.4795 -0.2442
  145SAPE  H16X16027   6.694   2.873   8.790  0.7320  2.4770  1.4334
  145SAPE  H16Y16028   6.853   2.780   8.760 -0.1055 -2.9033  0.9444
  145SAPE  C31716029   6.844   2.964   8.874  0.6590  1.3410  0.0486
  145SAPE  H17X16030   6.926   2.945   8.947  0.1940 -2.7543 -0.2652
  145SAPE  H17Y16031   6.765   3.028   8.918  0.0782 -0.0430  1.1034
  145SAPE  C31816032   6.913   3.039   8.754 -0.6678 -0.1238 -0.3722
  145SAPE  H18X16033   6.984   2.967   8.709 -0.4798  0.1925 -0.5920
  145SAPE  H18Y16034   6.964   3.131   8.790  0.4311 -0.6566 -0.5250
  145SAPE  H18Z16035   6.835   3.074   8.683  1.0882  0.9623 -1.8657
  146SAPE     N16036   5.988   3.491  10.815 -0.3656 -0.2719  0.0931
  146SAPE   HN116037   6.071   3.513  10.874 -1.2307  0.0981  1.2215
  146SAPE   HN216038   5.955   3.393  10.824  1.4155 -1.0885 -1.6436
  146SAPE   HN316039   6.015   3.500  10.715 -0.3185 -0.7052  0.0681
  146SAPE   C1216040   5.889   3.592  10.863  0.0382 -0.1160  0.7053
  146SAPE  H12A16041   5.930   3.640  10.954 -0.7196 -0.0850  1.0355
  146SAPE  H12B16042   5.795   3.539  10.890 -1.7897  1.9371 -1.1692
  146SAPE   C1116043   5.846   3.694  10.754 -0.1188 -0.5037  0.5901
  146SAPE  H11A16044   5.777   3.764  10.807 -1.4765 -0.7926 -0.7369
  146SAPE  H11B16045   5.772   3.643  10.689 -0.5871 -2.6980  2.6772
  146SAPE     P16046   6.016   3.884  10.692 -0.0687 -0.0020  0.0862
  146SAPE   O1316047   5.924   3.952  10.786 -0.3095 -0.5546 -0.1801
  146SAPE   O1416048   6.160   3.886  10.725  0.2053 -0.2979 -0.9096
  146SAPE   O1216049   5.955   3.741  10.676  0.1228 -0.4007  0.8184
  146SAPE   O1116050   5.995   3.944  10.543 -0.4114 -0.3572 -0.1812
  146SAPE    C116051   5.892   3.918  10.454 -0.4295 -0.3872  0.3201
  146SAPE    HA16052   5.792   3.906  10.502 -0.8444  1.1766 -0.0862
  146SAPE    HB16053   5.880   4.000  10.380 -1.3823 -1.7019 -1.0533
  146SAPE    C216054   5.917   3.791  10.368 -0.2693 -0.2738 -0.1696
  146SAPE    HS16055   5.953   3.712  10.437 -0.2614  0.9085  1.2372
  146SAPE   O2116056   6.014   3.816  10.267 -0.2239  0.4373 -0.7193
  146SAPE   C2116057   6.112   3.731  10.253  0.5525  0.4973  0.4898
  146SAPE   O2216058   6.121   3.624  10.311  0.6055  0.0674  0.1226
  146SAPE   C2216059   6.190   3.772  10.127  0.3300 -0.2229  0.5872
  146SAPE   H2R16060   6.132   3.763  10.033 -0.0826  2.5012  0.4947
  146SAPE   H2S16061   6.213   3.880  10.137  0.1734 -0.3074  2.1489
  146SAPE    C316062   5.788   3.741  10.305  0.5281 -0.2610 -0.1784
  146SAPE    HX16063   5.747   3.818  10.236 -0.2867  0.2458  0.8449
  146SAPE    HY16064   5.710   3.712  10.380  2.5021 -4.0617  0.6714
  146SAPE   O3116065   5.807   3.630  10.209  0.4181  0.1637 -0.4583
  146SAPE   C3116066   5.820   3.512  10.262 -0.1405 -0.1904 -0.2177
  146SAPE   O3216067   5.806   3.480  10.379 -0.5396 -0.0118  0.9069
  146SAPE   C3216068   5.869   3.422  10.148 -0.0128 -0.4837 -0.3252
  146SAPE   H2X16069   5.952   3.470  10.093 -0.8112 -0.7201 -1.7899
  146SAPE   H2Y16070   5.784   3.424  10.077  0.8995 -0.5096 -1.4508
  146SAPE   C2316071   6.332   3.701  10.113 -0.3926 -0.3316  0.0114
  146SAPE   H3R16072   6.327   3.590  10.111  3.6142 -0.6828  0.4402
  146SAPE   H3S16073   6.403   3.726  10.195  0.6643  0.5918 -1.1351
  146SAPE   C2416074   6.403   3.747   9.988 -0.1193  0.0505 -0.5043
  146SAPE   H4R16075   6.347   3.712   9.899  0.5760 -0.9651 -0.5639
  146SAPE   H4S16076   6.503   3.698   9.987  0.1532  0.5787 -2.2340
  146SAPE   C2516077   6.431   3.892   9.986  0.2182 -0.9267  0.7182
  146SAPE   H5R16078   6.467   3.937  10.079  0.6856  0.9571 -0.3268
  146SAPE   C2616079   6.437   3.965   9.870  0.4151  0.1421 -0.2112
  146SAPE   H6R16080   6.454   4.074   9.878 -1.8976  0.4836  1.0263
  146SAPE   C2716081   6.414   3.909   9.731 -0.2655 -0.1238 -0.0285
  146SAPE   H7R16082   6.414   3.997   9.664  0.5329  0.7566  1.0732
  146SAPE   H7S16083   6.316   3.857   9.726 -0.4361  0.2483 -0.5909
  146SAPE   C2816084   6.522   3.810   9.682 -0.3426 -0.0944 -0.4224
  146SAPE   H8R16085   6.575   3.761   9.765  0.8064  1.5425 -0.1202
  146SAPE   C2916086   6.548   3.763   9.565 -0.8818 -0.7059  0.3610
  146SAPE   H9R16087   6.637   3.699   9.557  0.1026  0.7425 -0.9147
  146SAPE  C21016088   6.492   3.811   9.430  0.9386  0.1499  1.0225
  146SAPE  H10R16089   6.576   3.805   9.358  1.6024 -1.1803  1.8712
  146SAPE  H10S16090   6.468   3.919   9.438  1.6590  0.5192 -1.1780
  146SAPE  C21116091   6.357   3.747   9.390  0.2767 -0.1616 -0.5158
  146SAPE  H11R16092   6.312   3.683   9.468  0.9167  0.3876  0.3262
  146SAPE  C21216093   6.268   3.778   9.293  0.0531  0.0738  0.0006
  146SAPE  H12R16094   6.178   3.715   9.280  0.0795 -0.2392  1.2109
  146SAPE  C21316095   6.287   3.890   9.197  0.7412 -0.9025 -0.2280
  146SAPE  H13R16096   6.269   3.861   9.091 -1.9999  0.7024 -0.2984
  146SAPE  H13S16097   6.392   3.929   9.192  0.2629  0.5391  0.3400
  146SAPE  C21416098   6.196   4.005   9.215 -0.4274  0.2034 -0.8657
  146SAPE  H14R16099   6.195   4.042   9.319 -0.5865 -2.1834  0.0564
  146SAPE  C21516100   6.107   4.064   9.139 -0.7705 -0.2517  0.2544
  146SAPE  H15R16101   6.048   4.145   9.184 -0.0611  0.3547  0.1002
  146SAPE  C21616102   6.075   4.041   8.992 -0.0420 -0.1083 -0.2793
  146SAPE  H16R16103   6.087   3.930   8.984 -0.3198 -0.3913  2.3035
  146SAPE  H16S16104   6.144   4.101   8.929  1.5943 -1.9590 -0.3661
  146SAPE  C21716105   5.932   4.079   8.936 -0.1833  0.6979  0.2929
  146SAPE  H17R16106   5.910   4.187   8.946  0.9617  0.8421  1.6225
  146SAPE  H17S16107   5.865   4.024   9.005  0.5883  0.3653  0.7979
  146SAPE  C21816108   5.915   4.015   8.797 -0.3131 -1.0199  0.0204
  146SAPE  H18R16109   5.972   3.919   8.795 -1.3299 -1.6281 -1.1281
  146SAPE  H18S16110   5.959   4.072   8.713 -1.5923  2.0758  1.2915
  146SAPE  C21916111   5.769   4.004   8.761 -0.2778 -0.3277 -0.7911
  146SAPE  H19R16112   5.718   3.929   8.826 -2.5928  0.2202 -1.8907
  146SAPE  H19S16113   5.768   3.961   8.659  0.4241 -1.5173 -0.3181
  146SAPE  C22016114   5.688   4.134   8.764 -0.8458  0.5637 -0.3369
  146SAPE  H20R16115   5.727   4.216   8.701  0.6780 -0.1901 -0.4058
  146SAPE  H20S16116   5.653   4.166   8.865 -0.6813  0.0953 -0.1263
  146SAPE  H20T16117   5.598   4.099   8.709 -1.5591 -2.7848  2.5736
  146SAPE   C3316118   5.891   3.277  10.195  0.1141  0.1772  0.6098
  146SAPE   H3X16119   5.818   3.253  10.274 -0.7566 -0.0630 -0.2513
  146SAPE   H3Y16120   5.991   3.266  10.243  1.2374 -0.1536 -1.6706
  146SAPE   C3416121   5.884   3.179  10.067  0.2514  1.1266  0.5214
  146SAPE   H4X16122   5.947   3.235   9.994 -0.9140  1.1164 -0.5090
  146SAPE   H4Y16123   5.791   3.137  10.023  2.4344 -4.4305  0.3664
  146SAPE   C3516124   5.959   3.048  10.086  0.2658  0.1090 -0.0878
  146SAPE   H5X16125   5.905   3.001  10.171 -0.1599 -2.8856 -1.8791
  146SAPE   H5Y16126   6.066   3.052  10.116 -0.1697 -0.1953  1.6288
  146SAPE   C3616127   5.961   2.955   9.965  0.4278 -0.0546 -0.2911
  146SAPE   H6X16128   5.861   2.912   9.944 -1.0327  2.8776  0.2388
  146SAPE   H6Y16129   6.023   2.867   9.993  0.3034  0.0697  0.3795
  146SAPE   C3716130   6.018   3.020   9.831  0.5729  0.1217  0.0596
  146SAPE   H7X16131   6.115   3.065   9.861  1.0495 -0.8702  0.0383
  146SAPE   H7Y16132   5.958   3.108   9.797  0.4820  0.3591  0.8135
  146SAPE   C3816133   6.032   2.921   9.700 -0.5808 -0.7345 -0.0798
  146SAPE   H8X16134   5.930   2.901   9.660  0.3097  0.0016 -2.9098
  146SAPE   H8Y16135   6.076   2.831   9.747 -1.2715 -0.7776  0.5128
  146SAPE   C3916136   6.101   2.983   9.571 -0.0629  1.0475 -0.2845
  146SAPE   H9X16137   6.203   3.020   9.595  1.1816 -1.9611 -0.5080
  146SAPE   H9Y16138   6.030   3.060   9.535 -3.1118 -1.6710 -0.6002
  146SAPE  C31016139   6.118   2.874   9.467 -0.0068 -0.1468 -0.5683
  146SAPE  H10X16140   6.036   2.800   9.457 -1.3331  1.1411  0.3783
  146SAPE  H10Y16141   6.211   2.818   9.492 -0.1175 -0.4010 -0.7205
  146SAPE  C31116142   6.155   2.926   9.325 -0.5189  0.5265  0.1433
  146SAPE  H11X16143   6.066   2.983   9.291  0.1446  2.4210  1.3812
  146SAPE  H11Y16144   6.167   2.835   9.263 -0.5141  0.9950 -0.5563
  146SAPE  C31216145   6.292   2.999   9.319  0.4303 -0.1848  0.2683
  146SAPE  H12X16146   6.375   2.924   9.318 -0.3069 -1.0538 -1.9062
  146SAPE  H12Y16147   6.294   3.069   9.404 -1.8120 -0.9504  1.0231
  146SAPE  C31316148   6.303   3.105   9.206  1.1471 -0.1971 -0.8617
  146SAPE  H13X16149   6.296   3.064   9.103  0.2372 -0.5807 -0.6573
  146SAPE  H13Y16150   6.404   3.150   9.216  2.5922 -2.9126 -2.1464
  146SAPE  C31416151   6.196   3.211   9.218  0.5068  0.1194  0.5269
  146SAPE  H14X16152   6.218   3.274   9.307 -0.2123  0.3160  0.5673
  146SAPE  H14Y16153   6.092   3.174   9.228  0.4914 -0.3667 -1.1352
  146SAPE  C31516154   6.195   3.315   9.107 -0.2934 -0.4218 -0.2974
  146SAPE  H15X16155   6.164   3.269   9.011 -1.8284  2.3081 -1.2164
  146SAPE  H15Y16156   6.293   3.362   9.087 -0.5029 -0.3962 -1.3081
  146SAPE  C31616157   6.086   3.414   9.144  0.3572  0.4812  0.1514
  146SAPE  H16X16158   6.103   3.467   9.240 -0.9026 -0.2670  0.7986
  146SAPE  H16Y16159   5.994   3.353   9.151  0.3042  0.5535  0.0949
  146SAPE  C31716160   6.073   3.523   9.027 -0.6985  0.0342 -0.4690
  146SAPE  H17X16161   6.038   3.474   8.934  0.3103 -0.5483 -0.5536
  146SAPE  H17Y16162   6.169   3.565   8.992 -0.4192  0.7337  1.0727
  146SAPE  C31816163   5.969   3.631   9.058  0.2270  0.5867  0.0445
  146SAPE  H18X16164   5.969   3.707   8.977 -0.1974  1.5854  0.9565
  146SAPE  H18Y16165   6.000   3.680   9.153  0.5399 -2.5091  1.6671
  146SAPE  H18Z16166   5.869   3.589   9.083  0.4198  0.7495  1.1760
  147SAPE     N16167   1.281   6.114  10.925  0.7526 -0.3534 -0.2892
  147SAPE   HN116168   1.265   6.011  10.919  2.3211 -0.5574 -1.9180
  147SAPE   HN216169   1.376   6.119  10.967  0.3569 -2.2113  0.9639
  147SAPE   HN316170   1.214   6.144  10.999 -2.4155 -0.0302 -3.0509
  147SAPE   C1216171   1.259   6.187  10.797  0.9884  0.1212  0.7912
  147SAPE  H12A16172   1.150   6.194  10.778  1.3998  1.1314 -1.5849
  147SAPE  H12B16173   1.294   6.117  10.719 -2.4174 -0.7404 -0.1362
  147SAPE   C1116174   1.321   6.324  10.786  0.3961 -0.7571  0.3770
  147SAPE  H11A16175   1.286   6.362  10.688 -2.0303  0.2023  1.5390
  147SAPE  H11B16176   1.431   6.309  10.793  0.4560 -0.0639  1.0494
  147SAPE     P16177   1.363   6.523  10.961 -0.1219 -0.0390  0.2521
  147SAPE   O1316178   1.267   6.598  11.052 -0.1269  0.1215 -0.1961
  147SAPE   O1416179   1.487   6.451  11.019 -0.3113  0.1953  0.2334
  147SAPE   O1216180   1.267   6.415  10.889 -0.5974  0.1609  0.2875
  147SAPE   O1116181   1.414   6.606  10.833  0.1479 -1.1408 -0.0239
  147SAPE    C116182   1.342   6.646  10.720  0.2566 -0.1769 -0.0701
  147SAPE    HA16183   1.267   6.569  10.692  2.9672 -3.2631  0.5780
  147SAPE    HB16184   1.296   6.746  10.736  0.2967  0.0263 -1.1633
  147SAPE    C216185   1.438   6.675  10.602 -0.0592  0.2946 -0.2150
  147SAPE    HS16186   1.378   6.745  10.538 -0.9313 -0.1909  0.0526
  147SAPE   O2116187   1.465   6.549  10.530 -0.3927  0.7589 -0.0025
  147SAPE   C2116188   1.451   6.559  10.399 -0.0570  0.2253  1.1177
  147SAPE   O2216189   1.452   6.661  10.336 -0.3395 -0.6779  0.2944
  147SAPE   C2216190   1.446   6.424  10.328 -0.7456  1.0914 -0.3650
  147SAPE   H2R16191   1.550   6.385  10.341 -1.0903 -0.0695 -0.9398
  147SAPE   H2S16192   1.383   6.352  10.383 -1.2254  1.1158 -0.8762
  147SAPE    C316193   1.569   6.744  10.655 -0.1847 -0.6378  0.4682
  147SAPE    HX16194   1.602   6.682  10.742 -0.4589 -0.4572  0.7028
  147SAPE    HY16195   1.550   6.847  10.691 -0.1817 -0.2910 -0.4957
  147SAPE   O3116196   1.675   6.742  10.560 -0.0315 -0.2032  0.3164
  147SAPE   C3116197   1.679   6.843  10.483  0.4977 -0.0429  0.7312
  147SAPE   O3216198   1.597   6.931  10.466  0.4278  0.0499 -0.5498
  147SAPE   C3216199   1.803   6.839  10.391  0.2432  0.1393 -0.3787
  147SAPE   H2X16200   1.893   6.880  10.440 -0.5792  1.9431 -0.3241
  147SAPE   H2Y16201   1.781   6.916  10.314 -0.1914  0.8216  0.4216
  147SAPE   C2316202   1.419   6.423  10.173  0.6932 -0.3408  0.0365
  147SAPE   H3R16203   1.325   6.479  10.156  1.5015  0.1069 -4.1546
  147SAPE   H3S16204   1.402   6.318  10.140  1.4946 -0.5743  0.3483
  147SAPE   C2416205   1.531   6.498  10.088 -0.0676 -0.0724 -0.4427
  147SAPE   H4R16206   1.630   6.447  10.091  1.2548  2.3577  2.9998
  147SAPE   H4S16207   1.546   6.600  10.129 -0.3604  0.4907 -1.6625
  147SAPE   C2516208   1.477   6.512   9.948  0.0694 -0.6799  0.2268
  147SAPE   H5R16209   1.392   6.580   9.934  0.8230 -0.2317 -2.6029
  147SAPE   C2616210   1.529   6.467   9.838  0.5127 -0.0909 -0.2371
  147SAPE   H6R16211   1.480   6.492   9.742 -2.8577 -1.0717  1.0784
  147SAPE   C2716212   1.655   6.383   9.826  0.4444 -0.8651 -1.0204
  147SAPE   H7R16213   1.634   6.276   9.844 -3.4870  0.3593  3.8616
  147SAPE   H7S16214   1.727   6.402   9.909  0.1074  2.9791 -1.4348
  147SAPE   C2816215   1.731   6.419   9.705 -0.5826  0.2475  0.4086
  147SAPE   H8R16216   1.820   6.481   9.723  1.3394 -1.6720 -1.7251
  147SAPE   C2916217   1.699   6.396   9.576  0.9755  0.3400 -0.7764
  147SAPE   H9R16218   1.772   6.424   9.499  0.3605 -0.1334 -1.5492
  147SAPE  C21016219   1.583   6.317   9.521 -0.7178 -0.2239 -0.1640
  147SAPE  H10R16220   1.517   6.390   9.469  2.2765  2.6388 -0.2711
  147SAPE  H10S16221   1.524   6.282   9.608  0.2218  0.4046  0.7476
  147SAPE  C21116222   1.616   6.203   9.422  0.0587 -0.0579  0.0267
  147SAPE  H11R16223   1.693   6.132   9.454 -1.4732 -1.0663  1.6600
  147SAPE  C21216224   1.570   6.194   9.296  0.5594 -0.2725  0.1526
  147SAPE  H12R16225   1.577   6.096   9.248 -2.8430  0.0686 -1.3086
  147SAPE  C21316226   1.468   6.287   9.224 -0.1164  0.2395 -0.2550
  147SAPE  H13R16227   1.488   6.392   9.256 -1.4873  1.0918 -2.0224
  147SAPE  H13S16228   1.366   6.276   9.269 -0.2610  0.4503 -0.5281
  147SAPE  C21416229   1.456   6.276   9.067  0.0668 -0.7811 -0.0557
  147SAPE  H14R16230   1.380   6.202   9.037 -0.3315 -0.3911 -0.0206
  147SAPE  C21516231   1.520   6.346   8.973 -0.7997 -0.1397  0.2009
  147SAPE  H15R16232   1.501   6.343   8.864 -0.3620  0.4848  0.0989
  147SAPE  C21616233   1.634   6.443   9.005  0.4577 -0.0155 -0.1264
  147SAPE  H16R16234   1.655   6.450   9.114  0.6418 -2.0207  0.0047
  147SAPE  H16S16235   1.621   6.547   8.967  2.4952  0.4971  0.4567
  147SAPE  C21716236   1.755   6.399   8.928 -0.0344 -0.4402 -0.4886
  147SAPE  H17R16237   1.785   6.297   8.959  0.6436 -0.0347  0.2575
  147SAPE  H17S16238   1.841   6.464   8.957  0.5604 -0.9915 -0.9717
  147SAPE  C21816239   1.733   6.397   8.777  0.0594 -0.0663 -0.5892
  147SAPE  H18R16240   1.654   6.323   8.754 -1.7416  1.5313  0.1274
  147SAPE  H18S16241   1.821   6.362   8.721  1.1281  3.0873 -1.1175
  147SAPE  C21916242   1.686   6.525   8.710  0.0983 -0.0649  0.3146
  147SAPE  H19R16243   1.582   6.551   8.739 -0.1766  0.6703 -1.2394
  147SAPE  H19S16244   1.684   6.495   8.603  0.9923 -1.6899  0.7181
  147SAPE  C22016245   1.787   6.634   8.703  0.3575  0.7661 -0.4009
  147SAPE  H20R16246   1.763   6.722   8.640 -0.4416 -0.0951 -1.3592
  147SAPE  H20S16247   1.888   6.591   8.685 -0.1145 -1.0848  1.0760
  147SAPE  H20T16248   1.806   6.664   8.808 -0.6064  0.2332 -0.0602
  147SAPE   C3316249   1.833   6.701  10.334 -0.0672 -0.2784  0.0370
  147SAPE   H3X16250   1.741   6.650  10.297 -0.3563 -0.5579  1.1036
  147SAPE   H3Y16251   1.866   6.646  10.424 -0.7693 -0.9422 -0.0962
  147SAPE   C3416252   1.947   6.720  10.225  0.6204  0.8490 -0.3388
  147SAPE   H4X16253   1.993   6.619  10.217  1.5400  1.1009  1.2371
  147SAPE   H4Y16254   2.027   6.784  10.268  0.2394  0.8675  0.3658
  147SAPE   C3516255   1.903   6.773  10.090 -0.4816 -0.2806 -0.5437
  147SAPE   H5X16256   1.900   6.885  10.091  1.8436 -0.0230 -3.9286
  147SAPE   H5Y16257   1.799   6.736  10.082 -0.0683 -2.0412  1.3313
  147SAPE   C3616258   1.995   6.726   9.971  0.3387 -0.2185  0.6022
  147SAPE   H6X16259   1.998   6.615   9.968  3.1304 -0.1964  0.1277
  147SAPE   H6Y16260   2.098   6.766   9.979  0.1905  0.6671 -1.3111
  147SAPE   C3716261   1.935   6.762   9.832 -0.2590 -0.1985  0.2994
  147SAPE   H7X16262   1.934   6.870   9.809  1.3042 -0.3988 -0.8879
  147SAPE   H7Y16263   1.829   6.729   9.827  0.2398 -1.7118 -2.0598
  147SAPE   C3816264   2.009   6.693   9.717  0.7277 -0.2674  0.4310
  147SAPE   H8X16265   2.021   6.584   9.733  0.1157 -0.3177  0.5571
  147SAPE   H8Y16266   2.106   6.746   9.703 -1.1324  2.7458 -2.4747
  147SAPE   C3916267   1.937   6.708   9.576  0.0914  0.5400 -0.9759
  147SAPE   H9X16268   1.936   6.817   9.558  0.9421  0.7963  0.3406
  147SAPE   H9Y16269   1.830   6.677   9.579 -0.2369  1.5111 -2.1346
  147SAPE  C31016270   2.006   6.631   9.464 -1.5869  0.0683  0.0430
  147SAPE  H10X16271   2.000   6.522   9.484 -0.1243  0.0568  0.5092
  147SAPE  H10Y16272   2.111   6.663   9.447 -1.7215 -0.0940 -1.2448
  147SAPE  C31116273   1.937   6.650   9.325 -0.0502  0.0195  0.0230
  147SAPE  H11X16274   1.831   6.617   9.335 -0.4294  0.6904 -1.5160
  147SAPE  H11Y16275   1.979   6.580   9.250 -3.6560 -0.6796 -1.5548
  147SAPE  C31216276   1.937   6.791   9.277 -0.4316  0.5849 -0.1161
  147SAPE  H12X16277   2.039   6.828   9.304  0.6153 -3.0226  1.5106
  147SAPE  H12Y16278   1.863   6.842   9.341 -0.3584 -0.5670  0.9175
  147SAPE  C31316279   1.893   6.806   9.132 -0.1158 -0.2546  0.6767
  147SAPE  H13X16280   1.795   6.761   9.107  0.0009 -0.4330  0.5295
  147SAPE  H13Y16281   1.965   6.744   9.073  0.5286  1.7675 -0.7922
  147SAPE  C31416282   1.900   6.947   9.069  0.1421 -0.3313  0.3438
  147SAPE  H14X16283   2.005   6.978   9.053 -0.7564  1.6150 -2.3927
  147SAPE  H14Y16284   1.845   7.011   9.142  1.2045  2.0057 -0.8009
  147SAPE  C31516285   1.836   6.967   8.926  0.1589  0.0674  0.6568
  147SAPE  H15X16286   1.727   6.947   8.935  0.3468 -0.2682  2.5608
  147SAPE  H15Y16287   1.884   6.885   8.867  2.7487  0.8155  1.5762
  147SAPE  C31616288   1.871   7.107   8.878 -0.3935  0.5421 -0.4471
  147SAPE  H16X16289   1.982   7.101   8.874 -0.3984  0.7399 -0.8356
  147SAPE  H16Y16290   1.856   7.184   8.957  0.4454  0.7806 -0.5079
  147SAPE  C31716291   1.793   7.154   8.753  0.1259 -0.0013 -1.0381
  147SAPE  H17X16292   1.788   7.077   8.673 -1.7937  0.6116 -1.5388
  147SAPE  H17Y16293   1.835   7.243   8.702 -0.9609  0.5571 -0.9851
  147SAPE  C31816294   1.648   7.186   8.793 -1.3532 -0.6722 -0.7608
  147SAPE  H18X16295   1.597   7.097   8.834  1.4650 -0.6114  3.4246
  147SAPE  H18Y16296   1.587   7.241   8.717 -2.3167  2.4876  2.0347
  147SAPE  H18Z16297   1.659   7.258   8.877 -0.8665  1.6031 -2.6785
  148SAPE     N16298   1.918   2.661  10.759 -0.2096 -0.7120  0.3950
  148SAPE   HN116299   1.844   2.720  10.715  1.9973 -0.2883 -3.1871
  148SAPE   HN216300   1.875   2.590  10.822 -1.4554  1.1529  1.7529
  148SAPE   HN316301   1.981   2.723  10.813  0.4247  1.5278 -2.6454
  148SAPE   C1216302   2.005   2.590  10.658 -0.2250 -0.6064 -0.5639
  148SAPE  H12A16303   1.947   2.550  10.572  3.0140 -3.4026 -1.6306
  148SAPE  H12B16304   2.053   2.510  10.718  0.7659 -0.0926 -0.6529
  148SAPE   C1116305   2.105   2.701  10.614 -0.1920  0.1361 -0.5723
  148SAPE  H11A16306   2.053   2.771  10.546  1.7465  0.0199 -2.2592
  148SAPE  H11B16307   2.182   2.643  10.558 -0.7746 -0.1022 -1.1390
  148SAPE     P16308   2.265   2.883  10.727 -0.3831 -0.1417 -0.0519
  148SAPE   O1316309   2.222   3.024  10.754 -0.1189  0.4247 -0.1126
  148SAPE   O1416310   2.388   2.836  10.798 -0.2714  0.3521  0.0433
  148SAPE   O1216311   2.159   2.768  10.732  0.0312  0.5869 -0.1440
  148SAPE   O1116312   2.305   2.872  10.575  0.3879 -0.4570  0.2691
  148SAPE    C116313   2.429   2.907  10.522  0.2293 -0.0175 -1.1518
  148SAPE    HA16314   2.414   3.013  10.491  1.1144  1.1643  2.0607
  148SAPE    HB16315   2.512   2.914  10.596 -2.1329  0.5125  1.6171
  148SAPE    C216316   2.480   2.817  10.409 -0.0755 -0.4354 -0.6384
  148SAPE    HS16317   2.585   2.846  10.385  0.2595 -1.2408 -0.1812
  148SAPE   O2116318   2.395   2.821  10.297 -0.0738  0.3483 -0.4387
  148SAPE   C2116319   2.413   2.931  10.228 -0.4640  0.5244 -0.2857
  148SAPE   O2216320   2.495   3.020  10.256  0.2746 -0.5292  0.2887
  148SAPE   C2216321   2.322   2.925  10.104 -0.2068 -0.4390  0.3295
  148SAPE   H2R16322   2.350   2.839  10.041 -0.5473 -1.2443  1.2412
  148SAPE   H2S16323   2.225   2.907  10.156 -0.7750  0.1425 -0.4955
  148SAPE    C316324   2.479   2.674  10.468 -0.4123  0.3067 -0.1967
  148SAPE    HX16325   2.370   2.660  10.482 -0.6046  2.2067  0.3926
  148SAPE    HY16326   2.531   2.662  10.565 -0.5197 -0.9548 -0.2713
  148SAPE   O3116327   2.518   2.570  10.374 -0.3113 -0.3752 -0.2711
  148SAPE   C3116328   2.651   2.551  10.369 -0.5682  0.4406 -0.5599
  148SAPE   O3216329   2.733   2.619  10.429  0.3025  0.7083 -0.0413
  148SAPE   C3216330   2.673   2.432  10.272 -0.0989 -0.1059  0.1612
  148SAPE   H2X16331   2.577   2.411  10.220 -0.1017  1.3733 -0.4710
  148SAPE   H2Y16332   2.698   2.339  10.328  0.7029 -0.1129 -0.1951
  148SAPE   C2316333   2.322   3.048  10.007  0.2312  0.1326 -0.3365
  148SAPE   H3R16334   2.425   3.041   9.967  0.8813  0.1591  1.2519
  148SAPE   H3S16335   2.309   3.145  10.059 -0.0314 -0.1208  0.0736
  148SAPE   C2416336   2.209   3.045   9.897 -0.1867 -0.5227 -0.1397
  148SAPE   H4R16337   2.223   2.958   9.828 -0.7875  0.6541 -1.8172
  148SAPE   H4S16338   2.222   3.138   9.837 -0.0571  1.5454  2.9139
  148SAPE   C2516339   2.069   3.054   9.956 -0.2255 -0.4212  0.3739
  148SAPE   H5R16340   2.065   3.095  10.058 -1.5905 -3.3266  1.5938
  148SAPE   C2616341   1.955   3.026   9.893 -0.3122  0.4656  0.2815
  148SAPE   H6R16342   1.867   3.065   9.947 -0.6618  2.8170 -1.7709
  148SAPE   C2716343   1.931   2.976   9.755 -0.3534 -0.3531  0.1295
  148SAPE   H7R16344   1.997   3.023   9.680  0.2877 -2.3283 -0.6067
  148SAPE   H7S16345   1.833   3.020   9.726  0.4466  0.3998 -1.5346
  148SAPE   C2816346   1.945   2.827   9.743  0.6023 -0.5537  0.1157
  148SAPE   H8R16347   2.017   2.783   9.814  0.7095  1.8639  1.6299
  148SAPE   C2916348   1.865   2.748   9.667 -0.0171  0.2069 -0.0140
  148SAPE   H9R16349   1.861   2.639   9.680  0.2350 -0.1255 -2.2741
  148SAPE  C21016350   1.758   2.806   9.582 -0.5547 -0.6725  0.1608
  148SAPE  H10R16351   1.751   2.729   9.502 -2.0455 -1.7096  1.2104
  148SAPE  H10S16352   1.789   2.901   9.535  1.3872 -1.5500 -0.4371
  148SAPE  C21116353   1.638   2.823   9.670  0.3550 -0.6551 -0.0121
  148SAPE  H11R16354   1.659   2.886   9.757 -1.2995  1.4959 -1.0663
  148SAPE  C21216355   1.515   2.765   9.654 -0.5079  0.1210 -0.2992
  148SAPE  H12R16356   1.438   2.787   9.729 -1.1589 -3.9147  0.4209
  148SAPE  C21316357   1.476   2.677   9.541  0.1336  0.1052 -0.4029
  148SAPE  H13R16358   1.556   2.671   9.464  1.0463  1.9744  0.3443
  148SAPE  H13S16359   1.397   2.728   9.482 -0.2498 -1.2424 -1.1153
  148SAPE  C21416360   1.418   2.541   9.588 -0.2181 -0.1089 -0.7125
  148SAPE  H14R16361   1.353   2.550   9.676 -0.9471 -3.2821 -0.8141
  148SAPE  C21516362   1.414   2.429   9.524  0.0890  0.1716 -0.7508
  148SAPE  H15R16363   1.371   2.342   9.576  1.6860  0.1798  0.6898
  148SAPE  C21616364   1.484   2.401   9.389 -0.2048  0.4426  0.7438
  148SAPE  H16R16365   1.519   2.295   9.385 -0.0617  0.4734  1.1433
  148SAPE  H16S16366   1.574   2.463   9.375 -1.5405  2.1784 -0.5839
  148SAPE  C21716367   1.394   2.428   9.266  0.3355 -0.4513 -0.4627
  148SAPE  H17R16368   1.436   2.388   9.171 -1.8877  0.4817 -1.9130
  148SAPE  H17S16369   1.378   2.536   9.245 -1.8373 -0.3239  1.3873
  148SAPE  C21816370   1.252   2.359   9.296  0.3653 -0.2446 -0.6077
  148SAPE  H18R16371   1.189   2.430   9.354  1.8891  0.4750  0.2338
  148SAPE  H18S16372   1.272   2.267   9.356 -0.0809  0.2576  0.3264
  148SAPE  C21916373   1.182   2.314   9.173  0.3491 -0.6573 -0.0647
  148SAPE  H19R16374   1.113   2.231   9.199  1.6948 -1.6981  0.3119
  148SAPE  H19S16375   1.257   2.261   9.110 -0.0132 -0.4747 -0.6522
  148SAPE  C22016376   1.111   2.422   9.089 -0.3791 -0.3573  1.2530
  148SAPE  H20R16377   1.045   2.477   9.159 -0.5930  1.2051 -0.1218
  148SAPE  H20S16378   1.055   2.391   8.999 -2.2995  0.2163  2.2031
  148SAPE  H20T16379   1.187   2.499   9.065 -1.5148  0.4268  0.1092
  148SAPE   C3316380   2.781   2.451  10.167  0.2882 -0.1652  0.1294
  148SAPE   H3X16381   2.814   2.353  10.125 -0.6987 -0.0838 -0.8986
  148SAPE   H3Y16382   2.861   2.516  10.206 -0.1455  0.9159 -0.7275
  148SAPE   C3416383   2.742   2.521  10.028 -0.0309 -0.7693  0.9936
  148SAPE   H4X16384   2.798   2.614  10.004 -0.5244 -0.9238 -0.8884
  148SAPE   H4Y16385   2.638   2.554  10.051 -0.5795 -0.9289 -1.0578
  148SAPE   C3516386   2.720   2.426   9.907 -0.2730  0.3460  0.2132
  148SAPE   H5X16387   2.647   2.479   9.843 -0.4692  1.7261  1.5317
  148SAPE   H5Y16388   2.675   2.326   9.925  0.3871  0.2330  1.3378
  148SAPE   C3616389   2.857   2.408   9.848 -0.5175 -0.6643 -0.2122
  148SAPE   H6X16390   2.907   2.317   9.888  0.4083  1.1918  3.3423
  148SAPE   H6Y16391   2.910   2.498   9.888  0.6709 -0.2174 -2.6044
  148SAPE   C3716392   2.862   2.416   9.694 -0.2137  0.4521 -0.0718
  148SAPE   H7X16393   2.967   2.415   9.658  0.7869 -2.3714  2.4876
  148SAPE   H7Y16394   2.817   2.512   9.658  0.7571  1.5542  1.5098
  148SAPE   C3816395   2.788   2.305   9.618  0.3366 -0.2264  0.2459
  148SAPE   H8X16396   2.691   2.271   9.659 -0.1825 -0.2327 -0.9248
  148SAPE   H8Y16397   2.847   2.211   9.618  2.0219  0.7857  1.6182
  148SAPE   C3916398   2.774   2.330   9.468 -0.2353  0.2467  0.0752
  148SAPE   H9X16399   2.715   2.424   9.473  1.2399  1.1532  1.1314
  148SAPE   H9Y16400   2.717   2.247   9.422 -0.6908  2.2234 -3.2928
  148SAPE  C31016401   2.904   2.352   9.395  0.3299  0.7245 -0.4622
  148SAPE  H10X16402   2.973   2.268   9.419  0.1454  0.4581 -0.8473
  148SAPE  H10Y16403   2.955   2.446   9.424  0.4795  0.8652 -1.1512
  148SAPE  C31116404   2.877   2.343   9.245 -0.0153  1.5846 -0.1952
  148SAPE  H11X16405   2.796   2.407   9.202 -0.8079  1.7829  1.4682
  148SAPE  H11Y16406   2.831   2.245   9.220  0.8173  1.4952 -1.4343
  148SAPE  C31216407   3.003   2.358   9.160  0.0770 -0.0118 -0.4421
  148SAPE  H12X16408   3.064   2.273   9.200 -0.5821  0.0801  0.8278
  148SAPE  H12Y16409   3.059   2.454   9.171  1.1232 -0.2935 -2.7089
  148SAPE  C31316410   2.985   2.314   9.013  0.5048  0.6931 -0.6338
  148SAPE  H13X16411   2.919   2.384   8.956  1.0232  1.0288 -0.8264
  148SAPE  H13Y16412   2.948   2.210   9.007  0.9666  0.3663  1.5722
  148SAPE  C31416413   3.127   2.310   8.937  0.2093  0.1634  0.4543
  148SAPE  H14X16414   3.192   2.240   8.994 -0.3772 -1.5691 -0.9384
  148SAPE  H14Y16415   3.169   2.413   8.946  0.2663  0.2048 -0.2652
  148SAPE  C31516416   3.123   2.277   8.790 -0.4966  0.3829  0.5079
  148SAPE  H15X16417   3.071   2.355   8.730 -2.7383 -1.3805 -0.0009
  148SAPE  H15Y16418   3.083   2.177   8.761  0.4509 -0.0457  0.6226
  148SAPE  C31616419   3.268   2.298   8.735 -0.2420 -0.4753 -0.0949
  148SAPE  H16X16420   3.329   2.216   8.775 -0.2486 -0.6036 -0.3453
  148SAPE  H16Y16421   3.315   2.394   8.766  2.0334 -0.4513 -3.1185
  148SAPE  C31716422   3.263   2.302   8.576  0.4549 -0.0740  0.5371
  148SAPE  H17X16423   3.369   2.286   8.551  0.4953 -0.0028  0.6606
  148SAPE  H17Y16424   3.223   2.401   8.543 -1.6142 -2.0821 -3.6941
  148SAPE  C31816425   3.182   2.200   8.494 -0.0826 -0.3248  0.5542
  148SAPE  H18X16426   3.169   2.194   8.384 -0.1421 -1.0565  0.6004
  148SAPE  H18Y16427   3.077   2.205   8.532 -0.4405 -1.5941 -0.2336
  148SAPE  H18Z16428   3.212   2.096   8.519  1.0409  0.0965  1.0279
  149SAPE     N16429   4.730   3.422  11.049 -0.2901 -0.1107 -0.0862
  149SAPE   HN116430   4.771   3.407  11.143 -3.2141 -3.1805  0.8878
  149SAPE   HN216431   4.626   3.428  11.057 -1.0273 -1.3018 -5.1371
  149SAPE   HN316432   4.738   3.334  10.994  1.1084  0.7640 -1.3859
  149SAPE   C1216433   4.781   3.547  10.970  0.1733 -0.0902 -0.4491
  149SAPE  H12A16434   4.779   3.628  11.046  1.0371 -1.3497  0.9938
  149SAPE  H12B16435   4.701   3.567  10.896  1.0613  0.6914 -1.2221
  149SAPE   C1116436   4.928   3.513  10.926 -0.5205 -0.7267  0.6004
  149SAPE  H11A16437   4.971   3.588  10.856  2.3035 -3.2258 -0.5540
  149SAPE  H11B16438   4.905   3.426  10.861 -2.5404 -1.0975  1.7443
  149SAPE     P16439   5.082   3.569  11.136 -0.0277 -0.3608 -0.1373
  149SAPE   O1316440   4.984   3.618  11.238 -0.4815  0.1206  0.1615
  149SAPE   O1416441   5.210   3.516  11.191 -0.0169  0.6122  0.2229
  149SAPE   O1216442   5.018   3.468  11.034 -0.2689  0.3169 -0.1849
  149SAPE   O1116443   5.118   3.680  11.029 -0.2524 -0.0866 -0.0753
  149SAPE    C116444   5.257   3.680  10.972  0.4248  0.0895 -0.2838
  149SAPE    HA16445   5.332   3.688  11.053  0.6800  1.0616 -0.6076
  149SAPE    HB16446   5.273   3.588  10.911 -1.8078 -1.6918  1.5874
  149SAPE    C216447   5.272   3.797  10.872 -0.4168  0.4868  0.7774
  149SAPE    HS16448   5.255   3.895  10.922 -1.5220  0.8829 -0.3273
  149SAPE   O2116449   5.175   3.793  10.767 -0.0153  0.2175 -0.3773
  149SAPE   C2116450   5.138   3.907  10.715  0.7521 -0.4645  0.1053
  149SAPE   O2216451   5.169   4.020  10.758  0.6177 -0.3017 -0.2709
  149SAPE   C2216452   5.059   3.871  10.587  0.4624  0.5660  0.0924
  149SAPE   H2R16453   5.115   3.789  10.539 -0.7738 -0.8941  1.0699
  149SAPE   H2S16454   4.965   3.830  10.630  1.2932  1.2153  2.7192
  149SAPE    C316455   5.419   3.809  10.819 -0.0874  0.1437 -0.7559
  149SAPE    HX16456   5.422   3.702  10.787 -1.4526 -0.3382  0.5850
  149SAPE    HY16457   5.504   3.829  10.888  2.4750 -0.1373 -3.6424
  149SAPE   O3116458   5.435   3.900  10.715  0.5187  0.0258  0.3223
  149SAPE   C3116459   5.513   3.869  10.613  0.2041 -0.2856 -0.1686
  149SAPE   O3216460   5.598   3.781  10.605 -1.2160 -0.5092  0.1952
  149SAPE   C3216461   5.485   3.965  10.497  0.3648 -0.0573  0.7233
  149SAPE   H2X16462   5.576   4.029  10.495 -1.3816  2.5643 -1.0236
  149SAPE   H2Y16463   5.408   4.039  10.528  0.0423 -1.1577  2.7300
  149SAPE   C2316464   5.040   3.990  10.488 -0.1754  0.7417  0.1109
  149SAPE   H3R16465   5.137   4.018  10.442  0.0531  2.5496  1.5806
  149SAPE   H3S16466   5.005   4.079  10.545 -2.4167  0.0124 -0.0415
  149SAPE   C2416467   4.946   3.963  10.369  0.9223 -0.5378  1.2748
  149SAPE   H4R16468   5.009   3.906  10.298  1.6856  1.6288  0.1343
  149SAPE   H4S16469   4.918   4.059  10.322 -1.0279 -1.8400 -0.3900
  149SAPE   C2516470   4.815   3.892  10.418 -0.1460  0.5710 -0.6686
  149SAPE   H5R16471   4.823   3.792  10.462  0.4058  0.0678 -1.8714
  149SAPE   C2616472   4.695   3.944  10.419  0.6737  0.7275  0.4073
  149SAPE   H6R16473   4.613   3.875  10.443  0.1095  1.2311  0.0001
  149SAPE   C2716474   4.657   4.080  10.363 -0.0549  0.0293 -0.0768
  149SAPE   H7R16475   4.639   4.073  10.254 -1.3390  1.1364  0.0283
  149SAPE   H7S16476   4.744   4.147  10.382  1.7542 -1.2809 -3.0828
  149SAPE   C2816477   4.533   4.147  10.410  0.3866 -0.2916  0.0170
  149SAPE   H8R16478   4.512   4.138  10.518 -1.4326 -1.2087 -0.3829
  149SAPE   C2916479   4.460   4.238  10.335  0.0650 -0.4237  0.3470
  149SAPE   H9R16480   4.362   4.262  10.379  0.1692  1.1839 -0.2413
  149SAPE  C21016481   4.479   4.285  10.190  0.0693  0.2116 -0.2610
  149SAPE  H10R16482   4.419   4.219  10.125 -2.2852  0.4812  1.5138
  149SAPE  H10S16483   4.589   4.289  10.172 -0.0412  1.6706 -0.7055
  149SAPE  C21116484   4.418   4.425  10.182 -0.3001 -0.2119  0.1863
  149SAPE  H11R16485   4.427   4.490  10.270  3.2247  2.0204 -1.5717
  149SAPE  C21216486   4.344   4.472  10.086 -0.1106 -0.5496  0.5118
  149SAPE  H12R16487   4.315   4.578  10.093 -0.1914 -0.4924 -0.5017
  149SAPE  C21316488   4.294   4.396   9.966  0.4299  0.0068  0.5816
  149SAPE  H13R16489   4.200   4.452   9.947 -0.0470 -0.8579  0.3773
  149SAPE  H13S16490   4.264   4.292   9.989 -0.9038  0.3039  0.2735
  149SAPE  C21416491   4.401   4.401   9.862  0.3110 -0.1385  0.2211
  149SAPE  H14R16492   4.502   4.410   9.904 -0.6319  1.2588  2.3897
  149SAPE  C21516493   4.382   4.398   9.727 -0.4172  0.0914  0.5976
  149SAPE  H15R16494   4.469   4.398   9.661 -0.6196  0.1436  0.3285
  149SAPE  C21616495   4.255   4.371   9.651  0.3474 -0.5035  0.9040
  149SAPE  H16R16496   4.197   4.464   9.631 -2.5492 -2.0641  1.5137
  149SAPE  H16S16497   4.179   4.314   9.709 -2.4344  0.1366 -1.8308
  149SAPE  C21716498   4.277   4.297   9.520 -0.6350 -0.4033  0.8993
  149SAPE  H17R16499   4.356   4.222   9.537 -1.6269 -0.9117  3.7976
  149SAPE  H17S16500   4.304   4.371   9.442 -2.3787 -1.0777 -0.4093
  149SAPE  C21816501   4.155   4.226   9.470 -0.0651  0.4889  0.1780
  149SAPE  H18R16502   4.060   4.272   9.505 -0.6770 -1.2914  0.9436
  149SAPE  H18S16503   4.151   4.129   9.524  0.1211  0.4781  0.1703
  149SAPE  C21916504   4.152   4.200   9.317 -0.2004 -0.0118  0.2710
  149SAPE  H19R16505   4.154   4.302   9.274  0.7745 -0.6214 -1.2078
  149SAPE  H19S16506   4.060   4.149   9.281  0.2446 -0.3072 -0.4721
  149SAPE  C22016507   4.265   4.119   9.256  0.1316 -1.0052 -0.1977
  149SAPE  H20R16508   4.364   4.164   9.279 -0.5123 -0.7748  2.4681
  149SAPE  H20S16509   4.251   4.105   9.147 -1.4623  0.3188 -0.2071
  149SAPE  H20T16510   4.267   4.024   9.314  0.9148 -2.6019 -2.6719
  149SAPE   C3316511   5.441   3.876  10.379  0.0085  0.2721 -0.6745
  149SAPE   H3X16512   5.336   3.843  10.397  0.1388 -0.3685 -1.0682
  149SAPE   H3Y16513   5.500   3.784  10.365 -0.9939 -0.5843  0.4825
  149SAPE   C3416514   5.462   3.944  10.243 -0.0097  0.2459  0.1679
  149SAPE   H4X16515   5.570   3.970  10.248 -0.0168  0.5312 -1.0360
  149SAPE   H4Y16516   5.392   4.029  10.232 -0.9918 -0.5544  0.0632
  149SAPE   C3516517   5.430   3.846  10.136 -0.1302 -0.3985 -0.3824
  149SAPE   H5X16518   5.320   3.830  10.127 -0.1264  0.3477 -2.2283
  149SAPE   H5Y16519   5.480   3.749  10.158 -0.0012 -0.5742 -1.3915
  149SAPE   C3616520   5.487   3.891  10.003  1.2184  0.0913 -0.0618
  149SAPE   H6X16521   5.597   3.879  10.004  1.2679  0.5837  0.6301
  149SAPE   H6Y16522   5.471   4.000   9.995 -0.5379 -0.2440 -1.8732
  149SAPE   C3716523   5.414   3.810   9.892 -0.8364 -0.1528 -0.3092
  149SAPE   H7X16524   5.306   3.818   9.914 -1.1971 -2.0301 -1.2055
  149SAPE   H7Y16525   5.445   3.705   9.909  4.0774  0.7381 -2.0046
  149SAPE   C3816526   5.450   3.860   9.751  0.0242  0.5314 -0.0332
  149SAPE   H8X16527   5.560   3.848   9.737  0.1520  1.0561  0.4846
  149SAPE   H8Y16528   5.428   3.968   9.746  1.0347  0.7240 -0.6159
  149SAPE   C3916529   5.358   3.803   9.639 -0.0099  0.1188 -0.3833
  149SAPE   H9X16530   5.253   3.803   9.676  0.0611  0.0904 -0.1771
  149SAPE   H9Y16531   5.393   3.699   9.619  3.3836  0.8080  1.3105
  149SAPE  C31016532   5.362   3.891   9.511  0.1265 -0.0830 -0.1241
  149SAPE  H10X16533   5.466   3.927   9.493 -1.0317  3.0764 -1.2367
  149SAPE  H10Y16534   5.302   3.980   9.540 -2.3164 -1.9590  0.8861
  149SAPE  C31116535   5.304   3.818   9.381  0.4563 -0.2589  1.0478
  149SAPE  H11X16536   5.195   3.835   9.392  0.4487  1.7741 -1.3154
  149SAPE  H11Y16537   5.316   3.707   9.378 -1.3662 -0.4622 -0.5203
  149SAPE  C31216538   5.347   3.881   9.250 -0.4734 -0.1520  0.0534
  149SAPE  H12X16539   5.451   3.847   9.229  0.4863  1.4800  1.8027
  149SAPE  H12Y16540   5.346   3.990   9.272  0.6346  0.3255 -2.0222
  149SAPE  C31316541   5.250   3.853   9.126  0.1214  0.2381  0.3980
  149SAPE  H13X16542   5.286   3.908   9.036 -1.3151  0.4078 -0.0825
  149SAPE  H13Y16543   5.145   3.881   9.150 -0.3241 -2.2473  1.6261
  149SAPE  C31416544   5.250   3.708   9.087  0.0457  0.4783  0.0812
  149SAPE  H14X16545   5.220   3.645   9.174  1.4144  2.9492  2.5251
  149SAPE  H14Y16546   5.358   3.683   9.079  0.1392  0.8554  0.1209
  149SAPE  C31516547   5.208   3.673   8.945 -0.7086  0.1554  0.1164
  149SAPE  H15X16548   5.102   3.701   8.923 -1.1505 -1.2648  0.3271
  149SAPE  H15Y16549   5.201   3.563   8.939  1.2230 -0.1195  1.7468
  149SAPE  C31616550   5.296   3.721   8.830 -0.4473 -0.0558  0.5839
  149SAPE  H16X16551   5.400   3.693   8.859  0.5013  2.3869 -0.2133
  149SAPE  H16Y16552   5.284   3.829   8.806  1.0364  0.3276  1.3983
  149SAPE  C31716553   5.271   3.641   8.703  0.4375 -0.6577  0.0930
  149SAPE  H17X16554   5.304   3.691   8.609 -1.4024 -0.4384 -0.4688
  149SAPE  H17Y16555   5.161   3.632   8.694  0.3320  1.0291 -0.6357
  149SAPE  C31816556   5.338   3.507   8.695 -0.2993  0.4814 -0.5571
  149SAPE  H18X16557   5.343   3.457   8.596 -0.3821 -0.2404 -0.2008
  149SAPE  H18Y16558   5.281   3.435   8.758  0.4577 -1.1112 -1.6166
  149SAPE  H18Z16559   5.440   3.512   8.740 -0.7552 -0.4602  0.6312
  150SAPE     N16560   6.707   4.025  11.104  0.3371  0.4103 -0.0849
  150SAPE   HN116561   6.793   4.024  11.163  0.2588  0.2632  0.0304
  150SAPE   HN216562   6.730   4.073  11.015  0.5030  1.8230  0.7029
  150SAPE   HN316563   6.634   4.077  11.157  0.1929  0.4489 -0.3237
  150SAPE   C1216564   6.647   3.893  11.073  0.7139  0.5818 -0.4376
  150SAPE  H12A16565   6.539   3.915  11.084  0.5454 -1.3244  3.0801
  150SAPE  H12B16566   6.664   3.831  11.164  1.0247  2.2023  0.6635
  150SAPE   C1116567   6.699   3.821  10.946 -0.1360  0.4250  0.1049
  150SAPE  H11A16568   6.695   3.886  10.856  0.4519  0.7955  0.3385
  150SAPE  H11B16569   6.636   3.734  10.919  0.0631  0.2618  0.1650
  150SAPE     P16570   6.867   3.630  11.005 -0.4576 -0.3759 -0.0700
  150SAPE   O1316571   7.005   3.623  11.060 -0.3615 -0.0858 -0.2609
  150SAPE   O1416572   6.758   3.583  11.091 -0.2004 -0.1197  0.0607
  150SAPE   O1216573   6.835   3.783  10.972  0.2239 -0.0067  0.2857
  150SAPE   O1116574   6.863   3.552  10.868 -0.2371 -0.2335 -0.0491
  150SAPE    C116575   6.915   3.617  10.751  0.6447  0.7087 -0.2537
  150SAPE    HA16576   6.899   3.727  10.747 -0.8149  0.4886 -1.3080
  150SAPE    HB16577   7.024   3.596  10.751  0.6542  0.7531 -0.4180
  150SAPE    C216578   6.837   3.572  10.622  0.3006 -0.2526  0.1743
  150SAPE    HS16579   6.808   3.465  10.634  1.8881 -0.7234  0.0457
  150SAPE   O2116580   6.923   3.600  10.507  0.1456  0.0264  0.3648
  150SAPE   C2116581   6.994   3.503  10.466 -0.6237  0.2765 -0.4928
  150SAPE   O2216582   6.978   3.385  10.497  0.5595  0.9368  0.0039
  150SAPE   C2216583   7.117   3.543  10.388 -0.1989  0.6119 -0.6449
  150SAPE   H2R16584   7.103   3.643  10.342 -1.2331  1.2135  0.9142
  150SAPE   H2S16585   7.198   3.555  10.463 -1.1715 -1.2003  0.7623
  150SAPE    C316586   6.707   3.653  10.600 -0.0076 -0.2430  0.2065
  150SAPE    HX16587   6.731   3.761  10.608  0.8299 -0.2882 -1.3100
  150SAPE    HY16588   6.631   3.650  10.681  0.4105  2.0667  0.7532
  150SAPE   O3116589   6.648   3.626  10.468  0.7469  0.0211  0.3317
  150SAPE   C3116590   6.568   3.525  10.466  0.3099  0.1765  0.0095
  150SAPE   O3216591   6.531   3.464  10.565 -0.1734  0.2161 -0.1834
  150SAPE   C3216592   6.532   3.494  10.317 -0.1294 -0.0342 -0.1489
  150SAPE   H2X16593   6.607   3.551  10.259 -0.2696  0.9259  0.5884
  150SAPE   H2Y16594   6.429   3.531  10.301 -0.5194  0.2771  2.6234
  150SAPE   C2316595   7.157   3.433  10.293 -0.7050 -0.8681 -0.2246
  150SAPE   H3R16596   7.180   3.339  10.349 -0.9566  0.7133  2.7157
  150SAPE   H3S16597   7.242   3.470  10.232  0.3384 -0.3140  1.5097
  150SAPE   C2416598   7.046   3.398  10.191  0.2972  0.4745  0.1445
  150SAPE   H4R16599   6.959   3.351  10.240  0.3337 -0.0621 -0.2959
  150SAPE   H4S16600   7.084   3.317  10.125 -0.4233  0.9601 -0.8972
  150SAPE   C2516601   7.006   3.513  10.107  0.1020  0.0530  0.1038
  150SAPE   H5R16602   6.917   3.573  10.135 -0.9375 -1.2026 -0.4128
  150SAPE   C2616603   7.062   3.542   9.990  0.8523 -0.1516  0.0353
  150SAPE   H6R16604   7.023   3.630   9.937  1.5382  1.2481  1.7842
  150SAPE   C2716605   7.179   3.458   9.931 -0.3361 -0.5631  0.5340
  150SAPE   H7R16606   7.251   3.419  10.006 -1.5222 -2.8241  0.5763
  150SAPE   H7S16607   7.240   3.529   9.871  0.4038 -1.4921  0.1675
  150SAPE   C2816608   7.121   3.342   9.843 -0.1648  0.6539  0.1059
  150SAPE   H8R16609   7.079   3.258   9.898 -0.6330  1.1644  0.5374
  150SAPE   C2916610   7.140   3.334   9.710  0.4337 -0.3944  0.3168
  150SAPE   H9R16611   7.101   3.250   9.650 -0.1743 -0.1487  0.3642
  150SAPE  C21016612   7.208   3.430   9.629  0.3360 -0.0069 -0.2759
  150SAPE  H10R16613   7.226   3.369   9.538 -2.4209 -0.4352 -0.6191
  150SAPE  H10S16614   7.315   3.448   9.655  1.2093 -1.2887 -2.6424
  150SAPE  C21116615   7.136   3.560   9.602  0.2826  0.1651  0.3200
  150SAPE  H11R16616   7.113   3.628   9.685  0.2684 -1.5969  1.8207
  150SAPE  C21216617   7.114   3.612   9.485 -0.3903  0.1500  0.4296
  150SAPE  H12R16618   7.063   3.709   9.481 -0.9489 -0.1809 -1.2067
  150SAPE  C21316619   7.151   3.556   9.348  0.0308 -0.6995  0.2599
  150SAPE  H13R16620   7.191   3.454   9.366 -0.4961 -0.8539  0.5892
  150SAPE  H13S16621   7.242   3.614   9.321 -0.0172  0.0842  1.6356
  150SAPE  C21416622   7.046   3.554   9.241  0.2021 -0.0598  0.1895
  150SAPE  H14R16623   6.957   3.491   9.254 -0.3815  1.1699  2.7324
  150SAPE  C21516624   7.050   3.631   9.130  0.0397  0.1405  0.0395
  150SAPE  H15R16625   6.963   3.634   9.062 -0.3607  0.4796  0.5524
  150SAPE  C21616626   7.142   3.742   9.090 -0.1235 -0.7908  0.3484
  150SAPE  H16R16627   7.209   3.771   9.174  1.4455 -0.0560 -1.0849
  150SAPE  H16S16628   7.090   3.837   9.065 -0.4144 -1.3249 -1.1611
  150SAPE  C21716629   7.230   3.704   8.970  0.1319  0.4375 -1.1833
  150SAPE  H17R16630   7.298   3.620   8.996  0.3997  1.4212  1.6634
  150SAPE  H17S16631   7.302   3.787   8.952 -0.4354  1.3241  0.3837
  150SAPE  C21816632   7.146   3.684   8.841  0.1642 -0.2885 -0.5821
  150SAPE  H18R16633   7.084   3.776   8.846  0.3682 -0.2090  2.7814
  150SAPE  H18S16634   7.089   3.588   8.838 -0.2130 -0.0892  0.0922
  150SAPE  C21916635   7.240   3.692   8.721  0.6631  0.1837 -0.0528
  150SAPE  H19R16636   7.300   3.599   8.718 -0.8903 -0.9714  1.7239
  150SAPE  H19S16637   7.317   3.771   8.724  0.0425  0.9074 -1.9865
  150SAPE  C22016638   7.169   3.710   8.582  0.9007  0.3085 -0.2022
  150SAPE  H20R16639   7.120   3.616   8.547  1.3659 -0.8108  1.9590
  150SAPE  H20S16640   7.249   3.731   8.508  1.5094 -0.1999  0.2972
  150SAPE  H20T16641   7.103   3.799   8.582  1.2873  0.5992  0.2592
  150SAPE   C3316642   6.545   3.344  10.305  0.4312 -0.1458  0.0944
  150SAPE   H3X16643   6.446   3.298  10.326 -0.7111  1.9384 -0.4124
  150SAPE   H3Y16644   6.622   3.295  10.368  1.0567  0.9326  0.1921
  150SAPE   C3416645   6.575   3.287  10.167 -0.1218  0.2515  0.5487
  150SAPE   H4X16646   6.591   3.178  10.183 -2.6406 -0.1011  1.2682
  150SAPE   H4Y16647   6.663   3.344  10.132 -0.6680  1.5080  1.1570
  150SAPE   C3516648   6.463   3.310  10.066 -0.6959  0.0962 -0.7578
  150SAPE   H5X16649   6.439   3.418  10.065  0.1192  0.2912 -0.5431
  150SAPE   H5Y16650   6.373   3.248  10.084 -0.6702  0.1672 -0.3630
  150SAPE   C3616651   6.499   3.284   9.922  1.1509 -1.0019  0.0166
  150SAPE   H6X16652   6.405   3.308   9.869  1.1675  1.3382  0.9338
  150SAPE   H6Y16653   6.531   3.180   9.899 -1.8485 -1.4796 -2.6694
  150SAPE   C3716654   6.603   3.385   9.865  0.3486 -0.4693  0.1768
  150SAPE   H7X16655   6.702   3.376   9.914 -0.3873  2.0361  2.3602
  150SAPE   H7Y16656   6.567   3.489   9.881 -0.5933 -0.0972 -3.3220
  150SAPE   C3816657   6.617   3.374   9.713 -0.0255 -0.0935 -0.0562
  150SAPE   H8X16658   6.533   3.429   9.666 -0.4529 -0.0390  0.7535
  150SAPE   H8Y16659   6.612   3.266   9.687  0.0201 -0.1801  0.2931
  150SAPE   C3916660   6.747   3.442   9.655  0.2996  0.3608 -0.3854
  150SAPE   H9X16661   6.842   3.423   9.710  0.0871  1.0454  0.2264
  150SAPE   H9Y16662   6.730   3.551   9.667  0.2810  0.2119  1.1926
  150SAPE  C31016663   6.770   3.434   9.500  0.0258 -0.1036  0.2381
  150SAPE  H10X16664   6.841   3.354   9.470 -0.6887 -0.4878 -0.4680
  150SAPE  H10Y16665   6.818   3.530   9.472 -0.3711  2.2485  6.2097
  150SAPE  C31116666   6.635   3.419   9.417 -0.6750 -0.5225 -0.3885
  150SAPE  H11X16667   6.567   3.499   9.454 -1.2877 -0.3115 -1.8961
  150SAPE  H11Y16668   6.583   3.324   9.442 -0.5469 -0.6402 -0.5700
  150SAPE  C31216669   6.653   3.426   9.262  0.8507 -1.1274 -0.4859
  150SAPE  H12X16670   6.715   3.518   9.254  0.9228 -1.1323 -0.0140
  150SAPE  H12Y16671   6.551   3.450   9.225  0.0637 -1.0657  1.5843
  150SAPE  C31316672   6.710   3.304   9.201  0.7371 -0.4818 -0.0066
  150SAPE  H13X16673   6.654   3.217   9.243 -1.5423  0.4762 -0.8619
  150SAPE  H13Y16674   6.818   3.280   9.212  1.1671  1.1976 -0.3596
  150SAPE  C31416675   6.678   3.296   9.058 -0.1287 -0.1325 -0.3839
  150SAPE  H14X16676   6.575   3.336   9.045  0.2301  0.6702 -0.8609
  150SAPE  H14Y16677   6.667   3.187   9.041 -1.0042 -0.5066  2.1454
  150SAPE  C31516678   6.776   3.376   8.970  0.3552  0.0013 -0.2671
  150SAPE  H15X16679   6.875   3.325   8.978 -0.3904 -1.4639 -0.1038
  150SAPE  H15Y16680   6.792   3.470   9.027  0.2247  0.3454 -0.7883
  150SAPE  C31616681   6.731   3.392   8.823  0.1266 -0.2178  0.3443
  150SAPE  H16X16682   6.628   3.432   8.818 -0.0704 -0.6667  0.8372
  150SAPE  H16Y16683   6.743   3.291   8.779  0.8163  0.8552 -2.1408
  150SAPE  C31716684   6.807   3.477   8.726 -0.5858 -0.0953  0.1624
  150SAPE  H17X16685   6.916   3.462   8.744 -0.6153  1.2232  1.8090
  150SAPE  H17Y16686   6.786   3.583   8.752 -2.7467 -0.7724  1.4957
  150SAPE  C31816687   6.777   3.456   8.578 -0.2584  0.4113  0.4934
  150SAPE  H18X16688   6.674   3.485   8.550 -0.4850 -2.7789 -2.6683
  150SAPE  H18Y16689   6.774   3.347   8.556  0.1231  1.0633 -3.4007
  150SAPE  H18Z16690   6.856   3.501   8.514  0.9217 -1.7525  0.3189
  151SAPE     N16691   4.446   6.389  10.722 -0.1194  0.9139  0.4645
  151SAPE   HN116692   4.478   6.445  10.804  1.6526  0.8568 -0.1454
  151SAPE   HN216693   4.369   6.322  10.742  1.4238 -1.3449 -0.8281
  151SAPE   HN316694   4.525   6.341  10.675  0.1174  0.9542  0.8146
  151SAPE   C1216695   4.378   6.486  10.623 -0.2223  0.1169 -0.0010
  151SAPE  H12A16696   4.451   6.536  10.556 -0.1359 -1.4622 -1.1358
  151SAPE  H12B16697   4.305   6.545  10.684 -2.7170 -0.6816 -2.0053
  151SAPE   C1116698   4.284   6.401  10.521 -0.8055 -0.5182  0.3883
  151SAPE  H11A16699   4.353   6.323  10.480  0.4980 -0.1134  1.7210
  151SAPE  H11B16700   4.259   6.481  10.448 -0.6802  0.3961  1.3355
  151SAPE     P16701   4.052   6.297  10.492 -0.0002 -0.4209 -0.2955
  151SAPE   O1316702   3.964   6.204  10.567 -0.3383 -0.1866  0.5258
  151SAPE   O1416703   3.993   6.415  10.429 -0.3255 -0.3546 -0.3185
  151SAPE   O1216704   4.169   6.349  10.586 -0.4484 -0.0444 -0.0037
  151SAPE   O1116705   4.134   6.218  10.387  0.1772 -0.3506 -0.0418
  151SAPE    C116706   4.191   6.089  10.414  0.0169 -0.2358  0.5386
  151SAPE    HA16707   4.301   6.102  10.406 -0.2031  1.7877  0.0881
  151SAPE    HB16708   4.171   6.055  10.518  0.9799 -1.0515  0.4689
  151SAPE    C216709   4.137   5.981  10.317 -0.4252  0.3707  0.1932
  151SAPE    HS16710   4.162   5.878  10.352  0.0035 -0.6202 -2.7446
  151SAPE   O2116711   4.200   5.991  10.186  0.5124  0.2360 -0.3995
  151SAPE   C2116712   4.319   5.931  10.179  0.1228  0.0544  0.0772
  151SAPE   O2216713   4.353   5.843  10.255 -0.2780  0.6114  0.4619
  151SAPE   C2216714   4.391   5.980  10.056  0.4806 -0.2822 -0.1173
  151SAPE   H2R16715   4.317   6.004   9.977 -1.7706  0.3893  2.0382
  151SAPE   H2S16716   4.433   6.082  10.071 -1.2525  0.5437 -0.6138
  151SAPE    C316717   3.983   6.001  10.284 -0.6601 -0.1232  0.2018
  151SAPE    HX16718   3.982   6.090  10.218 -1.2639  2.3442  3.2944
  151SAPE    HY16719   3.924   6.027  10.374 -2.5196 -1.1041 -0.6851
  151SAPE   O3116720   3.937   5.885  10.207 -0.0279  0.1791  0.0185
  151SAPE   C3116721   3.867   5.803  10.282 -0.4357 -0.1623  0.0552
  151SAPE   O3216722   3.832   5.823  10.396  0.0881  0.0202  0.1964
  151SAPE   C3216723   3.830   5.681  10.193  0.2278 -0.4182 -0.4202
  151SAPE   H2X16724   3.859   5.586  10.242  1.7316  0.7931  1.1804
  151SAPE   H2Y16725   3.881   5.689  10.094 -2.0683 -0.0756 -1.6277
  151SAPE   C2316726   4.498   5.888  10.003 -0.4506  0.1552  0.3565
  151SAPE   H3R16727   4.458   5.809   9.937 -0.2348 -0.8644  1.4016
  151SAPE   H3S16728   4.530   5.842  10.099 -2.5063 -0.5912  0.7291
  151SAPE   C2416729   4.617   5.958   9.940 -0.1816 -0.4553 -0.1508
  151SAPE   H4R16730   4.693   5.876   9.937  0.0983 -0.1875 -0.4703
  151SAPE   H4S16731   4.660   6.030  10.012 -0.7663 -0.7695  0.5175
  151SAPE   C2516732   4.585   6.026   9.812 -0.3340 -0.0105  0.0998
  151SAPE   H5R16733   4.554   6.132   9.815  0.6547  0.3417 -1.1979
  151SAPE   C2616734   4.597   5.965   9.691 -0.1236 -0.8056  0.3717
  151SAPE   H6R16735   4.571   6.020   9.599  0.7428 -1.8511 -0.5308
  151SAPE   C2716736   4.647   5.828   9.649  0.0468 -0.6535 -0.3817
  151SAPE   H7R16737   4.719   5.798   9.728  2.3242  1.7715 -1.3654
  151SAPE   H7S16738   4.711   5.830   9.558 -1.8287  0.1824 -1.7352
  151SAPE   C2816739   4.547   5.720   9.619 -0.7186  0.2458  0.2208
  151SAPE   H8R16740   4.478   5.699   9.702  0.5535  0.3435  1.3388
  151SAPE   C2916741   4.521   5.658   9.497 -0.9042 -0.1035 -0.2858
  151SAPE   H9R16742   4.436   5.590   9.508 -1.0663  0.0216 -0.7529
  151SAPE  C21016743   4.591   5.669   9.361  0.0265  0.0641  0.1567
  151SAPE  H10R16744   4.589   5.778   9.342  2.3599  0.2704  0.8081
  151SAPE  H10S16745   4.534   5.612   9.284  1.0242  1.6517 -1.8378
  151SAPE  C21116746   4.730   5.621   9.360 -0.3873  0.2051  0.4204
  151SAPE  H11R16747   4.787   5.638   9.453 -0.6811 -2.9012  1.2878
  151SAPE  C21216748   4.787   5.544   9.264  0.0491 -0.7371  0.1123
  151SAPE  H12R16749   4.892   5.513   9.279 -0.3875 -2.0209  0.7114
  151SAPE  C21316750   4.723   5.511   9.132  0.1418  0.0076  0.9844
  151SAPE  H13R16751   4.616   5.487   9.145  0.1975 -0.9531 -0.2183
  151SAPE  H13S16752   4.751   5.407   9.105 -2.6206 -0.2357 -1.3310
  151SAPE  C21416753   4.756   5.614   9.025  0.3979 -0.1890 -0.2477
  151SAPE  H14R16754   4.716   5.711   9.057 -0.0624 -1.3882  3.2744
  151SAPE  C21516755   4.847   5.596   8.929  0.4817 -0.3586 -0.9323
  151SAPE  H15R16756   4.849   5.679   8.856 -1.1868  1.2440  0.7590
  151SAPE  C21616757   4.933   5.475   8.908  0.9586  0.5622 -0.0325
  151SAPE  H16R16758   4.937   5.412   8.999  0.4066 -1.7330 -1.5005
  151SAPE  H16S16759   5.038   5.501   8.885  1.3971  1.5034  2.7228
  151SAPE  C21716760   4.860   5.397   8.793 -0.0026  0.2815 -0.0497
  151SAPE  H17R16761   4.856   5.450   8.696  1.2003 -2.5941 -1.7877
  151SAPE  H17S16762   4.763   5.358   8.830 -0.4837  0.8254 -0.7060
  151SAPE  C21816763   4.953   5.277   8.750  0.3857 -0.1574 -0.5693
  151SAPE  H18R16764   4.983   5.215   8.837  0.1935  0.0177 -0.3764
  151SAPE  H18S16765   5.043   5.324   8.706  1.1776 -0.4146  0.7131
  151SAPE  C21916766   4.892   5.193   8.639  0.8280  0.1715  0.4649
  151SAPE  H19R16767   4.954   5.101   8.634 -1.2402 -1.3102  0.5388
  151SAPE  H19S16768   4.890   5.239   8.538 -2.9303 -1.0601 -0.2045
  151SAPE  C22016769   4.753   5.143   8.666 -0.2974  0.0911 -0.0167
  151SAPE  H20R16770   4.700   5.105   8.577 -1.8626 -0.7231  1.2075
  151SAPE  H20S16771   4.686   5.228   8.693  0.0911  0.5420 -0.4369
  151SAPE  H20T16772   4.774   5.069   8.746  2.6309 -0.8237 -1.5032
  151SAPE   C3316773   3.677   5.672  10.165 -0.1894  0.6401 -0.0638
  151SAPE   H3X16774   3.635   5.767  10.126 -0.7486  0.5833  0.3871
  151SAPE   H3Y16775   3.626   5.650  10.261  0.8376 -0.9615  0.1516
  151SAPE   C3416776   3.633   5.560  10.066 -0.1330 -0.4049  0.6035
  151SAPE   H4X16777   3.523   5.551  10.085 -0.5942  4.2889  1.2701
  151SAPE   H4Y16778   3.683   5.465  10.095  0.4519 -1.6551 -3.7042
  151SAPE   C3516779   3.668   5.584   9.921 -0.1048 -0.1021 -0.1705
  151SAPE   H5X16780   3.775   5.596   9.894  0.0095 -2.5301 -0.9538
  151SAPE   H5Y16781   3.625   5.684   9.899  0.4235 -0.0992 -1.2518
  151SAPE   C3616782   3.603   5.481   9.821 -0.5731 -0.2438  0.1696
  151SAPE   H6X16783   3.503   5.450   9.858  0.2853 -1.8831  1.2143
  151SAPE   H6Y16784   3.667   5.391   9.829  0.0496  0.1293 -0.4621
  151SAPE   C3716785   3.603   5.538   9.683  0.1253 -0.5387  0.5192
  151SAPE   H7X16786   3.567   5.642   9.694  1.3941  0.2855 -2.1231
  151SAPE   H7Y16787   3.527   5.496   9.613 -0.1768  2.7190 -1.2968
  151SAPE   C3816788   3.739   5.537   9.609 -0.1762 -0.1871 -0.9904
  151SAPE   H8X16789   3.774   5.433   9.591  2.9962  0.6064 -0.2190
  151SAPE   H8Y16790   3.817   5.588   9.670  0.5829  0.2535 -2.3002
  151SAPE   C3916791   3.726   5.600   9.468  0.1286  0.0638 -0.2609
  151SAPE   H9X16792   3.669   5.694   9.487 -0.9636 -0.6422  0.1044
  151SAPE   H9Y16793   3.653   5.538   9.412 -0.2517 -1.1298  1.4472
  151SAPE  C31016794   3.856   5.619   9.391  0.4108  0.3781 -0.6736
  151SAPE  H10X16795   3.929   5.535   9.393  0.5249  0.3060 -3.5809
  151SAPE  H10Y16796   3.915   5.701   9.437  2.1697 -0.3967 -1.4185
  151SAPE  C31116797   3.844   5.650   9.242  0.1308  0.3626 -0.3751
  151SAPE  H11X16798   3.775   5.737   9.236  2.3235  2.4230  1.7000
  151SAPE  H11Y16799   3.805   5.565   9.183  2.4686 -2.0674  1.3360
  151SAPE  C31216800   3.978   5.694   9.184  0.2940  0.0128  0.2995
  151SAPE  H12X16801   4.043   5.733   9.266  2.2808  0.0554 -1.2461
  151SAPE  H12Y16802   3.962   5.775   9.109  2.0321 -2.4177 -2.9185
  151SAPE  C31316803   4.052   5.581   9.110  0.0293  0.1053 -0.5424
  151SAPE  H13X16804   3.982   5.557   9.027  1.5267 -0.2011 -1.7681
  151SAPE  H13Y16805   4.079   5.489   9.166 -0.0081  0.3754 -0.0738
  151SAPE  C31416806   4.180   5.638   9.043  0.5807 -0.1872  0.2426
  151SAPE  H14X16807   4.244   5.682   9.123 -0.5594  1.7342  0.1408
  151SAPE  H14Y16808   4.158   5.713   8.964  1.1389 -0.0524  0.2093
  151SAPE  C31516809   4.250   5.522   8.977 -0.2468  0.2658 -0.6506
  151SAPE  H15X16810   4.171   5.492   8.905 -2.2169 -0.7074  1.7627
  151SAPE  H15Y16811   4.267   5.435   9.044  0.7970  1.1009  0.2007
  151SAPE  C31616812   4.377   5.555   8.898  0.3014 -0.0178 -0.0627
  151SAPE  H16X16813   4.474   5.533   8.948 -0.6653 -1.1395  1.3905
  151SAPE  H16Y16814   4.359   5.657   8.858 -1.2753 -0.5320 -0.7413
  151SAPE  C31716815   4.367   5.472   8.766 -0.4032  0.3870 -0.0694
  151SAPE  H17X16816   4.273   5.472   8.706  0.7931  0.7990 -2.0484
  151SAPE  H17Y16817   4.384   5.366   8.795  0.2742  0.2204 -1.0325
  151SAPE  C31816818   4.494   5.490   8.679 -0.0561  0.1056  0.6228
  151SAPE  H18X16819   4.518   5.599   8.678  0.8563  0.0094  3.1918
  151SAPE  H18Y16820   4.466   5.450   8.579 -1.5266  0.4898  0.8547
  151SAPE  H18Z16821   4.574   5.432   8.730 -0.0663 -1.0345 -0.6238
  152SAPE     N16822   5.882   6.634  10.894 -0.4587 -0.1965 -0.0888
  152SAPE   HN116823   5.877   6.610  10.995 -0.3188  0.3004  0.0374
  152SAPE   HN216824   5.814   6.567  10.853 -0.0422 -0.5580 -0.1973
  152SAPE   HN316825   5.977   6.608  10.860  0.2665  1.6009  0.4526
  152SAPE   C1216826   5.856   6.775  10.860  0.7067 -0.5895 -0.0146
  152SAPE  H12A16827   5.947   6.835  10.881 -0.0576  0.6205 -0.0280
  152SAPE  H12B16828   5.781   6.803  10.938  1.6514  1.2969  0.2903
  152SAPE   C1116829   5.832   6.801  10.711  0.0408  0.1771 -0.1673
  152SAPE  H11A16830   5.812   6.907  10.685 -1.1873 -0.0956 -0.4219
  152SAPE  H11B16831   5.740   6.745  10.680  1.2221 -0.4858 -2.7898
  152SAPE     P16832   6.071   6.839  10.610 -0.0563  0.2148  0.3444
  152SAPE   O1316833   6.050   6.978  10.650  0.0383 -0.3417  0.1735
  152SAPE   O1416834   6.171   6.762  10.689  0.2652 -0.4901 -0.5232
  152SAPE   O1216835   5.942   6.757  10.630 -0.1137 -0.3378  0.1510
  152SAPE   O1116836   6.102   6.825  10.464  0.3962 -0.1838 -0.4891
  152SAPE    C116837   6.047   6.727  10.383 -0.4556  0.0241 -0.7471
  152SAPE    HA16838   6.081   6.627  10.418  1.2791 -0.6254 -3.9399
  152SAPE    HB16839   5.936   6.737  10.383 -0.2641  3.7822 -1.8933
  152SAPE    C216840   6.093   6.744  10.237  0.2274  0.9744 -0.5780
  152SAPE    HS16841   6.203   6.725  10.236  0.2711  0.9306  1.2139
  152SAPE   O2116842   6.049   6.874  10.188 -0.0492 -0.1527 -0.6267
  152SAPE   C2116843   6.121   6.975  10.208  0.2157  0.4811 -0.7224
  152SAPE   O2216844   6.230   6.985  10.262 -0.1643  0.0922 -0.4512
  152SAPE   C2216845   6.045   7.087  10.147 -0.3780  0.0873  0.1265
  152SAPE   H2R16846   5.938   7.084  10.177 -0.4387  2.8025  0.3900
  152SAPE   H2S16847   6.095   7.180  10.183 -1.4528  1.1538 -1.0365
  152SAPE    C316848   6.023   6.625  10.156 -0.1711 -0.4279  0.3054
  152SAPE    HX16849   5.912   6.629  10.166 -0.2291  0.8682 -0.6181
  152SAPE    HY16850   6.065   6.528  10.190  3.6636  0.6434 -0.8918
  152SAPE   O3116851   6.050   6.630  10.008  0.6408  0.0477 -0.8155
  152SAPE   C3116852   6.182   6.614   9.976  0.3258  0.4182 -0.4298
  152SAPE   O3216853   6.275   6.605  10.058  0.2763 -0.3617  0.2940
  152SAPE   C3216854   6.194   6.606   9.826 -0.6225  0.1686 -0.3570
  152SAPE   H2X16855   6.165   6.705   9.785  0.6964  1.0522  0.7626
  152SAPE   H2Y16856   6.115   6.539   9.788  0.3949 -0.9788 -0.5186
  152SAPE   C2316857   6.051   7.086   9.992 -0.4582  0.9248 -0.4206
  152SAPE   H3R16858   5.980   7.165   9.961 -1.2840 -1.0148 -4.0554
  152SAPE   H3S16859   6.000   6.999   9.945 -2.8000  0.3385  2.9324
  152SAPE   C2416860   6.188   7.114   9.928  0.6307  0.2280 -0.0632
  152SAPE   H4R16861   6.222   7.203   9.986  0.5808  3.2192 -4.2330
  152SAPE   H4S16862   6.161   7.157   9.830 -2.2946 -2.2254 -0.4643
  152SAPE   C2516863   6.279   6.995   9.917  0.6679  0.0285  0.4189
  152SAPE   H5R16864   6.290   6.941  10.013  1.0605 -0.0041  0.3582
  152SAPE   C2616865   6.339   6.954   9.805  1.2506  0.9962  0.9419
  152SAPE   H6R16866   6.416   6.876   9.813  0.3353  0.1328  1.5514
  152SAPE   C2716867   6.332   7.017   9.668  0.4205 -0.2633 -0.3152
  152SAPE   H7R16868   6.434   6.993   9.631  2.1677 -1.0381  4.3387
  152SAPE   H7S16869   6.327   7.128   9.674 -0.3682 -0.3548  0.8520
  152SAPE   C2816870   6.224   6.965   9.575  0.4021  0.5248 -0.5965
  152SAPE   H8R16871   6.124   6.968   9.623  1.0091  1.0079  0.6866
  152SAPE   C2916872   6.235   6.906   9.447  0.4759  0.0955  0.3441
  152SAPE   H9R16873   6.147   6.877   9.389  1.4791  0.6661 -1.5426
  152SAPE  C21016874   6.377   6.892   9.394  0.3169 -0.2072  0.0670
  152SAPE  H10R16875   6.367   6.819   9.310  2.2233  0.6905 -1.0066
  152SAPE  H10S16876   6.448   6.852   9.470 -0.3357 -0.5151  0.5237
  152SAPE  C21116877   6.434   7.017   9.331  0.2634  0.1949 -0.5220
  152SAPE  H11R16878   6.465   7.097   9.400  1.0802 -0.3522 -0.2359
  152SAPE  C21216879   6.469   7.038   9.199 -0.4023  0.1305 -0.0707
  152SAPE  H12R16880   6.500   7.138   9.165  0.8589 -0.5855 -1.1445
  152SAPE  C21316881   6.449   6.941   9.086  0.1827  0.3427  0.1679
  152SAPE  H13R16882   6.422   6.839   9.121 -0.2283  0.7841  1.1803
  152SAPE  H13S16883   6.546   6.935   9.032  0.4335 -1.9982  0.7851
  152SAPE  C21416884   6.336   6.993   8.999  0.0704  0.9094 -0.4171
  152SAPE  H14R16885   6.234   6.978   9.037  1.4155 -1.4195  2.7013
  152SAPE  C21516886   6.344   7.035   8.878  0.0695  0.1707  0.3995
  152SAPE  H15R16887   6.255   7.070   8.824 -2.1619 -1.2924  2.8963
  152SAPE  C21616888   6.472   7.048   8.799  0.2078 -0.0252 -0.2760
  152SAPE  H16R16889   6.559   7.002   8.850 -0.1066 -2.5775 -1.8051
  152SAPE  H16S16890   6.481   7.153   8.764  2.8608  0.5695  1.8406
  152SAPE  C21716891   6.469   6.964   8.655  0.6308 -0.4796 -0.8530
  152SAPE  H17R16892   6.379   6.982   8.593  1.0155 -1.8192 -1.8291
  152SAPE  H17S16893   6.462   6.860   8.694  0.0836  0.1562  0.8754
  152SAPE  C21816894   6.597   6.981   8.572  0.0571 -0.4185  0.1240
  152SAPE  H18R16895   6.683   6.988   8.642 -1.0312 -1.5390  1.6173
  152SAPE  H18S16896   6.585   7.069   8.506 -1.5453 -0.6584  0.0582
  152SAPE  C21916897   6.618   6.863   8.471  0.0743 -0.5245  0.0080
  152SAPE  H19R16898   6.526   6.847   8.410  0.6355  2.0106 -1.6678
  152SAPE  H19S16899   6.649   6.774   8.529  1.1639 -0.4401 -0.4324
  152SAPE  C22016900   6.714   6.900   8.356 -0.1036 -0.7100 -0.1507
  152SAPE  H20R16901   6.773   6.813   8.321 -1.0254 -0.7951 -1.5975
  152SAPE  H20S16902   6.787   6.968   8.404 -0.6618 -1.0868  1.2925
  152SAPE  H20T16903   6.678   6.959   8.269  1.6990 -0.2953 -0.6526
  152SAPE   C3316904   6.335   6.552   9.773  0.6319  0.6689 -0.5426
  152SAPE   H3X16905   6.338   6.442   9.786 -1.2192  0.7992  1.7709
  152SAPE   H3Y16906   6.414   6.586   9.843  2.6316  0.6092 -2.6406
  152SAPE   C3416907   6.373   6.593   9.630 -0.0376 -0.3602  1.1590
  152SAPE   H4X16908   6.359   6.703   9.626  1.0665 -0.2380  0.0594
  152SAPE   H4Y16909   6.305   6.544   9.557  0.0414 -2.0070  2.1289
  152SAPE   C3516910   6.513   6.544   9.593 -0.0997  0.3023 -0.3946
  152SAPE   H5X16911   6.517   6.433   9.598  1.7426  0.2498 -2.0248
  152SAPE   H5Y16912   6.584   6.586   9.667  0.8360  1.3198 -1.8184
  152SAPE   C3616913   6.566   6.574   9.452 -0.0672 -0.4829 -0.1514
  152SAPE   H6X16914   6.662   6.520   9.445  0.0371 -0.6131  1.7971
  152SAPE   H6Y16915   6.579   6.685   9.450 -2.3689 -0.1404  0.4869
  152SAPE   C3716916   6.474   6.539   9.341  0.0763 -0.7507 -0.1784
  152SAPE   H7X16917   6.389   6.610   9.347  1.7573  1.3594  0.0652
  152SAPE   H7Y16918   6.434   6.436   9.354  3.9088 -2.3624  0.2009
  152SAPE   C3816919   6.543   6.554   9.204  0.4347  0.3510  0.2480
  152SAPE   H8X16920   6.633   6.490   9.208  1.2015  1.3035 -1.0112
  152SAPE   H8Y16921   6.570   6.660   9.189 -1.1037  0.3809 -3.5205
  152SAPE   C3916922   6.435   6.515   9.092 -0.4366  0.3898  0.3561
  152SAPE   H9X16923   6.348   6.580   9.114 -3.3885 -2.1538 -2.7145
  152SAPE   H9Y16924   6.411   6.407   9.091 -1.3785  0.5919  0.1746
  152SAPE  C31016925   6.453   6.561   8.947  0.4483 -0.0166  0.4457
  152SAPE  H10X16926   6.485   6.667   8.938 -0.6217  0.2619 -0.2281
  152SAPE  H10Y16927   6.356   6.545   8.895  0.7451  0.8709 -0.4386
  152SAPE  C31116928   6.554   6.469   8.877 -0.3175  0.0599 -0.1731
  152SAPE  H11X16929   6.538   6.363   8.908  1.9737 -0.6610 -1.2471
  152SAPE  H11Y16930   6.647   6.493   8.933 -1.7719  0.2117  2.3827
  152SAPE  C31216931   6.553   6.485   8.727 -0.3575 -0.7112 -0.1200
  152SAPE  H12X16932   6.555   6.594   8.704  1.0365 -0.3142  1.6903
  152SAPE  H12Y16933   6.462   6.438   8.683  0.4099 -0.7715 -1.7465
  152SAPE  C31316934   6.676   6.425   8.657  0.4999  0.7761  0.3693
  152SAPE  H13X16935   6.667   6.317   8.682  0.7330  0.1721 -1.9011
  152SAPE  H13Y16936   6.772   6.463   8.699  1.5191  0.0623 -1.2105
  152SAPE  C31416937   6.686   6.452   8.503  0.2980 -0.5848 -0.2458
  152SAPE  H14X16938   6.714   6.557   8.479  2.0553 -0.8770  0.3526
  152SAPE  H14Y16939   6.582   6.433   8.469  0.9210 -1.6938 -1.6531
  152SAPE  C31516940   6.786   6.362   8.428  0.5013 -0.1850  0.2088
  152SAPE  H15X16941   6.786   6.256   8.463  1.0571 -0.7661 -1.4427
  152SAPE  H15Y16942   6.884   6.407   8.457  0.3447  0.4424 -0.2080
  152SAPE  C31616943   6.763   6.353   8.280 -0.3761 -0.4661 -0.0031
  152SAPE  H16X16944   6.780   6.456   8.244  0.5956 -1.0030 -1.1437
  152SAPE  H16Y16945   6.659   6.316   8.265 -0.0235 -0.8407 -1.7726
  152SAPE  C31716946   6.866   6.257   8.211  0.2581 -0.0002 -0.7627
  152SAPE  H17X16947   6.967   6.264   8.258  0.2590  0.4416 -0.8253
  152SAPE  H17Y16948   6.874   6.283   8.103 -0.4677 -0.5413 -0.9492
  152SAPE  C31816949   6.815   6.112   8.211  0.0739  0.1028 -0.4367
  152SAPE  H18X16950   6.706   6.096   8.198  0.0013 -1.2750  1.4971
  152SAPE  H18Y16951   6.826   6.078   8.316  2.1557  0.2821 -0.5554
  152SAPE  H18Z16952   6.875   6.039   8.153  1.5212 -0.4704  1.6412
  153SAPE     N16953   3.487   1.209  10.857 -0.6991 -0.2099  0.6522
  153SAPE   HN116954   3.404   1.247  10.907 -0.4046  1.5655 -0.1243
  153SAPE   HN216955   3.539   1.142  10.917  1.5661  0.6414 -0.2439
  153SAPE   HN316956   3.544   1.290  10.826 -1.6983  0.0507 -0.6277
  153SAPE   C1216957   3.447   1.129  10.732 -0.3735 -1.1432 -0.6868
  153SAPE  H12A16958   3.403   1.198  10.657 -1.5834 -0.8284  0.2876
  153SAPE  H12B16959   3.369   1.059  10.769 -0.2888 -0.5241  0.7113
  153SAPE   C1116960   3.563   1.048  10.686 -0.1420  0.2469  0.4248
  153SAPE  H11A16961   3.646   1.110  10.644 -1.4761  0.1622 -2.6607
  153SAPE  H11B16962   3.519   1.005  10.594  0.4579 -1.2951  0.8405
  153SAPE     P16963   3.539   0.793  10.764 -0.1651 -0.0955  0.0628
  153SAPE   O1316964   3.633   0.704  10.695  0.0329  0.0516 -0.5492
  153SAPE   O1416965   3.498   0.756  10.907 -0.7469  0.3322  0.8768
  153SAPE   O1216966   3.602   0.943  10.776 -0.2571  0.0934  0.6907
  153SAPE   O1116967   3.415   0.819  10.669  0.3080 -0.1307  0.6504
  153SAPE    C116968   3.344   0.713  10.612 -0.5315  0.7924  0.0233
  153SAPE    HA16969   3.377   0.613  10.647 -2.7930  0.2275  0.7047
  153SAPE    HB16970   3.237   0.722  10.640 -1.1475 -1.3364 -1.3855
  153SAPE    C216971   3.366   0.717  10.456 -0.0001  0.3786  0.6140
  153SAPE    HS16972   3.389   0.821  10.423  0.7803 -0.5962 -2.2057
  153SAPE   O2116973   3.252   0.671  10.379 -0.8578 -0.2014  0.3391
  153SAPE   C2116974   3.152   0.749  10.356  0.3839 -0.2822  0.5520
  153SAPE   O2216975   3.124   0.858  10.412 -0.3542 -0.0004  0.3739
  153SAPE   C2216976   3.078   0.701  10.229 -0.0019  0.1428  0.0943
  153SAPE   H2R16977   3.029   0.604  10.251  1.1397 -1.1025 -2.4324
  153SAPE   H2S16978   3.000   0.774  10.200  1.2414  1.2975 -0.4690
  153SAPE    C316979   3.480   0.621  10.419  0.3692  0.6489 -0.1372
  153SAPE    HX16980   3.449   0.517  10.444  0.5434 -0.0476 -2.6122
  153SAPE    HY16981   3.563   0.660  10.483 -0.7209  1.1546  1.0109
  153SAPE   O3116982   3.516   0.628  10.279 -0.2826  0.1247  0.6020
  153SAPE   C3116983   3.636   0.591  10.248 -0.3175  0.4786 -0.3426
  153SAPE   O3216984   3.711   0.528  10.329  0.5410  0.5211  0.1574
  153SAPE   C3216985   3.670   0.640  10.107 -0.4177 -0.1788 -0.4425
  153SAPE   H2X16986   3.665   0.751  10.106  1.2830 -0.0693 -2.4810
  153SAPE   H2Y16987   3.591   0.600  10.041  0.2486 -0.5680 -1.0178
  153SAPE   C2316988   3.168   0.690  10.103  0.2297  0.2213 -0.0793
  153SAPE   H3R16989   3.128   0.615  10.032 -0.4578 -1.1368  1.6599
  153SAPE   H3S16990   3.267   0.647  10.127  1.7693  3.3766 -0.2225
  153SAPE   C2416991   3.184   0.825  10.038 -0.0077  0.8510 -0.5717
  153SAPE   H4R16992   3.091   0.886  10.048  1.0292  3.4521 -4.3763
  153SAPE   H4S16993   3.201   0.828   9.928  0.3864 -0.0530 -0.5455
  153SAPE   C2516994   3.292   0.903  10.108 -0.0597 -0.0428  0.3796
  153SAPE   H5R16995   3.275   0.920  10.215  1.9918  0.2335  0.6947
  153SAPE   C2616996   3.409   0.942  10.049 -0.2246  0.0503 -0.6792
  153SAPE   H6R16997   3.486   0.990  10.111 -1.0346  1.5421 -0.7720
  153SAPE   C2716998   3.443   0.904   9.908  0.1780 -0.4130 -0.6629
  153SAPE   H7R16999   3.361   0.942   9.842  0.9707  0.2763 -1.2695
  153SAPE   H7S17000   3.433   0.793   9.911  0.6219 -0.4602  2.6602
  153SAPE   C2817001   3.587   0.934   9.861 -0.3781 -0.2314 -0.1709
  153SAPE   H8R17002   3.671   0.921   9.931 -0.6250 -0.5463  0.0693
  153SAPE   C2917003   3.621   0.989   9.742  0.6255  0.2630  0.2637
  153SAPE   H9R17004   3.728   1.010   9.725  0.1959  2.6866  0.0888
  153SAPE  C21017005   3.535   1.037   9.632  0.0919 -0.4917 -0.4021
  153SAPE  H10R17006   3.432   1.004   9.655  0.6596 -1.2742  1.1114
  153SAPE  H10S17007   3.569   0.989   9.538  0.4414 -1.8463  0.3958
  153SAPE  C21117008   3.557   1.185   9.615  0.0518  0.0428 -0.2144
  153SAPE  H11R17009   3.589   1.241   9.705 -0.8188 -2.5801  1.8510
  153SAPE  C21217010   3.515   1.250   9.506 -0.4286 -0.6983  0.2563
  153SAPE  H12R17011   3.535   1.358   9.505 -0.3027 -0.7203  0.3480
  153SAPE  C21317012   3.465   1.186   9.384  0.1850 -0.3734  0.2475
  153SAPE  H13R17013   3.375   1.123   9.399 -1.5435  0.7177 -3.9842
  153SAPE  H13S17014   3.542   1.118   9.342  0.2764  0.9182 -1.8304
  153SAPE  C21417015   3.405   1.287   9.296  0.6984 -0.4300  0.9880
  153SAPE  H14R17016   3.390   1.386   9.343  0.3234  1.3221 -2.5265
  153SAPE  C21517017   3.400   1.274   9.156 -0.6987 -0.3864 -0.2808
  153SAPE  H15R17018   3.354   1.357   9.102 -1.1594  1.2188  2.3774
  153SAPE  C21617019   3.453   1.152   9.084 -0.2845  0.4615  0.2858
  153SAPE  H16R17020   3.369   1.110   9.024 -0.3596 -0.1247  0.7871
  153SAPE  H16S17021   3.474   1.074   9.161 -0.2649  1.9407  1.8408
  153SAPE  C21717022   3.575   1.194   9.007  0.1292  0.4153  0.3908
  153SAPE  H17R17023   3.630   1.100   8.989 -1.8984 -0.6017 -0.9424
  153SAPE  H17S17024   3.654   1.256   9.055 -0.4666  2.8586 -1.5883
  153SAPE  C21817025   3.539   1.241   8.862 -0.4225 -0.7136  0.4358
  153SAPE  H18R17026   3.448   1.305   8.867 -0.2434 -0.1196 -2.1040
  153SAPE  H18S17027   3.507   1.155   8.799 -0.2199 -0.2850 -0.2681
  153SAPE  C21917028   3.656   1.317   8.786  0.2026  0.4277 -0.5292
  153SAPE  H19R17029   3.625   1.333   8.681  1.2431  0.1756 -0.8934
  153SAPE  H19S17030   3.750   1.258   8.783 -0.0615  0.0400 -1.5301
  153SAPE  C22017031   3.688   1.462   8.839 -0.5578  0.9290 -0.5454
  153SAPE  H20R17032   3.600   1.529   8.841 -1.2540  0.0551 -0.9790
  153SAPE  H20S17033   3.770   1.506   8.778 -0.7882  2.5214  0.2586
  153SAPE  H20T17034   3.725   1.446   8.942  1.2681  2.5318 -0.8837
  153SAPE   C3317035   3.803   0.594  10.043  0.9087  0.1457  0.1933
  153SAPE   H3X17036   3.789   0.485  10.026 -3.5672  0.5862 -0.1495
  153SAPE   H3Y17037   3.882   0.623  10.115 -1.9986 -0.1544  3.7709
  153SAPE   C3417038   3.826   0.669   9.910  0.0904 -0.1653  0.1289
  153SAPE   H4X17039   3.862   0.773   9.926  0.8008 -0.1894 -1.1695
  153SAPE   H4Y17040   3.730   0.687   9.857  0.9365  0.9616 -1.1095
  153SAPE   C3517041   3.928   0.590   9.820 -0.0049 -0.1232  0.8093
  153SAPE   H5X17042   3.907   0.481   9.825  1.1122 -0.3985  0.0472
  153SAPE   H5Y17043   4.026   0.609   9.869 -0.9524 -0.0829  2.8068
  153SAPE   C3617044   3.917   0.626   9.674 -0.0840  0.5304  0.4961
  153SAPE   H6X17045   3.814   0.604   9.639 -0.0059 -0.7727  1.0009
  153SAPE   H6Y17046   3.982   0.555   9.617 -0.4857 -0.2328  0.9651
  153SAPE   C3717047   3.963   0.765   9.654 -0.1161 -0.8980  0.5449
  153SAPE   H7X17048   4.070   0.753   9.683  0.0987  0.9232  0.6335
  153SAPE   H7Y17049   3.924   0.841   9.725  2.0278  0.4015  0.4234
  153SAPE   C3817050   3.948   0.817   9.516  0.6363 -0.0769  0.0855
  153SAPE   H8X17051   3.995   0.917   9.503 -1.5203  0.9085 -0.5905
  153SAPE   H8Y17052   3.838   0.831   9.504  0.7014  0.7971  0.4891
  153SAPE   C3917053   4.007   0.731   9.405  1.2084  1.2220  0.2416
  153SAPE   H9X17054   3.947   0.638   9.391  0.4251  1.5484  1.2506
  153SAPE   H9Y17055   4.115   0.710   9.419  1.0653 -0.5773 -1.0395
  153SAPE  C31017056   4.010   0.804   9.277  0.3048  0.0838 -0.3423
  153SAPE  H10X17057   4.073   0.895   9.288  1.3208 -0.4650 -1.3877
  153SAPE  H10Y17058   3.904   0.833   9.262  0.2126  1.6108  2.6002
  153SAPE  C31117059   4.075   0.734   9.154  0.3254 -0.1509  0.3058
  153SAPE  H11X17060   4.179   0.714   9.188  0.7088  2.8786  1.2202
  153SAPE  H11Y17061   4.080   0.797   9.063 -3.1370  1.5816  1.1424
  153SAPE  C31217062   3.998   0.610   9.114 -0.1878 -0.1987 -0.1594
  153SAPE  H12X17063   3.888   0.623   9.111 -0.7401 -2.6977  3.2904
  153SAPE  H12Y17064   4.029   0.536   9.190 -1.1040  0.4755  0.8943
  153SAPE  C31317065   4.054   0.555   8.979  0.3917  0.8419  0.0286
  153SAPE  H13X17066   4.165   0.552   8.984  0.5017 -1.0111 -2.1254
  153SAPE  H13Y17067   4.036   0.620   8.890 -1.2690  0.2450 -0.0951
  153SAPE  C31417068   3.993   0.421   8.939 -0.3891 -0.0209  0.4585
  153SAPE  H14X17069   3.889   0.434   8.901  0.4772  0.6502 -1.8855
  153SAPE  H14Y17070   3.984   0.345   9.019 -0.9398 -0.3354  0.1077
  153SAPE  C31517071   4.059   0.365   8.816  0.1038  0.0484  0.5112
  153SAPE  H15X17072   4.170   0.356   8.819  0.1130 -1.3659 -1.6000
  153SAPE  H15Y17073   4.031   0.439   8.737 -0.0938 -0.6412 -0.0738
  153SAPE  C31617074   4.020   0.223   8.768  0.1779  0.4216 -0.0513
  153SAPE  H16X17075   4.067   0.201   8.670  2.1189  1.4469  0.5883
  153SAPE  H16Y17076   3.910   0.215   8.758  0.3824  0.3735 -3.3594
  153SAPE  C31717077   4.062   0.105   8.859  0.0782 -0.1784 -0.6654
  153SAPE  H17X17078   4.032   0.020   8.794 -1.9004  0.8868 -1.2143
  153SAPE  H17Y17079   4.001   0.110   8.951  1.7618 -1.3368  0.5777
  153SAPE  C31817080   4.213   0.097   8.891  0.3525 -0.4565 -0.0449
  153SAPE  H18X17081   4.272   0.081   8.798  2.6994  0.0270  1.2778
  153SAPE  H18Y17082   4.240   0.021   8.966 -0.1548 -2.4489 -1.7982
  153SAPE  H18Z17083   4.242   0.194   8.938 -1.1017 -0.9723  2.0603
  154SAPE     N17084   5.884   1.648  11.402 -0.5457  0.1751 -0.7118
  154SAPE   HN117085   5.936   1.651  11.492 -0.2602  0.8105 -0.8955
  154SAPE   HN217086   5.799   1.707  11.413  0.2707  1.0146  1.9576
  154SAPE   HN317087   5.855   1.549  11.385  0.3177 -0.1269 -0.4694
  154SAPE   C1217088   5.965   1.692  11.283  0.0363  0.1336 -0.1887
  154SAPE  H12A17089   6.066   1.649  11.297  0.3799  0.8175 -0.4831
  154SAPE  H12B17090   5.974   1.803  11.288 -1.7856  0.3227 -0.4260
  154SAPE   C1117091   5.903   1.621  11.162 -0.1740  0.0913  0.0277
  154SAPE  H11A17092   5.956   1.655  11.070  1.7864  2.4180  1.8798
  154SAPE  H11B17093   5.797   1.653  11.153 -0.6100 -0.9529  1.2248
  154SAPE     P17094   5.855   1.390  11.055  0.1534  0.0831 -0.1508
  154SAPE   O1317095   5.911   1.249  11.055  0.0192 -0.1906  0.0424
  154SAPE   O1417096   5.709   1.394  11.071 -0.3926 -0.7689 -0.2917
  154SAPE   O1217097   5.919   1.478  11.178  0.2480  0.3044 -0.1534
  154SAPE   O1117098   5.904   1.459  10.932  0.0908 -0.1580 -0.1125
  154SAPE    C117099   5.819   1.494  10.820 -0.1954 -0.7575 -0.6500
  154SAPE    HA17100   5.758   1.412  10.775 -1.0374  0.7582 -2.4012
  154SAPE    HB17101   5.751   1.577  10.850  2.6618  0.6101  2.6595
  154SAPE    C217102   5.906   1.530  10.693  0.2394  0.1538 -0.6980
  154SAPE    HS17103   5.945   1.630  10.723 -2.4036  0.3873  2.5214
  154SAPE   O2117104   5.824   1.519  10.578 -0.4721 -0.3840 -0.0436
  154SAPE   C2117105   5.753   1.636  10.549 -0.3330  0.3068 -0.3304
  154SAPE   O2217106   5.753   1.729  10.625  0.1717 -0.3147  0.0564
  154SAPE   C2217107   5.683   1.634  10.404 -0.0707 -0.6154 -0.0398
  154SAPE   H2R17108   5.667   1.741  10.382 -0.4893 -0.4705  0.9000
  154SAPE   H2S17109   5.762   1.586  10.343  0.0377  0.4660 -0.7651
  154SAPE    C317110   6.028   1.434  10.689  0.1027  0.2285  0.5139
  154SAPE    HX17111   5.983   1.333  10.672 -0.2606  0.3636  0.6734
  154SAPE    HY17112   6.090   1.433  10.781 -0.9716 -1.1288  1.2764
  154SAPE   O3117113   6.113   1.475  10.583  0.0997  0.5000 -0.3128
  154SAPE   C3117114   6.155   1.382  10.498 -0.4085  0.6205 -0.1406
  154SAPE   O3217115   6.134   1.262  10.504  0.0411  0.1628  0.5039
  154SAPE   C3217116   6.240   1.448  10.390 -0.0396 -0.1693 -0.1002
  154SAPE   H2X17117   6.325   1.493  10.446 -1.2527  1.3583  0.5588
  154SAPE   H2Y17118   6.184   1.526  10.335  1.1920 -0.1966 -1.4707
  154SAPE   C2317119   5.557   1.546  10.420  0.3783 -0.3089  0.0169
  154SAPE   H3R17120   5.486   1.584  10.496 -1.3809 -0.9183 -1.2595
  154SAPE   H3S17121   5.578   1.442  10.455  0.4362  0.0681  1.1231
  154SAPE   C2417122   5.489   1.526  10.282 -0.6624 -0.5182  0.0769
  154SAPE   H4R17123   5.439   1.427  10.287  0.3077 -1.0149  0.2158
  154SAPE   H4S17124   5.574   1.499  10.217  0.5723 -0.3630  1.5497
  154SAPE   C2517125   5.403   1.640  10.229 -0.2471  0.9015  0.0295
  154SAPE   H5R17126   5.322   1.668  10.297  0.0155 -1.8588  1.6327
  154SAPE   C2617127   5.429   1.709  10.116  0.2617  0.0514 -0.1204
  154SAPE   H6R17128   5.350   1.774  10.077 -0.5514 -0.5561  0.4854
  154SAPE   C2717129   5.545   1.694  10.020 -0.0085  1.2194 -0.2135
  154SAPE   H7R17130   5.639   1.688  10.080 -0.1722  0.3121 -0.0248
  154SAPE   H7S17131   5.564   1.782   9.955  2.1192 -0.5593 -2.1971
  154SAPE   C2817132   5.537   1.567   9.935 -0.3045  0.5759 -0.0056
  154SAPE   H8R17133   5.530   1.471   9.989 -0.3472  0.5931  0.0190
  154SAPE   C2917134   5.548   1.568   9.800  0.3129 -0.3347  0.3873
  154SAPE   H9R17135   5.519   1.479   9.742 -0.2559 -0.0244  0.1929
  154SAPE  C21017136   5.562   1.691   9.714  0.7042 -0.8528 -0.1178
  154SAPE  H10R17137   5.598   1.787   9.758  1.7602 -1.1438 -0.3197
  154SAPE  H10S17138   5.458   1.720   9.689  1.2475  1.9268  0.4408
  154SAPE  C21117139   5.628   1.664   9.590 -0.1443  0.4228  0.9098
  154SAPE  H11R17140   5.729   1.706   9.580  0.0084 -0.1999 -0.5689
  154SAPE  C21217141   5.587   1.582   9.487 -1.0690  0.1585  0.3146
  154SAPE  H12R17142   5.654   1.583   9.401  0.9206 -1.4010  1.7667
  154SAPE  C21317143   5.461   1.504   9.477  0.1630  0.4206  0.6532
  154SAPE  H13R17144   5.390   1.540   9.554 -1.2379  2.8840 -1.6312
  154SAPE  H13S17145   5.469   1.393   9.481 -0.0894  0.4167  1.0301
  154SAPE  C21417146   5.393   1.532   9.345 -0.4971 -0.0515 -0.0935
  154SAPE  H14R17147   5.375   1.640   9.336 -0.3664  0.1942  2.1900
  154SAPE  C21517148   5.338   1.434   9.261 -0.5490 -0.7096  0.0321
  154SAPE  H15R17149   5.292   1.471   9.168 -0.4548 -0.0831  0.2279
  154SAPE  C21617150   5.341   1.285   9.281  0.6523  0.7265 -0.0960
  154SAPE  H16R17151   5.282   1.271   9.374 -0.5557  1.7895 -0.6737
  154SAPE  H16S17152   5.438   1.235   9.304 -0.9220 -0.9756  3.6461
  154SAPE  C21717153   5.274   1.197   9.181 -1.0878 -0.4475  0.3122
  154SAPE  H17R17154   5.180   1.245   9.145 -0.9538  0.0538  0.6290
  154SAPE  H17S17155   5.245   1.098   9.222 -0.7853 -0.0535  1.5250
  154SAPE  C21817156   5.360   1.178   9.054  0.4052  0.1872 -0.1003
  154SAPE  H18R17157   5.461   1.138   9.077  0.6098 -0.8354 -2.4310
  154SAPE  H18S17158   5.388   1.276   9.010  0.0149 -0.1806 -1.1980
  154SAPE  C21917159   5.295   1.098   8.941 -0.7057 -0.1974 -0.6349
  154SAPE  H19R17160   5.199   1.143   8.908 -1.2060 -0.0627  0.9179
  154SAPE  H19S17161   5.260   1.000   8.980 -1.4836  0.4317  0.3093
  154SAPE  C22017162   5.384   1.091   8.811  0.1313 -0.5872  0.2358
  154SAPE  H20R17163   5.318   1.054   8.730  0.5079 -0.9326  0.0798
  154SAPE  H20S17164   5.474   1.027   8.799 -0.7033 -1.7122 -0.2009
  154SAPE  H20T17165   5.419   1.193   8.784 -2.9248  0.7929  1.0472
  154SAPE   C3317166   6.300   1.352  10.289  0.5841  0.6433  0.4335
  154SAPE   H3X17167   6.224   1.336  10.210 -0.3817 -0.3462  1.5103
  154SAPE   H3Y17168   6.318   1.252  10.335 -0.6123 -0.1142 -0.6671
  154SAPE   C3417169   6.425   1.415  10.213  0.0713  1.0074  0.3118
  154SAPE   H4X17170   6.501   1.426  10.294  0.1634 -0.9955  0.5382
  154SAPE   H4Y17171   6.397   1.512  10.166 -0.5487  1.1766  1.0126
  154SAPE   C3517172   6.486   1.337  10.094 -0.1546 -0.8052 -0.4430
  154SAPE   H5X17173   6.513   1.236  10.130 -0.0087 -0.0887  1.6024
  154SAPE   H5Y17174   6.582   1.383  10.062  1.8295 -3.1575  1.7353
  154SAPE   C3617175   6.386   1.332   9.967 -0.4280  0.3299 -0.7569
  154SAPE   H6X17176   6.370   1.432   9.921 -0.3135  0.1532 -1.1882
  154SAPE   H6Y17177   6.291   1.290  10.007 -0.9149  0.7258 -1.4788
  154SAPE   C3717178   6.440   1.249   9.848 -0.1143 -0.7586  0.0448
  154SAPE   H7X17179   6.494   1.156   9.874  0.1137 -1.1886 -1.8009
  154SAPE   H7Y17180   6.518   1.318   9.807 -0.2946  0.2973  1.3847
  154SAPE   C3817181   6.332   1.229   9.740 -0.2221  0.4841  0.1904
  154SAPE   H8X17182   6.273   1.323   9.736 -2.1748 -0.6733  0.4885
  154SAPE   H8Y17183   6.261   1.149   9.770 -0.8732  1.0612  0.2153
  154SAPE   C3917184   6.380   1.194   9.599 -0.6364  0.2149 -0.5383
  154SAPE   H9X17185   6.310   1.119   9.557  0.2151 -3.7339  4.2429
  154SAPE   H9Y17186   6.471   1.133   9.611 -1.4635 -1.4885 -2.3719
  154SAPE  C31017187   6.406   1.318   9.509 -0.6857 -0.4293 -0.4811
  154SAPE  H10X17188   6.476   1.384   9.564  1.2485 -3.3466  0.8471
  154SAPE  H10Y17189   6.309   1.370   9.494  0.2449  1.5004 -0.0507
  154SAPE  C31117190   6.456   1.274   9.373  0.1405 -0.0778 -0.2854
  154SAPE  H11X17191   6.398   1.191   9.329 -1.2340  1.1393 -0.8561
  154SAPE  H11Y17192   6.559   1.239   9.392 -0.5227 -0.7363  2.6325
  154SAPE  C31217193   6.464   1.394   9.278  0.4460 -0.1960 -0.2307
  154SAPE  H12X17194   6.509   1.478   9.334 -3.7708  2.7399 -0.7603
  154SAPE  H12Y17195   6.364   1.436   9.253  1.2621  1.8932 -0.1320
  154SAPE  C31317196   6.529   1.364   9.150 -0.0566  0.3870 -0.0272
  154SAPE  H13X17197   6.480   1.272   9.111 -0.4894  0.7771 -0.4029
  154SAPE  H13Y17198   6.634   1.332   9.168 -0.4512  0.2494  2.2509
  154SAPE  C31417199   6.533   1.473   9.042  0.0254 -0.5913  0.0288
  154SAPE  H14X17200   6.594   1.556   9.083  3.8318 -2.8874 -0.4570
  154SAPE  H14Y17201   6.430   1.512   9.036 -0.3907 -1.1851  2.2832
  154SAPE  C31517202   6.580   1.408   8.911  0.0822  0.0175 -0.3522
  154SAPE  H15X17203   6.520   1.316   8.894 -1.9596  1.0449  0.8644
  154SAPE  H15Y17204   6.684   1.370   8.909  0.1909  0.3217 -0.6421
  154SAPE  C31617205   6.560   1.511   8.787  0.3609 -0.3971  0.1724
  154SAPE  H16X17206   6.451   1.533   8.787  0.5108  0.6181 -2.0703
  154SAPE  H16Y17207   6.585   1.464   8.690  1.8893  1.7599 -0.5680
  154SAPE  C31717208   6.646   1.632   8.806 -0.2144  0.7720  0.1793
  154SAPE  H17X17209   6.748   1.619   8.848  0.1548 -0.2310 -0.9501
  154SAPE  H17Y17210   6.603   1.689   8.891 -0.4919  1.0231 -0.1282
  154SAPE  C31817211   6.654   1.712   8.679 -0.2955 -0.1804  0.5958
  154SAPE  H18X17212   6.705   1.809   8.696 -1.9322  0.4627  2.1624
  154SAPE  H18Y17213   6.552   1.719   8.636 -0.5462 -1.3077  0.9757
  154SAPE  H18Z17214   6.720   1.660   8.607  1.0221  1.2180  0.7426
  155SAPE     N17215   1.387   0.849  10.857  0.7496 -0.0350 -0.7486
  155SAPE   HN117216   1.285   0.837  10.873  1.2138 -1.3522  1.6285
  155SAPE   HN217217   1.421   0.787  10.781 -2.6765 -3.0095 -0.0764
  155SAPE   HN317218   1.438   0.818  10.942 -0.5820 -1.7271 -0.5226
  155SAPE   C1217219   1.425   0.993  10.826  0.0070  0.3224 -0.4949
  155SAPE  H12A17220   1.516   0.995  10.763  0.4404  0.4415  0.1283
  155SAPE  H12B17221   1.439   1.038  10.927  0.2220 -0.4246 -0.1819
  155SAPE   C1117222   1.308   1.059  10.754  0.6901 -0.1059  0.1502
  155SAPE  H11A17223   1.300   1.010  10.654  0.6376 -0.8810  0.5296
  155SAPE  H11B17224   1.335   1.158  10.711 -2.2268 -0.2644 -2.4532
  155SAPE     P17225   1.149   1.166  10.925  0.0257  0.2168  0.6972
  155SAPE   O1317226   1.008   1.140  10.966  0.0818 -0.0667  0.2609
  155SAPE   O1417227   1.239   1.184  11.038  0.4073  0.1641 -0.0711
  155SAPE   O1217228   1.188   1.044  10.829 -0.0505  0.4611 -0.1786
  155SAPE   O1117229   1.146   1.297  10.829 -0.6349 -0.7422  0.5379
  155SAPE    C117230   1.022   1.341  10.762 -0.3899  0.3022  0.4003
  155SAPE    HA17231   0.932   1.335  10.827  0.1414  1.4268  1.2623
  155SAPE    HB17232   1.036   1.448  10.739  0.4670  0.1863  0.3534
  155SAPE    C217233   0.999   1.258  10.626 -0.1408  0.2621 -0.2595
  155SAPE    HS17234   0.965   1.156  10.654  1.2898  0.0910  0.9416
  155SAPE   O2117235   1.123   1.241  10.552 -0.1797 -0.3090  0.0314
  155SAPE   C2117236   1.135   1.159  10.449  0.5192  0.5910 -0.7489
  155SAPE   O2217237   1.040   1.089  10.408  0.0962  0.0785  0.0738
  155SAPE   C2217238   1.284   1.147  10.396  0.0404 -0.3969 -0.1139
  155SAPE   H2R17239   1.348   1.103  10.475 -0.8510  1.0714  1.4965
  155SAPE   H2S17240   1.288   1.075  10.311  0.9242  1.0292 -1.3539
  155SAPE    C317241   0.895   1.340  10.547  0.4481  0.9442 -0.2610
  155SAPE    HX17242   0.948   1.436  10.530  1.9840  0.4123  1.2438
  155SAPE    HY17243   0.804   1.347  10.612  1.6203 -1.5802  1.8256
  155SAPE   O3117244   0.854   1.292  10.417 -0.1213  0.6788 -0.0711
  155SAPE   C3117245   0.771   1.372  10.344 -1.0327 -0.0769  0.2960
  155SAPE   O3217246   0.724   1.473  10.385 -0.7313  0.2633 -0.6147
  155SAPE   C3217247   0.748   1.330  10.196  0.4858 -0.2370 -0.7031
  155SAPE   H2X17248   0.653   1.273  10.207  1.3830 -1.3957  2.2322
  155SAPE   H2Y17249   0.836   1.267  10.168  0.0378 -1.5255  0.6389
  155SAPE   C2317250   1.333   1.277  10.334 -0.3738  0.5824 -0.3887
  155SAPE   H3R17251   1.344   1.361  10.407  1.9096  0.3357 -0.3578
  155SAPE   H3S17252   1.266   1.313  10.254 -0.2243 -1.5609 -1.5434
  155SAPE   C2417253   1.473   1.266  10.253  0.1929 -0.1274 -0.5541
  155SAPE   H4R17254   1.462   1.182  10.181 -0.7827  2.1390 -3.2166
  155SAPE   H4S17255   1.539   1.235  10.337  0.8593 -2.3942 -1.8428
  155SAPE   C2517256   1.515   1.399  10.203 -0.3374  0.0655 -0.0527
  155SAPE   H5R17257   1.520   1.481  10.276  5.0561  0.2337 -0.2108
  155SAPE   C2617258   1.539   1.415  10.069 -0.7433 -0.0568 -0.7052
  155SAPE   H6R17259   1.563   1.513  10.026 -0.4694 -0.6696 -1.9843
  155SAPE   C2717260   1.540   1.303   9.966  1.3767  0.0696 -0.9292
  155SAPE   H7R17261   1.582   1.218  10.023  0.0457  0.0356  0.0560
  155SAPE   H7S17262   1.607   1.329   9.881  0.8118 -2.4762 -2.2591
  155SAPE   C2817263   1.414   1.259   9.902  0.4350  0.7601  0.2957
  155SAPE   H8R17264   1.337   1.239   9.977  0.1984  1.0165  0.1222
  155SAPE   C2917265   1.373   1.258   9.767 -0.2037 -0.2790  0.1053
  155SAPE   H9R17266   1.272   1.221   9.741 -0.0704 -0.0586 -0.7642
  155SAPE  C21017267   1.457   1.292   9.644 -0.1575 -0.0458 -0.2951
  155SAPE  H10R17268   1.563   1.314   9.669 -0.0271 -0.5621 -0.3897
  155SAPE  H10S17269   1.412   1.369   9.578  2.5883  2.4093  0.4659
  155SAPE  C21117270   1.483   1.156   9.578 -1.2698 -0.7509  0.1130
  155SAPE  H11R17271   1.485   1.059   9.630 -2.1512 -1.7722 -1.6416
  155SAPE  C21217272   1.506   1.154   9.444 -0.2259 -0.3518  0.7190
  155SAPE  H12R17273   1.500   1.061   9.385  1.1134 -0.5787  0.9115
  155SAPE  C21317274   1.516   1.279   9.350 -0.3808 -0.0855 -0.4406
  155SAPE  H13R17275   1.610   1.326   9.386 -1.2780 -0.6189  2.9428
  155SAPE  H13S17276   1.435   1.348   9.381 -1.5920 -0.9550 -1.5539
  155SAPE  C21417277   1.517   1.257   9.202  0.0696 -0.2776  0.6928
  155SAPE  H14R17278   1.469   1.166   9.162 -0.5912  1.1718 -2.0452
  155SAPE  C21517279   1.560   1.347   9.111  0.4016 -0.4188  0.4841
  155SAPE  H15R17280   1.546   1.338   9.002 -0.4844 -0.1084  0.5649
  155SAPE  C21617281   1.598   1.495   9.138  0.5382  0.6508 -0.8254
  155SAPE  H16R17282   1.630   1.512   9.243  3.0945  0.4627 -1.5151
  155SAPE  H16S17283   1.506   1.557   9.131 -1.4530 -1.9153  0.5628
  155SAPE  C21717284   1.693   1.560   9.042  0.3697  0.0365 -0.0848
  155SAPE  H17R17285   1.787   1.502   9.032 -0.7073 -1.7489 -0.1334
  155SAPE  H17S17286   1.730   1.660   9.076 -0.8029  0.3543  0.3139
  155SAPE  C21817287   1.646   1.545   8.897  0.0263  0.5160 -0.6493
  155SAPE  H18R17288   1.543   1.585   8.887  0.5546  2.4628  1.0903
  155SAPE  H18S17289   1.655   1.439   8.867 -0.7726 -0.9678  3.6459
  155SAPE  C21917290   1.731   1.617   8.797 -0.4890 -0.0629 -0.9759
  155SAPE  H19R17291   1.726   1.564   8.699 -1.3201 -1.7841 -0.0461
  155SAPE  H19S17292   1.837   1.627   8.827 -0.5221  2.6458 -1.4732
  155SAPE  C22017293   1.671   1.756   8.768  0.6155  0.5604  0.0084
  155SAPE  H20R17294   1.631   1.789   8.866 -0.6949 -1.0238  0.0559
  155SAPE  H20S17295   1.583   1.745   8.701  0.4557 -0.3564  0.3501
  155SAPE  H20T17296   1.746   1.827   8.726  0.5049 -0.5921 -2.3479
  155SAPE   C3317297   0.749   1.432  10.084  0.7996  0.2998 -0.0761
  155SAPE   H3X17298   0.846   1.481  10.061  0.4260  1.4490  0.7540
  155SAPE   H3Y17299   0.682   1.515  10.115  2.0605  0.5482  2.1826
  155SAPE   C3417300   0.693   1.376   9.945 -0.3918 -0.0262 -0.7610
  155SAPE   H4X17301   0.595   1.326   9.962 -1.0214  1.2496 -0.4918
  155SAPE   H4Y17302   0.766   1.293   9.936  0.0486  0.2778 -0.0838
  155SAPE   C3517303   0.690   1.478   9.834 -0.1178 -0.2447  0.6034
  155SAPE   H5X17304   0.784   1.533   9.811  0.5340 -1.1036  1.1524
  155SAPE   H5Y17305   0.620   1.562   9.853  1.1888  0.5234  2.1602
  155SAPE   C3617306   0.649   1.409   9.705  0.3027 -0.0517  0.6257
  155SAPE   H6X17307   0.543   1.373   9.709  0.3005  0.0311  1.3562
  155SAPE   H6Y17308   0.711   1.318   9.690 -2.1841 -1.6846 -0.5389
  155SAPE   C3717309   0.660   1.500   9.585  0.3362  0.2646 -0.0544
  155SAPE   H7X17310   0.760   1.550   9.582  0.2901  0.3331 -1.3590
  155SAPE   H7Y17311   0.573   1.568   9.586 -0.2930 -0.5260  0.1526
  155SAPE   C3817312   0.654   1.423   9.446 -0.2221  0.2909  0.0452
  155SAPE   H8X17313   0.552   1.378   9.436  0.4088 -1.1497 -0.1184
  155SAPE   H8Y17314   0.726   1.339   9.459 -0.0754  0.9300  5.4166
  155SAPE   C3917315   0.700   1.514   9.331  0.2399  1.3222  0.4067
  155SAPE   H9X17316   0.805   1.552   9.332 -0.0345  2.0952  0.2148
  155SAPE   H9Y17317   0.630   1.600   9.334 -1.5148 -0.0494 -0.0423
  155SAPE  C31017318   0.688   1.454   9.195  0.1551  0.4348  0.2308
  155SAPE  H10X17319   0.587   1.412   9.178 -0.0247  1.3844 -1.1881
  155SAPE  H10Y17320   0.759   1.369   9.185 -1.6020 -1.2305  1.2956
  155SAPE  C31117321   0.708   1.562   9.086 -0.3966 -0.0682 -0.2780
  155SAPE  H11X17322   0.805   1.609   9.115  0.8139 -2.3937 -0.2800
  155SAPE  H11Y17323   0.629   1.636   9.108  0.1188 -0.0022  1.5198
  155SAPE  C31217324   0.722   1.505   8.944 -0.5103  0.3009 -0.0638
  155SAPE  H12X17325   0.628   1.452   8.918 -0.2895  0.0625 -0.3912
  155SAPE  H12Y17326   0.808   1.434   8.943 -0.1983  0.6635  0.5472
  155SAPE  C31317327   0.726   1.610   8.832 -0.0332  0.3366  0.8579
  155SAPE  H13X17328   0.798   1.687   8.865  2.1550 -1.3124  0.1591
  155SAPE  H13Y17329   0.624   1.655   8.826  0.9796  2.5620 -1.2172
  155SAPE  C31417330   0.753   1.559   8.688  0.0528 -0.0247  0.0175
  155SAPE  H14X17331   0.846   1.498   8.685  1.7791  2.4270 -3.1350
  155SAPE  H14Y17332   0.791   1.642   8.625  2.0292 -1.6870 -1.1207
  155SAPE  C31517333   0.628   1.493   8.623 -0.5342  0.2185 -0.4783
  155SAPE  H15X17334   0.577   1.429   8.698 -0.7936  2.2773  1.1669
  155SAPE  H15Y17335   0.665   1.422   8.545  0.3476  3.0355 -2.8019
  155SAPE  C31617336   0.519   1.580   8.548 -0.5090 -0.0726  0.0835
  155SAPE  H16X17337   0.557   1.629   8.456 -2.2980 -0.7804 -1.1025
  155SAPE  H16Y17338   0.485   1.656   8.621  0.3190 -0.4929  0.9200
  155SAPE  C31717339   0.388   1.499   8.505  0.1698  0.1897  0.4711
  155SAPE  H17X17340   0.325   1.581   8.464  0.4277 -0.3000 -0.9965
  155SAPE  H17Y17341   0.340   1.463   8.598  0.1129  1.2577  0.8626
  155SAPE  C31817342   0.416   1.380   8.407 -0.0726  0.0297 -0.1344
  155SAPE  H18X17343   0.478   1.310   8.467 -0.3316  0.8784  1.1604
  155SAPE  H18Y17344   0.477   1.406   8.318  1.8808 -0.6661  0.9491
  155SAPE  H18Z17345   0.314   1.346   8.378 -0.9375  1.6596  0.8622
  156SAPE     N17346   5.021   6.087  10.365  0.1829  0.1031 -0.3899
  156SAPE   HN117347   5.122   6.079  10.392  0.3236 -4.3891 -1.4182
  156SAPE   HN217348   5.021   6.074  10.262 -0.4370 -1.1426 -0.2481
  156SAPE   HN317349   4.979   6.179  10.387 -0.8527 -0.9627  2.5770
  156SAPE   C1217350   4.936   5.988  10.436 -0.9166  0.6538 -0.0753
  156SAPE  H12A17351   4.948   6.000  10.546 -2.3169 -4.2278  0.8787
  156SAPE  H12B17352   4.978   5.886  10.418 -0.7198  0.6392  0.4501
  156SAPE   C1117353   4.793   6.006  10.392  1.1212 -0.0063 -0.2976
  156SAPE  H11A17354   4.735   5.936  10.457 -0.4345  1.0513 -0.4806
  156SAPE  H11B17355   4.783   5.980  10.284 -0.3599 -0.7858 -0.0113
  156SAPE     P17356   4.601   6.185  10.426 -0.0524 -0.1495  0.1383
  156SAPE   O1317357   4.520   6.067  10.450  0.9187  0.2024 -0.4693
  156SAPE   O1417358   4.595   6.289  10.530 -0.1618 -0.0480 -0.6603
  156SAPE   O1217359   4.750   6.144  10.414  0.1725 -0.0734 -1.3074
  156SAPE   O1117360   4.556   6.246  10.292 -0.1097  0.5291 -0.1845
  156SAPE    C117361   4.639   6.302  10.193  0.0975  0.1032  0.0344
  156SAPE    HA17362   4.737   6.250  10.184  1.6870  3.1075 -1.3767
  156SAPE    HB17363   4.593   6.296  10.092 -1.5202  1.0578  0.6917
  156SAPE    C217364   4.675   6.450  10.222 -0.0997 -0.0432 -0.1025
  156SAPE    HS17365   4.719   6.448  10.324 -2.0504 -1.4666  0.7847
  156SAPE   O2117366   4.550   6.519  10.212  0.2947  0.2917  0.2679
  156SAPE   C2117367   4.539   6.646  10.244  0.0770 -0.1052  0.4809
  156SAPE   O2217368   4.630   6.722  10.284  0.2260 -0.1192  0.6739
  156SAPE   C2217369   4.395   6.687  10.222  0.5436  0.5665 -0.4056
  156SAPE   H2R17370   4.344   6.589  10.215  2.6279 -0.5430 -1.0406
  156SAPE   H2S17371   4.367   6.749  10.310 -1.6244 -1.0365  0.1084
  156SAPE    C317372   4.797   6.504  10.137  0.1848 -0.5748  0.6541
  156SAPE    HX17373   4.882   6.440  10.168 -0.2011 -0.5797  1.7409
  156SAPE    HY17374   4.822   6.604  10.180 -1.6663 -0.3409  1.2744
  156SAPE   O3117375   4.770   6.519   9.998  0.2293  0.1375  0.6642
  156SAPE   C3117376   4.778   6.409   9.922  0.2107  0.2976 -0.1280
  156SAPE   O3217377   4.801   6.299   9.967  0.4105  0.1814 -0.5233
  156SAPE   C3217378   4.753   6.438   9.775  0.1821 -0.1369  0.3867
  156SAPE   H2X17379   4.806   6.365   9.711 -2.3876  0.3091 -2.4748
  156SAPE   H2Y17380   4.795   6.539   9.755  0.6399 -0.3472  0.2664
  156SAPE   C2317381   4.375   6.783  10.102 -0.8859  0.7887  0.7816
  156SAPE   H3R17382   4.422   6.881  10.124 -0.7157  0.3134  2.6995
  156SAPE   H3S17383   4.266   6.796  10.091 -1.3057 -2.0627  0.7340
  156SAPE   C2417384   4.417   6.719   9.966  0.6494 -0.1504  0.0523
  156SAPE   H4R17385   4.513   6.665   9.983  0.2404 -0.4226  1.7023
  156SAPE   H4S17386   4.430   6.798   9.890 -0.3959 -0.6213 -0.6462
  156SAPE   C2517387   4.306   6.628   9.914 -0.0529  0.1448  0.2901
  156SAPE   H5R17388   4.284   6.539   9.976 -3.1468 -1.4933 -2.8297
  156SAPE   C2617389   4.250   6.634   9.791  0.1447 -0.4180  0.1375
  156SAPE   H6R17390   4.177   6.559   9.758 -0.3373  0.6416 -1.3360
  156SAPE   C2717391   4.281   6.738   9.687  0.4876 -0.7513 -0.5224
  156SAPE   H7R17392   4.341   6.694   9.604 -0.1020  1.1450 -2.0300
  156SAPE   H7S17393   4.320   6.828   9.738 -1.4686  0.1312 -0.5452
  156SAPE   C2817394   4.152   6.787   9.624 -0.2410 -0.0177  0.2293
  156SAPE   H8R17395   4.106   6.881   9.657 -2.1068 -1.3411  1.6367
  156SAPE   C2917396   4.087   6.725   9.523  0.2195  0.5726 -0.5819
  156SAPE   H9R17397   4.000   6.777   9.481 -0.3698 -0.2666 -0.4128
  156SAPE  C21017398   4.109   6.590   9.465 -0.4548 -0.4299  0.3517
  156SAPE  H10R17399   4.011   6.544   9.443 -0.6130 -0.9276  1.9825
  156SAPE  H10S17400   4.155   6.526   9.543  3.6021  0.8527 -0.7234
  156SAPE  C21117401   4.205   6.589   9.350  0.3832 -0.3252 -0.4636
  156SAPE  H11R17402   4.313   6.577   9.367  0.2751 -1.1765 -0.3288
  156SAPE  C21217403   4.168   6.602   9.224 -0.7032  0.2357  0.4045
  156SAPE  H12R17404   4.250   6.602   9.152  1.1206  0.2499  2.3718
  156SAPE  C21317405   4.027   6.616   9.166 -0.2524  0.2711 -0.4494
  156SAPE  H13R17406   4.022   6.695   9.087 -0.6568  0.6578 -0.0411
  156SAPE  H13S17407   3.964   6.656   9.248 -2.9363 -0.3533 -2.0580
  156SAPE  C21417408   3.960   6.492   9.113 -0.3736  0.4369  0.3768
  156SAPE  H14R17409   3.881   6.445   9.173  1.4417 -3.5327 -0.0824
  156SAPE  C21517410   4.008   6.426   9.010 -0.6837 -0.8047 -0.0341
  156SAPE  H15R17411   3.956   6.334   8.978 -1.6765  0.5341 -2.6079
  156SAPE  C21617412   4.130   6.461   8.927  0.5937  0.0720 -0.2797
  156SAPE  H16R17413   4.215   6.404   8.970 -0.9192 -0.4444  2.2406
  156SAPE  H16S17414   4.149   6.570   8.934  0.4206  0.0741  0.2543
  156SAPE  C21717415   4.100   6.410   8.783  0.1122  0.2586  0.6129
  156SAPE  H17R17416   4.018   6.471   8.740  2.1270  0.6642 -3.0601
  156SAPE  H17S17417   4.061   6.307   8.772  1.7122 -0.3789  0.7350
  156SAPE  C21817418   4.211   6.436   8.682 -0.3199 -0.8556  0.0892
  156SAPE  H18R17419   4.294   6.368   8.711  1.0753  0.9160  0.4564
  156SAPE  H18S17420   4.248   6.540   8.697 -0.8170 -0.0000 -3.6527
  156SAPE  C21917421   4.185   6.425   8.534  0.0067 -0.1320 -0.1053
  156SAPE  H19R17422   4.124   6.515   8.510  1.6605  2.3339  3.8571
  156SAPE  H19S17423   4.122   6.336   8.513  0.2804 -0.7972  1.6904
  156SAPE  C22017424   4.312   6.418   8.449 -0.3243 -0.0120  0.4768
  156SAPE  H20R17425   4.383   6.339   8.481 -1.1941 -0.8854  0.2653
  156SAPE  H20S17426   4.367   6.514   8.463 -0.7178  0.5069 -1.2624
  156SAPE  H20T17427   4.289   6.411   8.340 -0.6206  2.0340  0.3632
  156SAPE   C3317428   4.604   6.434   9.735 -0.0819 -0.2491  0.6139
  156SAPE   H3X17429   4.539   6.487   9.808  0.4565 -0.2940  1.1408
  156SAPE   H3Y17430   4.566   6.330   9.734  2.0097 -1.1277 -2.0925
  156SAPE   C3417431   4.584   6.508   9.601  0.2427 -0.1510 -0.0118
  156SAPE   H4X17432   4.628   6.609   9.612  0.2454  0.1334 -2.2067
  156SAPE   H4Y17433   4.474   6.514   9.588 -0.0265 -2.2967  0.8650
  156SAPE   C3517434   4.642   6.444   9.478 -0.0873  0.1207 -0.2437
  156SAPE   H5X17435   4.743   6.416   9.516  0.6980  1.8447 -0.9875
  156SAPE   H5Y17436   4.662   6.510   9.391 -2.5869  0.3691 -0.7135
  156SAPE   C3617437   4.568   6.310   9.440  0.8361 -0.0856  0.5249
  156SAPE   H6X17438   4.461   6.331   9.417  0.0560 -2.9860  1.1089
  156SAPE   H6Y17439   4.573   6.233   9.520  0.4070 -1.5956 -0.8460
  156SAPE   C3717440   4.632   6.259   9.311 -0.0220  0.0794 -0.1721
  156SAPE   H7X17441   4.741   6.241   9.319 -0.2718 -0.7954  1.9322
  156SAPE   H7Y17442   4.620   6.337   9.233  0.5210  1.0655  0.6890
  156SAPE   C3817443   4.573   6.122   9.261  0.2921  0.2444  0.8160
  156SAPE   H8X17444   4.464   6.113   9.280  0.2367  1.9097  1.4705
  156SAPE   H8Y17445   4.617   6.035   9.313  3.2219  0.6631 -0.7507
  156SAPE   C3917446   4.596   6.102   9.108 -0.0428 -0.1948 -0.3756
  156SAPE   H9X17447   4.704   6.093   9.085  0.6841  0.8442  2.2318
  156SAPE   H9Y17448   4.564   6.195   9.056 -0.5335 -0.4697 -0.5719
  156SAPE  C31017449   4.529   5.975   9.050  0.7337  1.0642  0.5358
  156SAPE  H10X17450   4.429   5.962   9.095  0.1665  1.0966 -0.6876
  156SAPE  H10Y17451   4.594   5.889   9.078  0.2532  0.2391 -0.8092
  156SAPE  C31117452   4.525   5.984   8.893 -0.1865 -0.2347  0.0388
  156SAPE  H11X17453   4.530   6.091   8.863 -0.0374 -0.8343 -2.2803
  156SAPE  H11Y17454   4.424   5.949   8.863 -1.1275  1.6133  0.8656
  156SAPE  C31217455   4.633   5.909   8.812 -0.3425 -0.0332 -0.4519
  156SAPE  H12X17456   4.649   5.804   8.845  0.2629 -0.0513 -0.7939
  156SAPE  H12Y17457   4.728   5.957   8.843 -0.4280  0.5334 -1.0677
  156SAPE  C31317458   4.623   5.901   8.662  0.8941 -0.3454 -0.5699
  156SAPE  H13X17459   4.520   5.866   8.641 -0.0335 -0.0216  2.8193
  156SAPE  H13Y17460   4.687   5.823   8.615 -1.1950 -2.3661 -0.2311
  156SAPE  C31417461   4.657   6.034   8.599 -0.1938 -0.2630  0.2775
  156SAPE  H14X17462   4.765   6.063   8.604 -0.2201  0.0000 -0.5213
  156SAPE  H14Y17463   4.602   6.119   8.645 -0.1874  0.6415 -1.2941
  156SAPE  C31517464   4.629   6.047   8.454 -0.6476  0.3261 -0.1281
  156SAPE  H15X17465   4.521   6.020   8.448 -0.1685 -2.0487  0.7477
  156SAPE  H15Y17466   4.682   5.973   8.391 -1.9946  0.3881 -1.3909
  156SAPE  C31617467   4.659   6.184   8.385  0.5411 -0.6646 -0.1251
  156SAPE  H16X17468   4.754   6.225   8.424 -0.0661  1.2253 -0.5405
  156SAPE  H16Y17469   4.587   6.264   8.414  0.2331 -0.9517 -0.0939
  156SAPE  C31717470   4.660   6.172   8.230  0.0581  0.6253 -0.1071
  156SAPE  H17X17471   4.725   6.086   8.202 -3.5089 -2.8648  1.3988
  156SAPE  H17Y17472   4.689   6.266   8.178  0.3934 -1.0182 -3.1714
  156SAPE  C31817473   4.522   6.135   8.183 -0.2407  0.1410 -0.1170
  156SAPE  H18X17474   4.466   6.065   8.249  0.1902 -0.0055  0.1029
  156SAPE  H18Y17475   4.507   6.099   8.079 -2.6302 -1.8257  0.8201
  156SAPE  H18Z17476   4.465   6.230   8.178 -0.7849  0.0364  2.5164
  157SAPE     N17477   3.471   0.551  11.078 -0.2752  0.2098 -0.3012
  157SAPE   HN117478   3.384   0.519  11.032 -0.9446 -0.1353  1.1647
  157SAPE   HN217479   3.464   0.549  11.181  0.8115  0.3805 -0.2124
  157SAPE   HN317480   3.492   0.649  11.051  1.3721 -0.2258 -0.7659
  157SAPE   C1217481   3.560   0.450  11.029 -0.5117  0.7499  0.0835
  157SAPE  H12A17482   3.648   0.431  11.094  0.2477  0.0538 -1.1056
  157SAPE  H12B17483   3.596   0.494  10.933 -1.2274 -0.9545 -1.0195
  157SAPE   C1117484   3.501   0.311  11.017  0.2884 -0.4292 -0.6467
  157SAPE  H11A17485   3.487   0.270  11.119 -0.3175  0.4673 -0.3499
  157SAPE  H11B17486   3.572   0.240  10.970  1.0130 -0.3831  0.3453
  157SAPE     P17487   3.340   0.276  10.809 -0.5195  0.3401  0.3717
  157SAPE   O1317488   3.235   0.175  10.813  0.9721  0.3133  0.0743
  157SAPE   O1417489   3.320   0.397  10.724 -0.0038 -0.0284  0.0357
  157SAPE   O1217490   3.369   0.322  10.960 -0.4129  0.2399 -0.1825
  157SAPE   O1117491   3.472   0.208  10.755 -0.2917  0.0833 -0.3629
  157SAPE    C117492   3.573   0.274  10.672  0.1577  0.0392  0.0309
  157SAPE    HA17493   3.566   0.380  10.639  0.2046 -0.1930 -0.7545
  157SAPE    HB17494   3.671   0.278  10.725  0.8711 -1.7592 -1.0443
  157SAPE    C217495   3.596   0.191  10.551  0.1490  0.2112 -0.6852
  157SAPE    HS17496   3.612   0.085  10.581  1.2303  0.9831  1.7679
  157SAPE   O2117497   3.707   0.230  10.477 -0.3284  0.5382  0.1331
  157SAPE   C2117498   3.754   0.141  10.389 -0.3029 -0.0218  0.4582
  157SAPE   O2217499   3.762   0.018  10.408  0.2170 -0.4302  0.1020
  157SAPE   C2217500   3.799   0.223  10.263 -0.2579 -0.2466  0.1728
  157SAPE   H2R17501   3.710   0.254  10.205 -1.0474  0.1408  1.5442
  157SAPE   H2S17502   3.856   0.305  10.311  1.5062 -1.6292  0.5383
  157SAPE    C317503   3.466   0.199  10.470  0.0662 -0.2172  0.5118
  157SAPE    HX17504   3.441   0.303  10.440 -2.3572 -0.5323  1.1528
  157SAPE    HY17505   3.372   0.177  10.526 -0.8186  1.9600 -0.0270
  157SAPE   O3117506   3.475   0.112  10.356 -0.7488 -0.6133  0.2208
  157SAPE   C3117507   3.419  -0.010  10.350 -0.3341 -0.4525 -0.1177
  157SAPE   O3217508   3.370  -0.070  10.443  0.0548  0.0719  0.0073
  157SAPE   C3217509   3.439  -0.063  10.214 -0.2261  0.1416 -0.0890
  157SAPE   H2X17510   3.539  -0.113  10.217 -1.2376 -2.1952 -1.9075
  157SAPE   H2Y17511   3.432   0.020  10.140  0.7734  0.3375  0.0172
  157SAPE   C2317512   3.894   0.139  10.179  0.5940 -0.3968  0.1233
  157SAPE   H3R17513   3.966   0.082  10.241 -0.3774 -0.9424  0.7793
  157SAPE   H3S17514   3.958   0.204  10.116 -0.7795  0.6455 -0.2260
  157SAPE   C2417515   3.821   0.038  10.089 -0.8628 -0.3528  0.2585
  157SAPE   H4R17516   3.733   0.088  10.045  0.0887  0.0934 -1.2162
  157SAPE   H4S17517   3.779  -0.044  10.152 -2.3768 -1.2232 -1.7785
  157SAPE   C2517518   3.907  -0.039   9.988  0.5892  0.5705  0.2295
  157SAPE   H5R17519   3.992  -0.087  10.038 -0.6331  0.1718  2.0235
  157SAPE   C2617520   3.902  -0.040   9.854  0.6161  0.0018  0.6280
  157SAPE   H6R17521   3.968  -0.117   9.811 -1.1837 -0.9029 -0.6708
  157SAPE   C2717522   3.809   0.043   9.770  0.7506  0.2444 -0.5400
  157SAPE   H7R17523   3.707   0.037   9.813  1.1800  1.2321  0.6679
  157SAPE   H7S17524   3.798  -0.005   9.670 -2.3108 -1.8184  0.6371
  157SAPE   C2817525   3.853   0.183   9.746  0.4005 -0.7307  0.0865
  157SAPE   H8R17526   3.915   0.227   9.825 -0.0547  0.3353 -0.1291
  157SAPE   C2917527   3.820   0.252   9.638  0.0738  0.4313  0.0207
  157SAPE   H9R17528   3.856   0.356   9.646 -2.0839  1.3299 -1.2572
  157SAPE  C21017529   3.734   0.219   9.518  0.4873 -0.4537 -0.2141
  157SAPE  H10R17530   3.627   0.234   9.547 -0.3871 -1.8089 -2.4592
  157SAPE  H10S17531   3.747   0.111   9.495  1.1219 -0.0324 -1.9688
  157SAPE  C21117532   3.758   0.310   9.397 -0.2712  0.1694 -0.5554
  157SAPE  H11R17533   3.785   0.415   9.415  0.9391 -0.3725  0.9574
  157SAPE  C21217534   3.735   0.272   9.270 -0.3571 -0.4274  0.2789
  157SAPE  H12R17535   3.767   0.334   9.185 -0.9703 -2.7038 -1.7251
  157SAPE  C21317536   3.678   0.137   9.231 -0.6417  0.1211 -0.0337
  157SAPE  H13R17537   3.570   0.160   9.230 -0.3176  1.9789  1.9930
  157SAPE  H13S17538   3.690   0.057   9.307  0.0759 -0.8383 -1.1214
  157SAPE  C21417539   3.736   0.078   9.099 -0.5230 -0.2176 -0.3037
  157SAPE  H14R17540   3.807  -0.005   9.113  0.0539  0.1771 -0.8346
  157SAPE  C21517541   3.716   0.133   8.975  0.1602  0.2225  0.2643
  157SAPE  H15R17542   3.760   0.081   8.889  0.2844  0.9963 -0.1451
  157SAPE  C21617543   3.642   0.264   8.937 -0.1625 -0.9558  0.0502
  157SAPE  H16R17544   3.681   0.294   8.838  3.6959  0.0057  1.6536
  157SAPE  H16S17545   3.662   0.350   9.004 -4.6207  1.7800 -1.6640
  157SAPE  C21717546   3.488   0.262   8.922 -0.2268 -0.0493  0.4014
  157SAPE  H17R17547   3.464   0.175   8.986  0.5971 -2.1276 -1.9827
  157SAPE  H17S17548   3.461   0.241   8.816  0.7605  0.5862  0.0130
  157SAPE  C21817549   3.430   0.399   8.960 -0.1004 -0.3784  0.0538
  157SAPE  H18R17550   3.469   0.473   8.886 -0.3985  2.8189  2.8351
  157SAPE  H18S17551   3.469   0.433   9.058 -1.6286  1.9277 -0.0380
  157SAPE  C21917552   3.278   0.416   8.959  0.7173  0.1026  0.0236
  157SAPE  H19R17553   3.240   0.344   9.034  2.5530  1.6629  2.6265
  157SAPE  H19S17554   3.248   0.392   8.854 -0.2852 -1.9069  0.7252
  157SAPE  C22017555   3.220   0.555   8.990 -0.5019 -0.5195 -0.8133
  157SAPE  H20R17556   3.264   0.625   8.915 -0.7284 -1.3828 -1.7790
  157SAPE  H20S17557   3.253   0.588   9.091  1.1745  1.7598 -2.0135
  157SAPE  H20T17558   3.110   0.571   8.984 -0.5317  0.2185  1.0555
  157SAPE   C3317559   3.343  -0.184  10.173  0.2474  0.2177 -0.5427
  157SAPE   H3X17560   3.238  -0.158  10.151  0.1888 -1.5219 -2.6576
  157SAPE   H3Y17561   3.340  -0.253  10.260 -0.2760  2.2594  1.1339
  157SAPE   C3417562   3.388  -0.272  10.052  0.4426  0.5164  0.0716
  157SAPE   H4X17563   3.311  -0.350  10.032  0.2708 -0.0936  2.7761
  157SAPE   H4Y17564   3.482  -0.329  10.067 -0.4329 -1.2522 -0.8279
  157SAPE   C3517565   3.391  -0.185   9.920 -0.4080  0.3906  0.0438
  157SAPE   H5X17566   3.469  -0.106   9.916  2.4605 -2.2715 -3.7398
  157SAPE   H5Y17567   3.295  -0.139   9.888 -1.0049 -0.4228  0.6286
  157SAPE   C3617568   3.427  -0.275   9.798  0.3526 -0.0940 -0.1801
  157SAPE   H6X17569   3.361  -0.364   9.801 -0.5951  0.6113  0.7196
  157SAPE   H6Y17570   3.530  -0.318   9.802 -0.5334 -2.5919 -1.8334
  157SAPE   C3717571   3.414  -0.205   9.659  0.5405 -0.1754  0.3605
  157SAPE   H7X17572   3.472  -0.112   9.643  0.7925 -0.5942 -1.4156
  157SAPE   H7Y17573   3.315  -0.162   9.634  1.8529  3.0476  0.2554
  157SAPE   C3817574   3.467  -0.294   9.545  0.8846  0.1286  0.5557
  157SAPE   H8X17575   3.406  -0.387   9.542 -0.9411  1.2699  0.7756
  157SAPE   H8Y17576   3.570  -0.333   9.560 -0.7508 -4.4817  1.3274
  157SAPE   C3917577   3.467  -0.214   9.407  0.2350  0.1576 -0.3567
  157SAPE   H9X17578   3.545  -0.136   9.402  0.0240  0.3095 -1.7662
  157SAPE   H9Y17579   3.374  -0.153   9.403  0.7686  1.1561  1.4784
  157SAPE  C31017580   3.467  -0.297   9.276 -0.2238 -0.5554  0.6438
  157SAPE  H10X17581   3.368  -0.344   9.261 -0.1770 -0.1325 -1.2107
  157SAPE  H10Y17582   3.553  -0.362   9.301 -0.0666 -0.0822  1.3869
  157SAPE  C31117583   3.506  -0.222   9.145 -0.5754  0.4646 -0.2012
  157SAPE  H11X17584   3.608  -0.184   9.171  0.2460 -1.7897  0.0757
  157SAPE  H11Y17585   3.433  -0.141   9.126 -1.7185 -0.6233 -0.5326
  157SAPE  C31217586   3.512  -0.320   9.026  0.7530 -0.2505 -0.5627
  157SAPE  H12X17587   3.510  -0.425   9.063  0.0684  0.1893  0.7127
  157SAPE  H12Y17588   3.611  -0.319   8.976  0.6001 -2.2693 -1.0071
  157SAPE  C31317589   3.409  -0.291   8.914  0.0256 -0.5895 -0.4819
  157SAPE  H13X17590   3.310  -0.276   8.963 -1.3895 -0.4631 -3.1674
  157SAPE  H13Y17591   3.410  -0.367   8.833  1.1948 -3.9262  2.4494
  157SAPE  C31417592   3.432  -0.166   8.834 -0.3123 -0.6271  0.3506
  157SAPE  H14X17593   3.527  -0.166   8.776 -1.3490  0.0120 -1.4498
  157SAPE  H14Y17594   3.450  -0.089   8.913 -1.4392  0.7663 -0.6993
  157SAPE  C31517595   3.313  -0.112   8.747 -0.7658  0.7480 -0.2221
  157SAPE  H15X17596   3.296  -0.193   8.673 -0.4207 -2.0063  2.4878
  157SAPE  H15Y17597   3.354  -0.017   8.707 -1.2731  0.4519 -1.5060
  157SAPE  C31617598   3.171  -0.098   8.817 -0.1370  0.0566  0.4574
  157SAPE  H16X17599   3.180  -0.068   8.923  2.7008 -3.3764  1.3931
  157SAPE  H16Y17600   3.132  -0.202   8.817  0.1047 -0.0449  1.4383
  157SAPE  C31717601   3.087   0.003   8.734  0.3322  0.1189  0.3401
  157SAPE  H17X17602   2.977  -0.006   8.753  0.3824 -1.2638  0.1035
  157SAPE  H17Y17603   3.117  -0.008   8.628 -0.2409  1.9769 -0.0526
  157SAPE  C31817604   3.121   0.147   8.767  0.5324  0.2060 -0.3219
  157SAPE  H18X17605   3.074   0.177   8.863  2.3481  2.3359 -0.0167
  157SAPE  H18Y17606   3.072   0.213   8.692 -0.7434 -0.1348  0.1965
  157SAPE  H18Z17607   3.230   0.162   8.785  0.9956 -1.9908 -0.9737
  158SAPE     N17608   4.518   0.843  10.775 -0.1633  0.2096  0.1671
  158SAPE   HN117609   4.424   0.844  10.730 -0.4338 -0.1929  0.7113
  158SAPE   HN217610   4.533   0.740  10.788  0.4877  0.1822 -0.7228
  158SAPE   HN317611   4.526   0.889  10.868  0.7814 -0.8320  0.6212
  158SAPE   C1217612   4.630   0.898  10.683  0.5756  0.2128  0.2195
  158SAPE  H12A17613   4.698   0.959  10.746  1.8817  0.7102 -1.5642
  158SAPE  H12B17614   4.578   0.944  10.596  1.1054  0.1725 -0.1276
  158SAPE   C1117615   4.716   0.793  10.619 -0.4918  0.3537 -0.5575
  158SAPE  H11A17616   4.794   0.837  10.553 -1.2569  1.1673 -0.9461
  158SAPE  H11B17617   4.664   0.728  10.546 -1.3478  0.2413  0.1293
  158SAPE     P17618   4.742   0.574  10.761  0.0249 -0.3193  0.1580
  158SAPE   O1317619   4.820   0.530  10.880 -0.2668  0.0994  0.0363
  158SAPE   O1417620   4.599   0.587  10.783 -0.0707 -0.0065  0.0274
  158SAPE   O1217621   4.788   0.721  10.720 -0.5144  0.2966 -0.2304
  158SAPE   O1117622   4.777   0.486  10.632 -0.0644 -0.3188  0.5743
  158SAPE    C117623   4.905   0.486  10.574 -0.7047  0.9585 -0.4658
  158SAPE    HA17624   4.916   0.569  10.500  1.2690  1.2750  0.1251
  158SAPE    HB17625   4.991   0.491  10.645  0.0769  1.6304 -1.4258
  158SAPE    C217626   4.935   0.355  10.486 -0.5897 -0.7094 -0.8477
  158SAPE    HS17627   5.033   0.365  10.435 -0.8942 -2.3230 -1.7922
  158SAPE   O2117628   4.822   0.324  10.404 -0.3583 -0.5089  0.5570
  158SAPE   C2117629   4.802   0.412  10.303  0.2766  0.0726  0.5630
  158SAPE   O2217630   4.872   0.507  10.277  0.2593 -0.1174 -0.3770
  158SAPE   C2217631   4.676   0.374  10.230  0.1184  0.0117  0.0630
  158SAPE   H2R17632   4.652   0.267  10.245  0.4365 -0.1192 -0.3271
  158SAPE   H2S17633   4.589   0.435  10.262  1.8121  2.4930  0.3144
  158SAPE    C317634   4.957   0.240  10.585  0.4106  0.5101  0.1666
  158SAPE    HX17635   4.867   0.241  10.651 -0.8647  1.4995 -1.5089
  158SAPE    HY17636   5.037   0.246  10.661 -0.6183 -2.8123  1.7199
  158SAPE   O3117637   4.966   0.110  10.520  0.1308 -0.0501 -0.2053
  158SAPE   C3117638   5.068   0.088  10.444  0.2183  0.6786  0.3560
  158SAPE   O3217639   5.158   0.166  10.423  0.1015 -0.1395  0.7735
  158SAPE   C3217640   5.036  -0.043  10.371  0.5142  0.7606 -0.2329
  158SAPE   H2X17641   4.931  -0.039  10.333  0.7468 -2.4508 -1.5732
  158SAPE   H2Y17642   5.035  -0.128  10.443  1.0673  1.5359  0.7061
  158SAPE   C2317643   4.694   0.391  10.078  0.5889 -0.2746  0.5807
  158SAPE   H3R17644   4.726   0.494  10.051 -0.8170  0.4263  1.4667
  158SAPE   H3S17645   4.601   0.379  10.018  1.7187  0.6490 -1.4337
  158SAPE   C2417646   4.793   0.291  10.022 -0.3188 -0.4266 -0.5058
  158SAPE   H4R17647   4.887   0.284  10.081 -1.5787 -2.8595  1.3984
  158SAPE   H4S17648   4.831   0.337   9.928  1.2198  0.8807  0.7020
  158SAPE   C2517649   4.734   0.150  10.001  0.3299 -0.3690  0.2596
  158SAPE   H5R17650   4.667   0.111  10.079 -0.4126  2.0612  0.9089
  158SAPE   C2617651   4.733   0.076   9.890 -0.1985 -0.0615  0.2122
  158SAPE   H6R17652   4.676  -0.018   9.893 -0.1344 -0.0820  1.1393
  158SAPE   C2717653   4.795   0.123   9.760  0.1201  0.3849 -0.1671
  158SAPE   H7R17654   4.820   0.029   9.705  2.0062  1.1588 -0.7093
  158SAPE   H7S17655   4.879   0.190   9.785 -1.8936  2.7726  0.6586
  158SAPE   C2817656   4.705   0.203   9.668  0.1842  0.1410  0.7986
  158SAPE   H8R17657   4.599   0.171   9.669  0.3820 -0.5634  0.2483
  158SAPE   C2917658   4.739   0.301   9.582 -0.2387  0.2475  0.0048
  158SAPE   H9R17659   4.660   0.338   9.515 -0.5333 -0.6134 -0.1478
  158SAPE  C21017660   4.872   0.356   9.557  0.0592 -0.1520 -0.2821
  158SAPE  H10R17661   4.956   0.285   9.570 -1.5413 -1.7501  2.1361
  158SAPE  H10S17662   4.881   0.435   9.635  1.1328 -0.1772 -0.3666
  158SAPE  C21117663   4.887   0.432   9.426  0.2064  0.2577 -0.5789
  158SAPE  H11R17664   4.878   0.541   9.437 -3.2236  0.1912 -1.5879
  158SAPE  C21217665   4.917   0.382   9.306  0.5572 -0.7741 -1.0394
  158SAPE  H12R17666   4.943   0.454   9.227  0.5715 -3.0597 -3.2367
  158SAPE  C21317667   4.946   0.242   9.269 -0.9833  0.3190  0.1757
  158SAPE  H13R17668   4.860   0.220   9.202 -0.3915  3.2720 -1.7504
  158SAPE  H13S17669   4.941   0.174   9.357 -1.2790  0.6951  0.4528
  158SAPE  C21417670   5.074   0.222   9.198 -0.1346 -0.7084 -0.2289
  158SAPE  H14R17671   5.146   0.171   9.263 -0.7203 -0.0057  1.0143
  158SAPE  C21517672   5.097   0.267   9.072  0.3499  0.9726  0.0474
  158SAPE  H15R17673   5.194   0.238   9.029  0.4253 -0.1563  0.9519
  158SAPE  C21617674   4.994   0.323   8.979  0.2397 -0.2690  0.0210
  158SAPE  H16R17675   5.011   0.433   8.973  2.1530 -0.6156 -2.0544
  158SAPE  H16S17676   4.888   0.309   9.012  0.0943  1.8230  0.5849
  158SAPE  C21717677   5.011   0.292   8.832  0.0245  0.0869 -0.6019
  158SAPE  H17R17678   5.115   0.310   8.798  0.7076  0.5901  1.5997
  158SAPE  H17S17679   4.952   0.371   8.781  0.3368  0.9193  0.3023
  158SAPE  C21817680   4.970   0.153   8.797  0.5560 -0.6796  0.1482
  158SAPE  H18R17681   4.862   0.128   8.805  0.8403 -1.5609  1.7297
  158SAPE  H18S17682   5.014   0.081   8.869  0.3357 -0.2130  0.7595
  158SAPE  C21917683   5.014   0.121   8.656 -0.0011  0.6992 -0.4602
  158SAPE  H19R17684   5.124   0.113   8.639 -0.2306 -1.4063 -1.3243
  158SAPE  H19S17685   4.968   0.196   8.588  1.0837  0.3195 -1.6511
  158SAPE  C22017686   4.958  -0.016   8.610 -0.1620 -0.0468 -0.1499
  158SAPE  H20R17687   5.014  -0.090   8.671  1.2161  1.3553  0.3611
  158SAPE  H20S17688   4.980  -0.046   8.505 -2.3879 -3.2068  0.1486
  158SAPE  H20T17689   4.852  -0.024   8.643  0.0293  0.5847  0.6676
  158SAPE   C3317690   5.130  -0.079  10.257 -0.2433 -0.0568  0.2219
  158SAPE   H3X17691   5.119  -0.188  10.235  2.2360  0.0538 -2.1593
  158SAPE   H3Y17692   5.232  -0.054  10.292 -0.8301 -0.4479  2.3395
  158SAPE   C3417693   5.110  -0.012  10.125 -0.1188  0.3746  0.4074
  158SAPE   H4X17694   5.123   0.098  10.135 -1.6905  0.4567  2.1753
  158SAPE   H4Y17695   5.005  -0.034  10.097  1.2123 -3.2260 -2.4581
  158SAPE   C3517696   5.190  -0.080  10.017  0.6645  0.0319 -0.2066
  158SAPE   H5X17697   5.192  -0.191  10.030 -0.8051  0.0014 -0.0646
  158SAPE   H5Y17698   5.296  -0.047  10.010  0.8712 -0.4772  0.4115
  158SAPE   C3617699   5.128  -0.041   9.881  0.3286  0.6199  0.9408
  158SAPE   H6X17700   5.118   0.070   9.880  0.6159  0.6504 -0.3309
  158SAPE   H6Y17701   5.021  -0.070   9.875  0.8307 -0.9810 -2.2896
  158SAPE   C3717702   5.205  -0.096   9.771 -0.3906 -0.0963  0.4380
  158SAPE   H7X17703   5.231  -0.202   9.792  2.4080  0.8488  2.2365
  158SAPE   H7Y17704   5.300  -0.039   9.764 -1.6646  1.8949 -2.6676
  158SAPE   C3817705   5.124  -0.088   9.638 -0.4913  0.0135 -0.0927
  158SAPE   H8X17706   5.089   0.017   9.628 -0.4000 -0.0492 -1.2742
  158SAPE   H8Y17707   5.031  -0.148   9.648  1.0754 -2.4168  0.8804
  158SAPE   C3917708   5.211  -0.111   9.516 -0.0335  0.3265  0.1510
  158SAPE   H9X17709   5.246  -0.216   9.519 -0.0536  0.2268 -1.8378
  158SAPE   H9Y17710   5.299  -0.043   9.517  0.6193 -0.4843  1.7134
  158SAPE  C31017711   5.141  -0.104   9.378  0.0433  0.6894  0.2178
  158SAPE  H10X17712   5.084  -0.010   9.364 -1.2212  0.2848  2.2238
  158SAPE  H10Y17713   5.059  -0.179   9.378  1.1859 -0.6173  1.5011
  158SAPE  C31117714   5.239  -0.119   9.257 -0.6766  0.5192  0.1857
  158SAPE  H11X17715   5.310  -0.203   9.273  0.4175  1.5302  0.8687
  158SAPE  H11Y17716   5.299  -0.026   9.253 -0.9482  0.8798  2.7559
  158SAPE  C31217717   5.155  -0.142   9.134 -0.3225  0.0645  0.3584
  158SAPE  H12X17718   5.100  -0.049   9.110 -2.1278 -1.3419 -1.2510
  158SAPE  H12Y17719   5.078  -0.221   9.139  1.2794 -1.4538  2.6728
  158SAPE  C31317720   5.245  -0.179   9.016  0.4546  0.3564  1.4733
  158SAPE  H13X17721   5.308  -0.269   9.038  1.2732  0.1415 -1.3255
  158SAPE  H13Y17722   5.323  -0.100   9.011 -1.5681  2.3835 -0.6600
  158SAPE  C31417723   5.186  -0.185   8.869 -0.6398  0.5916  0.6736
  158SAPE  H14X17724   5.172  -0.076   8.854 -2.5194  0.0835 -2.2750
  158SAPE  H14Y17725   5.091  -0.243   8.858 -1.0851  1.3973  0.1516
  158SAPE  C31517726   5.288  -0.251   8.778 -0.2700 -0.5352 -0.1300
  158SAPE  H15X17727   5.296  -0.355   8.816 -0.7955  0.6865  3.6834
  158SAPE  H15Y17728   5.383  -0.194   8.788  0.6945 -2.2550  1.1251
  158SAPE  C31617729   5.247  -0.250   8.624  0.4024  0.3420  0.0332
  158SAPE  H16X17730   5.330  -0.282   8.557  0.2804  0.0425  0.0219
  158SAPE  H16Y17731   5.230  -0.145   8.594  0.1461  0.3812  0.3126
  158SAPE  C31717732   5.137  -0.344   8.575  0.1697 -0.3690 -0.2636
  158SAPE  H17X17733   5.045  -0.302   8.621  1.1371  2.0410 -0.3880
  158SAPE  H17Y17734   5.148  -0.446   8.618 -1.5021 -0.0680  0.9520
  158SAPE  C31817735   5.141  -0.351   8.428 -0.0904  0.0474  0.2653
  158SAPE  H18X17736   5.226  -0.411   8.389 -0.1530  0.2321 -0.1582
  158SAPE  H18Y17737   5.136  -0.248   8.387 -0.2998  0.9108  2.2976
  158SAPE  H18Z17738   5.046  -0.402   8.402  0.5299 -0.6722 -0.6333
  159SAPE     N17739   0.151   3.314   6.712 -0.5854  0.6022  0.3817
  159SAPE   HN117740   0.250   3.347   6.717  0.0179 -1.1648  0.8496
  159SAPE   HN217741   0.150   3.259   6.624  1.2129 -2.2873  1.9733
  159SAPE   HN317742   0.089   3.393   6.688  1.1282  1.9456  0.2259
  159SAPE   C1217743   0.111   3.225   6.829  0.5793  0.4838 -0.6568
  159SAPE  H12A17744   0.082   3.288   6.916 -0.1189 -1.0603  0.2713
  159SAPE  H12B17745   0.204   3.167   6.849 -0.8344 -1.2612  1.2260
  159SAPE   C1117746  -0.005   3.128   6.802 -0.4171  0.2804 -0.0163
  159SAPE  H11A17747  -0.092   3.189   6.835 -0.6191  0.2346 -0.4614
  159SAPE  H11B17748   0.006   3.038   6.867 -1.3876 -0.1802 -0.4698
  159SAPE     P17749  -0.153   3.027   6.607  0.2009 -0.2416 -0.1290
  159SAPE   O1317750  -0.213   3.133   6.519  0.0185 -0.2023  0.4434
  159SAPE   O1417751  -0.132   2.893   6.555  0.1166  0.0223  0.4798
  159SAPE   O1217752  -0.013   3.078   6.665  0.3944  0.1242  0.0794
  159SAPE   O1117753  -0.241   2.990   6.734  0.2045 -0.4512 -0.1587
  159SAPE    C117754  -0.387   2.983   6.728 -0.5166 -0.2010  0.1208
  159SAPE    HA17755  -0.420   2.926   6.639  0.1329 -0.8019  0.2532
  159SAPE    HB17756  -0.427   2.912   6.803 -1.9895 -1.0952 -1.4610
  159SAPE    C217757  -0.463   3.119   6.737  0.1907 -0.6604 -0.2193
  159SAPE    HS17758  -0.422   3.183   6.657  2.1022 -0.2346  1.0363
  159SAPE   O2117759  -0.438   3.182   6.860  0.1033 -0.4865 -0.5953
  159SAPE   C2117760  -0.460   3.308   6.869  0.0976 -0.3950 -0.2698
  159SAPE   O2217761  -0.500   3.379   6.777 -0.3429 -0.5774 -0.4067
  159SAPE   C2217762  -0.429   3.348   7.013  0.6755 -0.6931 -0.3500
  159SAPE   H2R17763  -0.520   3.335   7.075  2.1056 -0.4885  1.9052
  159SAPE   H2S17764  -0.349   3.281   7.051  0.0037 -1.8276 -0.9010
  159SAPE    C317765  -0.620   3.111   6.723  0.6832  0.2042 -0.5942
  159SAPE    HX17766  -0.642   3.052   6.632 -0.3352  0.4169 -0.5062
  159SAPE    HY17767  -0.662   3.211   6.700 -1.9801 -1.3922 -3.3918
  159SAPE   O3117768  -0.683   3.059   6.842 -0.0848  0.1807  0.2135
  159SAPE   C3117769  -0.724   2.929   6.841 -0.3298  0.0760 -0.1043
  159SAPE   O3217770  -0.713   2.846   6.749  0.6627  0.1812  0.1868
  159SAPE   C3217771  -0.800   2.894   6.970 -0.7501 -0.5225 -0.1820
  159SAPE   H2X17772  -0.877   2.825   6.932 -0.0732 -1.5817  0.3199
  159SAPE   H2Y17773  -0.843   2.987   7.015  0.4344  0.2565 -0.6080
  159SAPE   C2317774  -0.375   3.491   7.040  0.4061  0.6029 -0.5859
  159SAPE   H3R17775  -0.459   3.562   7.022 -0.1687 -0.0984 -0.7280
  159SAPE   H3S17776  -0.298   3.513   6.964 -0.3482  0.7247 -1.3384
  159SAPE   C2417777  -0.320   3.504   7.182 -0.2074  0.6298  0.2110
  159SAPE   H4R17778  -0.228   3.441   7.187 -0.8362 -0.2249  1.9349
  159SAPE   H4S17779  -0.390   3.460   7.256 -1.2554  2.2653  0.2304
  159SAPE   C2517780  -0.288   3.650   7.210 -0.2673  0.3560  0.5106
  159SAPE   H5R17781  -0.212   3.699   7.148  0.0129 -0.6849 -0.0012
  159SAPE   C2617782  -0.334   3.728   7.309  0.1738  0.3109 -0.1322
  159SAPE   H6R17783  -0.309   3.835   7.298 -2.8712  1.2082  0.5309
  159SAPE   C2717784  -0.423   3.687   7.419 -0.0625  0.0349 -0.1551
  159SAPE   H7R17785  -0.377   3.613   7.489  2.3534  1.1762 -0.4079
  159SAPE   H7S17786  -0.501   3.627   7.368  0.8378 -2.1927  0.9301
  159SAPE   C2817787  -0.504   3.785   7.503  0.5442 -0.8514 -0.1699
  159SAPE   H8R17788  -0.544   3.867   7.441  1.3757  0.1342  0.5755
  159SAPE   C2917789  -0.531   3.774   7.638  0.2976 -0.7015 -0.0460
  159SAPE   H9R17790  -0.586   3.852   7.691 -0.3603 -0.4408 -1.0854
  159SAPE  C21017791  -0.505   3.659   7.735 -0.0358 -0.3953  0.1520
  159SAPE  H10R17792  -0.464   3.565   7.690 -0.9950 -0.0280 -1.5920
  159SAPE  H10S17793  -0.599   3.626   7.783  0.3196  0.5160  1.5156
  159SAPE  C21117794  -0.397   3.703   7.840 -0.1890 -0.6526  0.5714
  159SAPE  H11R17795  -0.332   3.783   7.802  0.5161 -0.6812  1.6863
  159SAPE  C21217796  -0.375   3.663   7.968  0.4959 -0.5841  0.1403
  159SAPE  H12R17797  -0.306   3.713   8.037  0.9552  1.1760 -1.5319
  159SAPE  C21317798  -0.456   3.555   8.037 -0.4598  0.3389 -0.4101
  159SAPE  H13R17799  -0.386   3.504   8.106  0.3935  0.5773 -1.0798
  159SAPE  H13S17800  -0.506   3.488   7.964 -0.0781  0.6124 -0.9301
  159SAPE  C21417801  -0.568   3.618   8.106  0.5997 -0.0532 -0.1774
  159SAPE  H14R17802  -0.624   3.680   8.034  3.3432  1.5494 -1.0660
  159SAPE  C21517803  -0.605   3.619   8.236  0.1949  0.4837  0.2523
  159SAPE  H15R17804  -0.698   3.671   8.260  0.1756  0.4129  0.3310
  159SAPE  C21617805  -0.529   3.558   8.349  0.0721  0.1054  1.0160
  159SAPE  H16R17806  -0.455   3.480   8.322  1.4892  1.0152  2.1107
  159SAPE  H16S17807  -0.600   3.504   8.415  0.5400 -0.8900  0.7246
  159SAPE  C21717808  -0.463   3.669   8.437 -0.1303 -0.0059  0.5800
  159SAPE  H17R17809  -0.387   3.725   8.379 -0.7967 -0.0047 -0.3180
  159SAPE  H17S17810  -0.410   3.620   8.522  1.3818  1.1282  0.3232
  159SAPE  C21817811  -0.565   3.755   8.511  0.3905  0.3545 -0.0973
  159SAPE  H18R17812  -0.644   3.701   8.566  0.5125  1.0930  0.8246
  159SAPE  H18S17813  -0.609   3.834   8.446  1.3515 -0.3979 -1.7270
  159SAPE  C21917814  -0.504   3.833   8.633 -0.2573 -0.8395  0.2578
  159SAPE  H19R17815  -0.578   3.896   8.687 -1.9996 -1.8655 -0.8350
  159SAPE  H19S17816  -0.416   3.896   8.610 -0.1913  0.0608  2.6884
  159SAPE  C22017817  -0.452   3.747   8.749  0.1261  1.1184 -0.1354
  159SAPE  H20R17818  -0.540   3.683   8.769 -0.6292  1.6909 -1.5324
  159SAPE  H20S17819  -0.425   3.812   8.836 -1.1909 -0.0038  1.1497
  159SAPE  H20T17820  -0.368   3.678   8.725 -1.5290 -1.9422  2.1403
  159SAPE   C3317821  -0.728   2.804   7.075  0.2305  0.4771 -0.1270
  159SAPE   H3X17822  -0.697   2.712   7.022 -2.1157 -0.0320 -0.7528
  159SAPE   H3Y17823  -0.803   2.768   7.149  0.4554 -1.5360 -0.8274
  159SAPE   C3417824  -0.610   2.875   7.140  0.2061  0.3518 -0.7875
  159SAPE   H4X17825  -0.522   2.879   7.074  0.9139  1.2083  0.1897
  159SAPE   H4Y17826  -0.568   2.815   7.224  3.9119  0.7056 -2.2023
  159SAPE   C3517827  -0.640   3.021   7.193  0.2422  0.5445  0.0162
  159SAPE   H5X17828  -0.656   3.077   7.098  0.0482 -0.7054 -0.7198
  159SAPE   H5Y17829  -0.539   3.045   7.230 -0.3227  0.0697  1.9860
  159SAPE   C3617830  -0.736   3.046   7.308 -0.2161 -0.3396 -0.1132
  159SAPE   H6X17831  -0.840   3.012   7.287 -0.0153  0.4771 -2.8096
  159SAPE   H6Y17832  -0.753   3.156   7.304 -1.3410 -0.4604  0.7870
  159SAPE   C3717833  -0.691   2.995   7.447 -0.5894 -0.1782 -0.0399
  159SAPE   H7X17834  -0.582   3.010   7.459 -0.6571 -0.6872  1.5253
  159SAPE   H7Y17835  -0.710   2.886   7.460 -2.8684 -0.0921 -1.9057
  159SAPE   C3817836  -0.757   3.073   7.564  0.2541 -0.3716  0.0935
  159SAPE   H8X17837  -0.862   3.040   7.572 -0.0415  0.4668 -0.1924
  159SAPE   H8Y17838  -0.753   3.179   7.530  1.3968 -0.1813  0.7452
  159SAPE   C3917839  -0.694   3.057   7.706 -1.1408 -0.4640  0.6743
  159SAPE   H9X17840  -0.590   3.095   7.705 -0.5937 -1.8860  0.8031
  159SAPE   H9Y17841  -0.691   2.952   7.742  0.1737 -1.3595 -1.8089
  159SAPE  C31017842  -0.792   3.129   7.798  0.1452  0.0729 -0.2319
  159SAPE  H10X17843  -0.890   3.077   7.799 -0.5379  1.3075 -0.1030
  159SAPE  H10Y17844  -0.808   3.230   7.753  0.3245  0.2922  0.1891
  159SAPE  C31117845  -0.731   3.152   7.932 -0.0784  0.3789 -0.2508
  159SAPE  H11X17846  -0.654   3.230   7.910  2.4618 -1.9564 -0.2450
  159SAPE  H11Y17847  -0.677   3.062   7.970 -1.2314  1.1105  3.6118
  159SAPE  C31217848  -0.835   3.200   8.042  0.3200 -0.4575 -0.1705
  159SAPE  H12X17849  -0.915   3.126   8.065  0.5616 -0.1352  1.8329
  159SAPE  H12Y17850  -0.885   3.292   8.005 -3.1008 -1.2316  2.0778
  159SAPE  C31317851  -0.760   3.235   8.182  1.0230  0.6021 -0.6488
  159SAPE  H13X17852  -0.677   3.307   8.170  1.0174  0.4193 -1.9206
  159SAPE  H13Y17853  -0.720   3.140   8.225 -0.8774  0.2280  0.4257
  159SAPE  C31417854  -0.861   3.281   8.290  0.2584  0.3643  0.6316
  159SAPE  H14X17855  -0.958   3.228   8.278  1.5476 -1.9479 -0.0709
  159SAPE  H14Y17856  -0.883   3.389   8.275  1.6043  0.5829  0.0958
  159SAPE  C31517857  -0.787   3.256   8.421 -0.4546 -0.2458 -0.4982
  159SAPE  H15X17858  -0.680   3.288   8.414 -0.6161  1.4354  2.7679
  159SAPE  H15Y17859  -0.788   3.147   8.444  0.6320 -0.6870 -2.3163
  159SAPE  C31617860  -0.844   3.337   8.532 -0.6631  0.2446 -0.6030
  159SAPE  H16X17861  -0.890   3.432   8.495  1.8003  2.4261  1.5377
  159SAPE  H16Y17862  -0.770   3.369   8.608 -1.1554 -0.3344  0.1298
  159SAPE  C31717863  -0.957   3.273   8.611  0.0769 -0.6075  0.2283
  159SAPE  H17X17864  -0.915   3.193   8.675  0.1032 -1.1221 -0.4140
  159SAPE  H17Y17865  -1.025   3.212   8.546 -0.8558  1.8503 -1.2491
  159SAPE  C31817866  -1.051   3.362   8.701 -0.2556  0.6791  0.0302
  159SAPE  H18X17867  -1.111   3.300   8.770 -2.6853  1.5132 -1.2101
  159SAPE  H18Y17868  -1.129   3.417   8.644 -0.9407 -0.1775  0.1315
  159SAPE  H18Z17869  -0.986   3.428   8.763  3.3827 -1.5289 -1.1449
  160SAPE     N17870   5.883   4.133   6.363  0.1788  0.8492 -0.0435
  160SAPE   HN117871   5.783   4.141   6.338  0.9278  1.7345 -3.1052
  160SAPE   HN217872   5.925   4.226   6.386  1.6432  0.0698  0.6075
  160SAPE   HN317873   5.940   4.100   6.283  0.6331 -1.4103  1.1103
  160SAPE   C1217874   5.915   4.033   6.479 -0.1496 -0.3882  0.3946
  160SAPE  H12A17875   6.023   4.048   6.502 -0.6949  2.1357  1.7666
  160SAPE  H12B17876   5.891   3.930   6.446  0.5748 -0.6066  0.5297
  160SAPE   C1117877   5.831   4.058   6.606 -0.4684  0.0925 -0.3720
  160SAPE  H11A17878   5.846   4.167   6.622  0.1532 -0.1482  0.8886
  160SAPE  H11B17879   5.872   4.013   6.699 -2.8255 -1.0516  0.1579
  160SAPE     P17880   5.573   4.113   6.649 -0.1115  0.4333 -0.1077
  160SAPE   O1317881   5.569   4.243   6.578  0.2438 -0.0617  0.2625
  160SAPE   O1417882   5.454   4.027   6.648  0.2166 -0.5836 -0.2592
  160SAPE   O1217883   5.696   4.027   6.588 -0.3271  0.0623  0.0291
  160SAPE   O1117884   5.615   4.136   6.802 -0.4571 -0.5281  0.4595
  160SAPE    C117885   5.662   4.024   6.884  0.1472  0.5946  0.6422
  160SAPE    HA17886   5.675   3.928   6.830 -0.4248 -0.2657  1.9768
  160SAPE    HB17887   5.770   4.043   6.906  0.6986 -0.9181 -0.5338
  160SAPE    C217888   5.572   3.994   7.014  0.1385  0.2238 -0.9747
  160SAPE    HS17889   5.475   3.955   6.974 -0.6841  1.2516 -0.0288
  160SAPE   O2117890   5.546   4.114   7.087 -0.1991 -1.0715  0.3171
  160SAPE   C2117891   5.436   4.122   7.159  0.1821 -0.0956  0.2962
  160SAPE   O2217892   5.353   4.031   7.177  0.5399 -0.2290  0.1063
  160SAPE   C2217893   5.422   4.265   7.214 -0.3566  0.2247  0.3073
  160SAPE   H2R17894   5.515   4.294   7.266 -0.1178  2.0334 -1.0384
  160SAPE   H2S17895   5.392   4.335   7.133 -3.4110 -0.3097  0.8276
  160SAPE    C317896   5.647   3.887   7.101 -0.2569 -0.0451  0.3643
  160SAPE    HX17897   5.738   3.939   7.139 -1.2209  2.3031 -0.3034
  160SAPE    HY17898   5.680   3.800   7.041 -2.7545 -2.4483  2.2182
  160SAPE   O3117899   5.574   3.834   7.218  0.1910  0.0472 -0.2040
  160SAPE   C3117900   5.487   3.733   7.181 -0.1332 -0.8804 -0.6741
  160SAPE   O3217901   5.470   3.690   7.064  0.6453 -0.1363 -0.0595
  160SAPE   C3217902   5.421   3.681   7.305 -0.1483  0.3198 -0.5419
  160SAPE   H2X17903   5.357   3.761   7.350  0.5616 -0.2016  1.5323
  160SAPE   H2Y17904   5.499   3.664   7.383  0.7026  2.1461 -0.9485
  160SAPE   C2317905   5.302   4.283   7.304 -0.2453 -0.1663  0.4292
  160SAPE   H3R17906   5.215   4.242   7.249 -2.1470  2.2649  1.4502
  160SAPE   H3S17907   5.287   4.391   7.325 -1.6764 -0.2899  0.1467
  160SAPE   C2417908   5.323   4.205   7.437  0.0703  0.5279 -0.9407
  160SAPE   H4R17909   5.408   4.255   7.489 -1.0590 -0.2330  1.8082
  160SAPE   H4S17910   5.349   4.099   7.416  0.5760  0.6621 -1.0274
  160SAPE   C2517911   5.193   4.189   7.516  0.4713 -0.0963 -0.4230
  160SAPE   H5R17912   5.113   4.142   7.457  0.3494 -0.5140  0.0683
  160SAPE   C2617913   5.181   4.233   7.644 -0.0583 -0.4526  0.5919
  160SAPE   H6R17914   5.082   4.212   7.689 -0.7662  0.9082 -0.2794
  160SAPE   C2717915   5.283   4.306   7.734  0.1766  0.0813 -0.3542
  160SAPE   H7R17916   5.348   4.371   7.671 -0.3485 -0.3099 -1.3181
  160SAPE   H7S17917   5.348   4.236   7.791  0.2964 -0.1197 -0.7321
  160SAPE   C2817918   5.224   4.402   7.837 -1.0496 -0.0456  0.4063
  160SAPE   H8R17919   5.137   4.462   7.806  0.9338  2.7965 -0.0414
  160SAPE   C2917920   5.266   4.419   7.965  0.1270  0.2138 -0.0539
  160SAPE   H9R17921   5.207   4.484   8.032  2.1130  0.8130  1.1991
  160SAPE  C21017922   5.383   4.343   8.026 -0.6853 -0.7859 -0.8734
  160SAPE  H10R17923   5.448   4.417   8.078 -0.0675 -0.9743 -1.3638
  160SAPE  H10S17924   5.456   4.301   7.954  1.0550  0.0686  0.3028
  160SAPE  C21117925   5.328   4.241   8.128 -0.3086 -0.3262  0.0291
  160SAPE  H11R17926   5.289   4.158   8.066  2.6371 -1.4487 -0.4955
  160SAPE  C21217927   5.313   4.245   8.263 -0.1785  0.1927  0.3423
  160SAPE  H12R17928   5.271   4.159   8.317 -0.1443  0.2412  0.4467
  160SAPE  C21317929   5.355   4.368   8.340  0.0039 -0.0031 -0.0769
  160SAPE  H13R17930   5.342   4.451   8.268  0.9851 -1.5382 -2.1542
  160SAPE  H13S17931   5.462   4.363   8.371 -0.5706 -1.0889  1.8747
  160SAPE  C21417932   5.281   4.395   8.471  0.1938  0.5685 -0.2235
  160SAPE  H14R17933   5.278   4.306   8.535  0.5100  0.5763 -0.1937
  160SAPE  C21517934   5.234   4.510   8.529  0.1887 -0.5036  0.3847
  160SAPE  H15R17935   5.184   4.503   8.627  1.8192 -3.6392  1.1211
  160SAPE  C21617936   5.242   4.638   8.455 -1.0210  0.5146 -0.6958
  160SAPE  H16R17937   5.338   4.658   8.403 -1.3351  3.7036 -0.2622
  160SAPE  H16S17938   5.244   4.707   8.543 -0.8040  2.0760 -1.8901
  160SAPE  C21717939   5.127   4.666   8.359 -0.2084 -0.1866  0.0386
  160SAPE  H17R17940   5.139   4.595   8.274 -3.6844  1.5697 -2.1887
  160SAPE  H17S17941   5.123   4.767   8.311 -2.3229 -0.1016  0.3019
  160SAPE  C21817942   4.995   4.641   8.418  0.9885 -0.5722 -0.1157
  160SAPE  H18R17943   4.986   4.674   8.523 -1.2396 -2.6460  0.4284
  160SAPE  H18S17944   4.963   4.535   8.419  1.4142 -0.8103 -2.8716
  160SAPE  C21917945   4.889   4.720   8.336  0.0260 -0.4915  0.4172
  160SAPE  H19R17946   4.923   4.825   8.322 -0.1324 -0.5591 -0.5962
  160SAPE  H19S17947   4.793   4.730   8.391 -1.6965 -0.7521 -2.3110
  160SAPE  C22017948   4.866   4.642   8.205 -0.4462 -0.1600 -0.3707
  160SAPE  H20R17949   4.806   4.551   8.227  0.1108 -0.1297  1.4300
  160SAPE  H20S17950   4.962   4.614   8.158 -0.7542  0.1294 -1.1984
  160SAPE  H20T17951   4.814   4.703   8.128 -0.0469 -0.6483 -1.0367
  160SAPE   C3317952   5.333   3.552   7.272 -0.0360 -0.1948  0.3159
  160SAPE   H3X17953   5.397   3.487   7.208 -0.8633 -0.4800 -0.2385
  160SAPE   H3Y17954   5.235   3.572   7.223 -0.7120 -1.1642  1.2146
  160SAPE   C3417955   5.300   3.462   7.401 -0.3810 -0.2278 -0.1147
  160SAPE   H4X17956   5.252   3.363   7.382  0.3349 -0.9710  1.7354
  160SAPE   H4Y17957   5.230   3.522   7.463 -1.6530  0.3201 -1.9813
  160SAPE   C3517958   5.429   3.432   7.477  0.1148 -0.0244 -0.0677
  160SAPE   H5X17959   5.453   3.524   7.535 -0.9932 -1.1864  2.4369
  160SAPE   H5Y17960   5.511   3.418   7.403  0.3953  1.7631 -0.1312
  160SAPE   C3617961   5.428   3.313   7.573  0.0984  0.0837  0.6927
  160SAPE   H6X17962   5.373   3.226   7.532 -1.8488  1.0047  1.2498
  160SAPE   H6Y17963   5.383   3.343   7.670 -0.7730  4.3210 -0.7972
  160SAPE   C3717964   5.574   3.274   7.600  0.0689 -0.1630  0.2173
  160SAPE   H7X17965   5.632   3.355   7.650 -0.9367 -0.6170  2.2064
  160SAPE   H7Y17966   5.617   3.257   7.499  0.1574  0.8549  0.0806
  160SAPE   C3817967   5.593   3.148   7.685  0.3400 -0.0345 -0.3898
  160SAPE   H8X17968   5.692   3.100   7.668  0.8600 -0.5634  3.3106
  160SAPE   H8Y17969   5.515   3.074   7.657  2.1897 -1.5640 -1.7797
  160SAPE   C3917970   5.576   3.167   7.838  0.2536  0.4103  0.1477
  160SAPE   H9X17971   5.479   3.202   7.879 -0.5561 -1.9511  0.4574
  160SAPE   H9Y17972   5.657   3.240   7.855  1.6138 -0.4115 -2.2361
  160SAPE  C31017973   5.615   3.042   7.918  0.2142 -0.2388 -0.0516
  160SAPE  H10X17974   5.638   3.070   8.023  0.3459  0.2519 -0.2113
  160SAPE  H10Y17975   5.714   3.010   7.880  1.5496  1.2081  2.0338
  160SAPE  C31117976   5.498   2.942   7.917  0.5114  0.2503 -0.4796
  160SAPE  H11X17977   5.463   2.917   7.814  0.2610  0.2796 -0.4044
  160SAPE  H11Y17978   5.416   3.006   7.958  0.2800  0.0206 -0.5793
  160SAPE  C31217979   5.512   2.822   8.013  0.0098 -0.7933 -0.1521
  160SAPE  H12X17980   5.557   2.865   8.105 -4.0221 -1.8760  2.6038
  160SAPE  H12Y17981   5.587   2.745   7.984  0.6513 -0.1748 -0.1733
  160SAPE  C31317982   5.370   2.768   8.054 -0.4761  0.1116  0.1240
  160SAPE  H13X17983   5.332   2.703   7.972 -0.1631 -0.3134  0.3078
  160SAPE  H13Y17984   5.315   2.864   8.060  0.5061  0.6246  1.7735
  160SAPE  C31417985   5.350   2.682   8.184 -1.2548 -0.0774 -0.0191
  160SAPE  H14X17986   5.402   2.738   8.264  0.3950  0.8916 -1.6752
  160SAPE  H14Y17987   5.406   2.588   8.166  0.4274  0.8748  0.0436
  160SAPE  C31517988   5.200   2.656   8.217 -0.4829 -0.0220  0.1244
  160SAPE  H15X17989   5.143   2.619   8.129 -2.8760  2.5106  0.4647
  160SAPE  H15Y17990   5.153   2.752   8.245 -1.9991 -0.5347 -0.5340
  160SAPE  C31617991   5.173   2.569   8.341 -0.5903  0.4248  0.9319
  160SAPE  H16X17992   5.230   2.476   8.319 -3.0352 -1.3618  1.7011
  160SAPE  H16Y17993   5.073   2.530   8.368 -0.0255 -1.6494  0.1980
  160SAPE  C31717994   5.224   2.632   8.467 -0.8132  0.3801 -0.0693
  160SAPE  H17X17995   5.149   2.710   8.491 -0.9125  0.1613  0.3373
  160SAPE  H17Y17996   5.321   2.684   8.454 -0.2143 -1.0594 -1.7003
  160SAPE  C31817997   5.243   2.534   8.589  0.3890  0.3522  0.0443
  160SAPE  H18X17998   5.149   2.476   8.608  1.3223 -1.1773  0.1639
  160SAPE  H18Y17999   5.258   2.594   8.681 -1.5929 -0.7122  1.1312
  160SAPE  H18Z18000   5.325   2.459   8.588  0.5865  0.5563 -1.8356
  161SAPE     N18001   6.436   2.233   6.777  0.0206  0.2821  1.0221
  161SAPE   HN118002   6.420   2.287   6.864 -0.1468  2.0984 -0.0775
  161SAPE   HN218003   6.520   2.172   6.782 -1.0421 -1.3518 -0.0637
  161SAPE   HN318004   6.439   2.303   6.700 -0.6053  4.1285  4.1681
  161SAPE   C1218005   6.317   2.143   6.738  0.2331  0.1378  0.1583
  161SAPE  H12A18006   6.317   2.140   6.627 -1.0454 -1.2851  0.1660
  161SAPE  H12B18007   6.225   2.187   6.781  0.1192  0.4200 -0.3656
  161SAPE   C1118008   6.346   2.004   6.783  0.3901 -0.2602  0.0042
  161SAPE  H11A18009   6.261   1.936   6.755 -0.8405  1.8665 -1.7918
  161SAPE  H11B18010   6.332   2.013   6.892  2.0805 -0.8092  0.2843
  161SAPE     P18011   6.500   1.857   6.634  0.3716 -0.0809 -0.1420
  161SAPE   O1318012   6.435   1.915   6.518  0.5702 -0.5177 -0.5025
  161SAPE   O1418013   6.646   1.844   6.622  0.1871 -0.2013 -0.0890
  161SAPE   O1218014   6.473   1.943   6.771  0.1553  0.0570  0.2230
  161SAPE   O1118015   6.434   1.715   6.650 -0.1773 -0.2139  0.1076
  161SAPE    C118016   6.434   1.636   6.771 -0.3975 -0.4543  0.2834
  161SAPE    HA18017   6.388   1.698   6.851 -1.3799  3.0570 -2.7438
  161SAPE    HB18018   6.366   1.552   6.746 -0.8871  0.1742 -0.5167
  161SAPE    C218019   6.570   1.586   6.821  0.4198  0.1712  0.0261
  161SAPE    HS18020   6.617   1.674   6.869 -0.3480  1.1550 -0.9768
  161SAPE   O2118021   6.649   1.535   6.720 -0.3255 -0.3189  0.5829
  161SAPE   C2118022   6.780   1.528   6.736 -0.4500 -0.5909  0.0338
  161SAPE   O2218023   6.835   1.569   6.842 -0.0498 -0.1903  0.6795
  161SAPE   C2218024   6.850   1.450   6.618  1.2485 -0.1489 -0.3970
  161SAPE   H2R18025   6.897   1.355   6.653  0.1865 -1.6504 -2.7867
  161SAPE   H2S18026   6.771   1.416   6.548  1.6375  0.1319 -0.9759
  161SAPE    C318027   6.545   1.466   6.916  0.4722  0.5506  0.3204
  161SAPE    HX18028   6.648   1.428   6.932  1.0147  1.2043 -1.4046
  161SAPE    HY18029   6.481   1.396   6.859  1.7370 -0.8028  0.5092
  161SAPE   O3118030   6.492   1.513   7.041 -0.0843 -0.3877  0.1261
  161SAPE   C3118031   6.408   1.420   7.090 -0.0219 -0.3041  0.1579
  161SAPE   O3218032   6.381   1.315   7.035  0.5546  0.2265  0.4327
  161SAPE   C3218033   6.359   1.455   7.231 -0.5137 -0.1748 -0.2524
  161SAPE   H2X18034   6.304   1.552   7.234  0.6209  0.4757  0.3438
  161SAPE   H2Y18035   6.449   1.466   7.295 -0.4653 -0.9838 -0.1704
  161SAPE   C2318036   6.966   1.533   6.552 -0.1789 -0.9272  0.8392
  161SAPE   H3R18037   6.928   1.638   6.549  1.9888 -0.1187 -0.2532
  161SAPE   H3S18038   6.993   1.508   6.447 -1.4931 -1.8691  0.7028
  161SAPE   C2418039   7.093   1.532   6.644  0.3798  0.4574 -0.7385
  161SAPE   H4R18040   7.057   1.544   6.749  1.0046 -0.8791 -0.3566
  161SAPE   H4S18041   7.154   1.623   6.622 -0.2811  1.3615  0.9636
  161SAPE   C2518042   7.173   1.399   6.636  0.2074 -0.1653  0.7102
  161SAPE   H5R18043   7.229   1.401   6.541 -2.5484  2.9610 -1.0931
  161SAPE   C2618044   7.174   1.293   6.718 -0.3848  0.5412  0.3329
  161SAPE   H6R18045   7.225   1.199   6.693 -1.2206  0.1058  0.2295
  161SAPE   C2718046   7.086   1.271   6.840 -0.3710  0.7486  0.2411
  161SAPE   H7R18047   7.034   1.367   6.861 -0.6028  0.5888  0.4003
  161SAPE   H7S18048   7.156   1.266   6.926 -0.5931 -1.2815  0.3386
  161SAPE   C2818049   6.986   1.155   6.836  0.0866 -0.5143  0.2736
  161SAPE   H8R18050   6.969   1.102   6.741 -0.0047  0.6057 -0.3424
  161SAPE   C2918051   6.902   1.130   6.940 -0.0352 -0.4334  0.1036
  161SAPE   H9R18052   6.825   1.053   6.927  0.4169 -1.0806  1.1173
  161SAPE  C21018053   6.895   1.197   7.078  0.1439 -0.8827 -0.4193
  161SAPE  H10R18054   6.830   1.287   7.082  1.8296  0.3532  0.9062
  161SAPE  H10S18055   6.990   1.248   7.107  0.1559 -0.8035 -0.5959
  161SAPE  C21118056   6.862   1.107   7.189  0.5232  0.3868 -1.2103
  161SAPE  H11R18057   6.952   1.059   7.231 -0.0930  0.2938  0.0539
  161SAPE  C21218058   6.743   1.074   7.245  0.9570  0.2415 -0.1021
  161SAPE  H12R18059   6.736   0.997   7.323  0.7126  1.4867  1.1439
  161SAPE  C21318060   6.609   1.136   7.202 -0.3800 -0.0560  1.1505
  161SAPE  H13R18061   6.613   1.200   7.111  3.2070 -1.0248  0.4464
  161SAPE  H13S18062   6.597   1.211   7.283  1.4722  1.2707  0.2792
  161SAPE  C21418063   6.483   1.036   7.209 -0.6183  0.0136  0.2439
  161SAPE  H14R18064   6.452   0.997   7.111 -0.8377 -2.2489  1.1461
  161SAPE  C21518065   6.416   1.000   7.319 -0.0935 -0.1769 -0.5664
  161SAPE  H15R18066   6.329   0.934   7.306 -1.3013  1.3522 -0.4831
  161SAPE  C21618067   6.450   1.035   7.464 -0.5761  0.2669  0.3431
  161SAPE  H16R18068   6.364   1.093   7.506 -1.0431 -1.2925  1.6354
  161SAPE  H16S18069   6.549   1.082   7.480 -0.2367 -0.2191 -0.3338
  161SAPE  C21718070   6.457   0.906   7.545  0.0395  0.4264 -0.0894
  161SAPE  H17R18071   6.535   0.838   7.505  1.0222  2.0533 -1.0760
  161SAPE  H17S18072   6.360   0.856   7.530  1.5936 -2.2917 -1.9547
  161SAPE  C21818073   6.490   0.920   7.690  0.2465  0.5127 -0.5193
  161SAPE  H18R18074   6.599   0.943   7.691  0.2567  0.7234 -2.7487
  161SAPE  H18S18075   6.496   0.815   7.726 -0.9068  0.1385 -1.3630
  161SAPE  C21918076   6.405   1.002   7.775 -0.8337 -0.1143 -0.1063
  161SAPE  H19R18077   6.308   0.949   7.785 -0.2501 -0.8613  2.1284
  161SAPE  H19S18078   6.395   1.101   7.724 -0.3658 -0.4129 -0.7856
  161SAPE  C22018079   6.462   1.042   7.915  0.2479 -0.3534 -0.4970
  161SAPE  H20R18080   6.572   1.055   7.903  0.0309  0.1677 -2.2734
  161SAPE  H20S18081   6.448   0.962   7.990 -0.2104  1.4588  1.4269
  161SAPE  H20T18082   6.422   1.142   7.941 -0.2950 -0.2745 -1.5644
  161SAPE   C3318083   6.260   1.353   7.288  0.7417  0.6486 -0.0002
  161SAPE   H3X18084   6.300   1.250   7.295 -0.9745  0.0251  1.3377
  161SAPE   H3Y18085   6.179   1.343   7.213 -1.1692  0.4904  1.9762
  161SAPE   C3418086   6.197   1.395   7.423 -0.2948  0.4475  0.3016
  161SAPE   H4X18087   6.263   1.472   7.469 -0.3452 -0.5100  2.0453
  161SAPE   H4Y18088   6.196   1.309   7.493  0.0148  1.0595  1.0872
  161SAPE   C3518089   6.048   1.456   7.403 -0.1402  0.0552  0.1527
  161SAPE   H5X18090   5.992   1.382   7.342  0.2589 -0.2115  0.1077
  161SAPE   H5Y18091   6.043   1.548   7.342  1.8537  0.8011  1.0176
  161SAPE   C3618092   5.984   1.483   7.537  0.5983 -0.4781 -0.4688
  161SAPE   H6X18093   5.966   1.381   7.577 -0.6726 -0.1467 -0.1492
  161SAPE   H6Y18094   5.881   1.522   7.524  0.5141 -0.6530 -0.3361
  161SAPE   C3718095   6.054   1.578   7.636  0.1648 -0.9738  0.1987
  161SAPE   H7X18096   6.099   1.663   7.581 -1.8142  0.3673  0.5543
  161SAPE   H7Y18097   6.128   1.518   7.694 -0.5247 -0.4281  1.7132
  161SAPE   C3818098   5.962   1.646   7.737 -0.3054 -0.0404  0.1284
  161SAPE   H8X18099   5.889   1.710   7.683  1.2685  2.8967  1.2350
  161SAPE   H8Y18100   6.035   1.716   7.782  0.4044  0.4784 -1.7236
  161SAPE   C3918101   5.899   1.547   7.839  0.7249  0.2259  0.3878
  161SAPE   H9X18102   5.976   1.482   7.887  2.9500  0.2038 -2.8407
  161SAPE   H9Y18103   5.829   1.482   7.782 -1.0600  1.0915  1.5241
  161SAPE  C31018104   5.821   1.620   7.948 -0.0396 -0.3802 -0.3866
  161SAPE  H10X18105   5.735   1.655   7.887  0.6514 -0.0128 -1.1750
  161SAPE  H10Y18106   5.873   1.711   7.984 -1.6114  1.0973 -1.6735
  161SAPE  C31118107   5.766   1.520   8.053 -0.2009 -0.1250 -0.0840
  161SAPE  H11X18108   5.759   1.418   8.010 -0.0563 -0.3346  0.3837
  161SAPE  H11Y18109   5.665   1.547   8.090 -0.6254  1.4479 -2.1792
  161SAPE  C31218110   5.858   1.517   8.182  0.5568 -0.3382 -0.8143
  161SAPE  H12X18111   5.846   1.620   8.221 -1.7126 -0.7195 -0.3136
  161SAPE  H12Y18112   5.961   1.492   8.150  0.9786  0.8165 -0.4012
  161SAPE  C31318113   5.823   1.398   8.278  0.5719 -0.0040 -0.1703
  161SAPE  H13X18114   5.731   1.424   8.335  0.4993  1.2506 -0.8160
  161SAPE  H13Y18115   5.910   1.393   8.345  1.5644 -1.0697 -1.4834
  161SAPE  C31418116   5.825   1.262   8.212 -0.3777 -0.2486  0.2857
  161SAPE  H14X18117   5.917   1.259   8.149 -0.0032  0.4052  0.7826
  161SAPE  H14Y18118   5.735   1.244   8.149 -0.3658  1.3969 -0.2692
  161SAPE  C31518119   5.827   1.138   8.310  0.3812  0.0807  0.1989
  161SAPE  H15X18120   5.808   1.048   8.247  2.1359  0.3765 -0.8144
  161SAPE  H15Y18121   5.752   1.144   8.393  1.3247 -3.0663  1.4287
  161SAPE  C31618122   5.955   1.112   8.387  0.3560 -0.0873  0.5814
  161SAPE  H16X18123   5.999   1.204   8.431 -1.5043  1.4434 -0.5814
  161SAPE  H16Y18124   6.026   1.078   8.309  0.8555 -0.6894  1.2802
  161SAPE  C31718125   5.947   0.995   8.483  0.4462  0.9367  0.3713
  161SAPE  H17X18126   5.911   0.903   8.434  1.2093  1.3086 -0.9307
  161SAPE  H17Y18127   5.880   1.016   8.570 -0.3197  1.6597 -0.3644
  161SAPE  C31818128   6.083   0.979   8.547 -1.1166 -0.4766  0.7612
  161SAPE  H18X18129   6.150   0.924   8.477 -1.7433  0.0562 -0.2855
  161SAPE  H18Y18130   6.082   0.928   8.646 -1.2514 -0.4885  0.7537
  161SAPE  H18Z18131   6.130   1.079   8.556 -1.3448 -0.4131  1.2829
  162SAPE     N18132   4.940   4.218   6.501 -0.0589 -0.5117 -0.0988
  162SAPE   HN118133   4.991   4.149   6.560 -1.1066 -0.6833  0.6266
  162SAPE   HN218134   4.890   4.168   6.425  1.3646 -1.7141 -0.2888
  162SAPE   HN318135   5.005   4.276   6.444 -0.8659  0.9923  0.4538
  162SAPE   C1218136   4.848   4.305   6.576  0.1284 -0.2634 -1.1749
  162SAPE  H12A18137   4.911   4.337   6.662 -0.0649 -2.9414  0.0699
  162SAPE  H12B18138   4.764   4.245   6.618  0.9155  0.0966  1.0688
  162SAPE   C1118139   4.795   4.422   6.491  0.2605  0.9770  0.1466
  162SAPE  H11A18140   4.878   4.489   6.461 -2.6258  4.5380 -0.6531
  162SAPE  H11B18141   4.725   4.477   6.557  0.4587 -0.4760  1.6408
  162SAPE     P18142   4.641   4.468   6.286 -0.6626 -0.2143  0.0557
  162SAPE   O1318143   4.698   4.462   6.148  0.3811 -0.5816  0.0776
  162SAPE   O1418144   4.496   4.438   6.293  0.1882 -0.1364 -0.3707
  162SAPE   O1218145   4.722   4.374   6.377  0.2945 -0.3646 -0.1808
  162SAPE   O1118146   4.670   4.606   6.346  1.0293 -0.4823  0.0616
  162SAPE    C118147   4.575   4.716   6.349 -0.0885 -0.5876  0.2731
  162SAPE    HA18148   4.617   4.804   6.295 -1.4954  0.0558  0.1781
  162SAPE    HB18149   4.475   4.693   6.308 -1.2228  1.8859  1.4399
  162SAPE    C218150   4.538   4.772   6.488 -0.2779  0.1800 -0.3263
  162SAPE    HS18151   4.477   4.865   6.482 -2.5878 -1.2156  0.4439
  162SAPE   O2118152   4.659   4.784   6.565 -0.1503 -0.1972 -0.1584
  162SAPE   C2118153   4.741   4.887   6.537  0.6223 -0.3725  0.1087
  162SAPE   O2218154   4.717   4.973   6.454  0.2861  0.6364 -0.0397
  162SAPE   C2218155   4.863   4.874   6.624  0.0314 -0.9436 -0.0770
  162SAPE   H2R18156   4.826   4.873   6.729  2.2766 -0.7803  0.7768
  162SAPE   H2S18157   4.906   4.775   6.596 -0.7751 -1.2370 -0.3012
  162SAPE    C318158   4.448   4.670   6.567 -0.0313 -0.1045 -0.0606
  162SAPE    HX18159   4.506   4.576   6.555  1.5422  0.8011  0.2385
  162SAPE    HY18160   4.354   4.654   6.510  1.6064  0.3306 -3.0992
  162SAPE   O3118161   4.429   4.711   6.708 -0.2260 -0.4127  0.0929
  162SAPE   C3118162   4.434   4.617   6.809 -0.2614  1.0118  0.2090
  162SAPE   O3218163   4.461   4.499   6.786 -0.1887 -0.0790 -0.5357
  162SAPE   C3218164   4.376   4.684   6.931 -0.3014  0.8633  0.2381
  162SAPE   H2X18165   4.268   4.658   6.923 -0.5534  2.0845 -0.5591
  162SAPE   H2Y18166   4.402   4.792   6.930  4.0803 -0.0226  0.2889
  162SAPE   C2318167   4.975   4.979   6.601  0.4786 -0.0118 -0.2966
  162SAPE   H3R18168   4.934   5.080   6.620 -1.6044 -1.2206  2.2020
  162SAPE   H3S18169   5.012   4.975   6.497 -0.3409 -0.3125 -0.5809
  162SAPE   C2418170   5.097   4.955   6.695 -0.1219  0.2185 -0.0075
  162SAPE   H4R18171   5.135   4.853   6.674  0.2204  0.1688  0.8373
  162SAPE   H4S18172   5.058   4.942   6.798  1.5594  0.0831  0.6275
  162SAPE   C2518173   5.199   5.067   6.674  1.4443 -0.4538 -0.4214
  162SAPE   H5R18174   5.236   5.088   6.573  0.6995  0.9343 -0.4259
  162SAPE   C2618175   5.246   5.144   6.769  0.3317 -0.6333 -0.1958
  162SAPE   H6R18176   5.315   5.225   6.741 -1.9289  1.6170  0.3533
  162SAPE   C2718177   5.220   5.139   6.916  0.2349 -0.1748 -0.0923
  162SAPE   H7R18178   5.112   5.131   6.940  0.3449 -0.1317  0.4260
  162SAPE   H7S18179   5.237   5.240   6.958 -0.7642  1.3613 -3.0956
  162SAPE   C2818180   5.288   5.026   6.989 -0.4654 -0.2205  0.1016
  162SAPE   H8R18181   5.327   4.945   6.926  0.0332 -1.7301  2.2527
  162SAPE   C2918182   5.320   5.019   7.119  0.1218  0.2117  0.1851
  162SAPE   H9R18183   5.371   4.926   7.151  0.0284 -0.2334 -0.8948
  162SAPE  C21018184   5.291   5.121   7.221  0.2506 -0.6221 -0.3287
  162SAPE  H10R18185   5.290   5.227   7.188  2.3986  0.9752  3.9286
  162SAPE  H10S18186   5.362   5.126   7.307 -2.5172  1.2159  2.0773
  162SAPE  C21118187   5.154   5.081   7.274 -0.3602  0.1481 -0.4957
  162SAPE  H11R18188   5.073   5.108   7.204  0.0393  1.5597 -0.4521
  162SAPE  C21218189   5.122   5.022   7.389 -1.0182  0.7967 -0.3678
  162SAPE  H12R18190   5.016   5.002   7.407 -0.9883 -1.0636 -1.9465
  162SAPE  C21318191   5.216   4.988   7.502 -0.1839 -0.5837  0.2204
  162SAPE  H13R18192   5.164   4.997   7.600 -0.1661  0.6644  0.1292
  162SAPE  H13S18193   5.300   5.060   7.510 -1.9283  1.5836  0.1355
  162SAPE  C21418194   5.280   4.850   7.497 -0.7153 -0.9290  0.0662
  162SAPE  H14R18195   5.303   4.814   7.395 -0.1808  1.3554 -0.6836
  162SAPE  C21518196   5.326   4.770   7.592  0.6480 -0.5413  0.0526
  162SAPE  H15R18197   5.385   4.684   7.558  1.8372  0.5966 -0.8489
  162SAPE  C21618198   5.311   4.789   7.741  0.1109  0.2249  0.4044
  162SAPE  H16R18199   5.295   4.690   7.790  1.2200 -0.6010 -0.8449
  162SAPE  H16S18200   5.224   4.854   7.761  0.1736  0.9757 -1.5778
  162SAPE  C21718201   5.428   4.846   7.814  0.3277  0.1757  0.1082
  162SAPE  H17R18202   5.460   4.938   7.760 -2.1949  0.7820 -0.4994
  162SAPE  H17S18203   5.502   4.764   7.827 -1.7064 -2.0219 -1.3917
  162SAPE  C21818204   5.391   4.868   7.961 -0.3167  0.1417 -0.2691
  162SAPE  H18R18205   5.371   4.765   7.997  2.3100 -1.0382 -1.9148
  162SAPE  H18S18206   5.300   4.933   7.959 -0.9851 -0.7588  0.2025
  162SAPE  C21918207   5.492   4.942   8.045 -0.1557  0.5426 -0.2687
  162SAPE  H19R18208   5.515   5.043   8.004 -3.1128  1.6952  0.6127
  162SAPE  H19S18209   5.586   4.890   8.072 -1.1408  0.6354  4.2412
  162SAPE  C22018210   5.444   4.974   8.181  0.2250  0.3177  0.0674
  162SAPE  H20R18211   5.516   5.034   8.241  1.1050 -1.1758  0.5674
  162SAPE  H20S18212   5.437   4.876   8.232  1.9862  0.5493  0.8382
  162SAPE  H20T18213   5.349   5.029   8.163  0.8709  1.7056  0.6974
  162SAPE   C3318214   4.430   4.611   7.053 -0.0808  0.0159 -0.5917
  162SAPE   H3X18215   4.536   4.643   7.064  0.1713 -1.4564  2.1547
  162SAPE   H3Y18216   4.416   4.501   7.049  0.7694 -0.0764 -2.0864
  162SAPE   C3418217   4.356   4.668   7.178 -0.3865  0.1320 -0.1600
  162SAPE   H4X18218   4.248   4.641   7.187 -0.0617 -2.1486 -2.1372
  162SAPE   H4Y18219   4.358   4.779   7.184 -1.2685  0.1020  1.1840
  162SAPE   C3518220   4.433   4.633   7.311  0.6319  0.4905 -0.4142
  162SAPE   H5X18221   4.542   4.648   7.297  0.7656  0.0686  0.1557
  162SAPE   H5Y18222   4.412   4.527   7.334  0.4010  0.2802 -1.5363
  162SAPE   C3618223   4.383   4.709   7.427  0.0970  0.0251  0.4231
  162SAPE   H6X18224   4.272   4.719   7.427  0.0589 -0.3420  1.0407
  162SAPE   H6Y18225   4.427   4.811   7.421  2.7413 -1.0806 -0.0058
  162SAPE   C3718226   4.416   4.650   7.566 -0.5606 -0.1159 -0.6529
  162SAPE   H7X18227   4.526   4.650   7.587 -1.1108 -0.0653  2.9294
  162SAPE   H7Y18228   4.384   4.544   7.561  2.2751 -1.1122  0.2972
  162SAPE   C3818229   4.333   4.718   7.676  0.3143 -0.3688  0.1329
  162SAPE   H8X18230   4.225   4.690   7.669  0.2938 -0.2044 -0.2264
  162SAPE   H8Y18231   4.345   4.829   7.680 -0.3561 -0.2791 -0.1582
  162SAPE   C3918232   4.374   4.669   7.815 -0.6118  0.4251 -0.4986
  162SAPE   H9X18233   4.369   4.558   7.817  0.3792  0.3498  2.1562
  162SAPE   H9Y18234   4.294   4.700   7.885 -1.1286  0.6916 -1.2039
  162SAPE  C31018235   4.505   4.717   7.868 -0.5065 -0.2273  0.4658
  162SAPE  H10X18236   4.566   4.762   7.786 -0.0065  2.7496  2.3027
  162SAPE  H10Y18237   4.565   4.637   7.915 -0.9604 -0.8736 -0.0389
  162SAPE  C31118238   4.498   4.830   7.971 -0.9601 -0.1485  0.2179
  162SAPE  H11X18239   4.418   4.901   7.943  0.2956  1.8202  1.3626
  162SAPE  H11Y18240   4.596   4.883   7.973 -0.8895 -0.2860  0.5657
  162SAPE  C31218241   4.483   4.779   8.115 -0.3535 -0.1930  0.0203
  162SAPE  H12X18242   4.566   4.707   8.131 -0.9857 -1.6439 -2.6410
  162SAPE  H12Y18243   4.384   4.728   8.123 -0.0280 -0.6977  1.0018
  162SAPE  C31318244   4.506   4.881   8.225 -0.0067 -0.4899  0.0203
  162SAPE  H13X18245   4.607   4.928   8.222  0.6134 -1.8227 -1.1649
  162SAPE  H13Y18246   4.497   4.821   8.318  1.8571 -0.3426  0.3341
  162SAPE  C31418247   4.411   5.000   8.233  0.4954 -0.1162  0.8645
  162SAPE  H14X18248   4.310   4.952   8.234  1.8313 -3.2464 -0.4884
  162SAPE  H14Y18249   4.422   5.059   8.139 -0.2713 -0.6041  0.4550
  162SAPE  C31518250   4.439   5.094   8.351 -0.4763  0.1146 -0.1610
  162SAPE  H15X18251   4.548   5.118   8.355 -0.9688  2.4376  2.6392
  162SAPE  H15Y18252   4.416   5.033   8.441  1.6312 -2.6164 -1.3041
  162SAPE  C31618253   4.374   5.232   8.344  0.1607  0.5664 -0.2206
  162SAPE  H16X18254   4.416   5.277   8.251 -1.1790 -1.3183 -1.8228
  162SAPE  H16Y18255   4.386   5.309   8.423 -0.2476  0.3517  0.0558
  162SAPE  C31718256   4.224   5.223   8.321  0.0572 -0.2857  0.2344
  162SAPE  H17X18257   4.197   5.158   8.235 -2.5926  1.5114 -0.4371
  162SAPE  H17Y18258   4.184   5.324   8.298  0.1827  0.0328  1.3751
  162SAPE  C31818259   4.153   5.175   8.456  0.0766  0.2454  0.8129
  162SAPE  H18X18260   4.144   5.250   8.538  3.7288  0.2508  1.4037
  162SAPE  H18Y18261   4.203   5.081   8.487  0.6590  0.5839  0.9240
  162SAPE  H18Z18262   4.047   5.146   8.442  0.0887 -0.2462  1.6906
  163SAPE     N18263   4.566   3.434   6.466 -0.1558 -0.5299  0.0950
  163SAPE   HN118264   4.658   3.412   6.423  0.1330 -0.9157  0.8930
  163SAPE   HN218265   4.510   3.348   6.450 -1.8581  0.4376  0.5419
  163SAPE   HN318266   4.506   3.502   6.414 -1.1001 -0.6533  0.9761
  163SAPE   C1218267   4.588   3.458   6.610  0.0693  0.4705 -0.2583
  163SAPE  H12A18268   4.656   3.544   6.627  0.8947 -0.3333  0.6229
  163SAPE  H12B18269   4.635   3.365   6.647  0.8470 -0.1991 -2.7005
  163SAPE   C1118270   4.453   3.489   6.685  0.2530 -0.6337 -0.3784
  163SAPE  H11A18271   4.472   3.511   6.792  0.4776 -0.0264 -0.5349
  163SAPE  H11B18272   4.386   3.401   6.682 -0.1779 -0.3012 -0.5344
  163SAPE     P18273   4.251   3.641   6.633 -0.0165  0.1015  0.3383
  163SAPE   O1318274   4.246   3.778   6.581 -0.4406  0.4525 -0.4655
  163SAPE   O1418275   4.179   3.549   6.549 -0.5254  0.3003 -0.2250
  163SAPE   O1218276   4.394   3.606   6.619  0.2664  0.6878 -0.4406
  163SAPE   O1118277   4.239   3.625   6.790  0.4953  0.0537  0.3774
  163SAPE    C118278   4.105   3.589   6.842  0.4014 -0.8238  0.4222
  163SAPE    HA18279   4.047   3.683   6.846  1.6336 -0.0526  0.6422
  163SAPE    HB18280   4.060   3.507   6.782  1.4824 -0.2241 -1.2669
  163SAPE    C218281   4.114   3.541   6.990 -0.4467  1.5769  0.0109
  163SAPE    HS18282   4.008   3.528   7.020 -0.2680 -1.2330 -0.2694
  163SAPE   O2118283   4.208   3.621   7.065  0.2087 -0.3112  0.7125
  163SAPE   C2118284   4.153   3.707   7.149  0.4490 -0.7432  0.3809
  163SAPE   O2218285   4.032   3.710   7.175 -0.7688  0.3128 -0.0925
  163SAPE   C2218286   4.253   3.798   7.212  0.1850 -0.0516 -0.4682
  163SAPE   H2R18287   4.359   3.769   7.193  0.3505 -0.6241  1.1913
  163SAPE   H2S18288   4.235   3.890   7.151  1.0120  0.1845 -0.3785
  163SAPE    C318289   4.166   3.400   6.982 -0.2223  0.6768 -0.4102
  163SAPE    HX18290   4.273   3.410   6.954  0.2576  0.9248  1.3857
  163SAPE    HY18291   4.129   3.345   6.893 -0.5954  0.2061  0.0229
  163SAPE   O3118292   4.155   3.338   7.112 -0.2626  0.5128  0.6419
  163SAPE   C3118293   4.078   3.237   7.113 -0.6064 -0.0788  0.1544
  163SAPE   O3218294   4.021   3.180   7.025 -0.0978  0.3876  0.5181
  163SAPE   C3218295   4.066   3.197   7.262 -0.6849  0.0677  0.0837
  163SAPE   H2X18296   4.166   3.168   7.302 -1.5289 -0.7282  1.7358
  163SAPE   H2Y18297   3.995   3.112   7.270 -0.2998 -0.1307  2.1729
  163SAPE   C2318298   4.227   3.825   7.364  0.1495  0.4927 -0.5892
  163SAPE   H3R18299   4.117   3.834   7.381 -0.1209  1.0752 -2.4362
  163SAPE   H3S18300   4.274   3.923   7.386  1.9680 -0.0005 -2.0398
  163SAPE   C2418301   4.289   3.730   7.463 -0.1235 -0.0754  0.1018
  163SAPE   H4R18302   4.260   3.626   7.437 -1.2614 -0.2142  1.7722
  163SAPE   H4S18303   4.243   3.736   7.564 -0.3682 -2.2230  0.1678
  163SAPE   C2518304   4.444   3.731   7.483 -0.6889 -0.0329  0.0503
  163SAPE   H5R18305   4.498   3.707   7.390  1.2239 -0.4492  1.2349
  163SAPE   C2618306   4.508   3.740   7.604 -0.0289  0.2833 -0.6022
  163SAPE   H6R18307   4.618   3.726   7.604 -0.0860 -0.2011 -0.0261
  163SAPE   C2718308   4.439   3.771   7.738  0.0982 -0.2525 -0.4003
  163SAPE   H7R18309   4.413   3.673   7.785  1.9178 -0.5035  0.1577
  163SAPE   H7S18310   4.352   3.839   7.726 -0.4944 -0.2737  2.7271
  163SAPE   C2818311   4.534   3.840   7.830 -0.6888  0.5408 -0.2588
  163SAPE   H8R18312   4.638   3.861   7.801 -0.5526 -0.6658 -0.6871
  163SAPE   C2918313   4.478   3.888   7.945 -0.3553  0.4204 -1.0642
  163SAPE   H9R18314   4.535   3.949   8.017  1.5859 -0.3924 -1.8343
  163SAPE  C21018315   4.342   3.850   8.005 -0.5376  0.7160  0.2271
  163SAPE  H10R18316   4.368   3.827   8.110  1.6422 -0.2695 -0.4623
  163SAPE  H10S18317   4.299   3.762   7.953  0.4048  1.1481 -1.3418
  163SAPE  C21118318   4.247   3.965   7.984  0.5005  0.3292 -0.9221
  163SAPE  H11R18319   4.235   3.998   7.880  1.8081 -1.1301 -1.5748
  163SAPE  C21218320   4.165   4.025   8.076 -0.1676  0.2042 -0.0121
  163SAPE  H12R18321   4.097   4.105   8.044  0.2357  0.6207  0.1627
  163SAPE  C21318322   4.157   3.992   8.220 -0.5349 -0.0616  0.8291
  163SAPE  H13R18323   4.134   3.884   8.231  0.3200 -0.4280 -0.6800
  163SAPE  H13S18324   4.060   4.036   8.254 -1.1057 -0.5611 -0.1029
  163SAPE  C21418325   4.276   4.036   8.306 -0.2239 -0.6317  0.9938
  163SAPE  H14R18326   4.316   4.136   8.282 -1.2104 -0.8477 -1.8970
  163SAPE  C21518327   4.339   3.956   8.394  0.1774  0.2879  0.2312
  163SAPE  H15R18328   4.424   3.990   8.455 -1.1475  0.4786  2.0525
  163SAPE  C21618329   4.291   3.815   8.422 -0.0988  0.4433 -0.1983
  163SAPE  H16R18330   4.384   3.764   8.454 -0.7603  0.0116  1.0873
  163SAPE  H16S18331   4.278   3.754   8.329  0.4687  0.2916 -0.1824
  163SAPE  C21718332   4.184   3.820   8.532 -0.4812  0.2971  1.1595
  163SAPE  H17R18333   4.159   3.713   8.548 -1.2651  0.0682 -1.1590
  163SAPE  H17S18334   4.093   3.869   8.490  0.0012  0.5125  0.3481
  163SAPE  C21818335   4.227   3.884   8.663 -0.1026 -0.4050 -0.2948
  163SAPE  H18R18336   4.270   3.984   8.643  0.4968 -0.7286 -0.6858
  163SAPE  H18S18337   4.315   3.833   8.710 -1.0857 -1.1747  0.7729
  163SAPE  C21918338   4.129   3.882   8.776  0.1953  0.2280 -0.3983
  163SAPE  H19R18339   4.122   3.788   8.835  0.2512 -0.3825 -1.3328
  163SAPE  H19S18340   4.028   3.913   8.741  0.5050  0.9182 -0.6970
  163SAPE  C22018341   4.167   3.997   8.871  0.1468 -0.0223  0.1062
  163SAPE  H20R18342   4.110   3.993   8.966 -1.1189 -0.3396 -0.6334
  163SAPE  H20S18343   4.153   4.089   8.810 -0.7124 -0.2295 -0.0255
  163SAPE  H20T18344   4.272   3.993   8.906  0.2307  1.6169  0.1227
  163SAPE   C3318345   4.023   3.312   7.360  0.7156 -0.4075  0.3171
  163SAPE   H3X18346   3.931   3.281   7.414 -0.7103  0.1685 -1.6611
  163SAPE   H3Y18347   3.988   3.399   7.301  3.2264  1.8939  1.9494
  163SAPE   C3418348   4.128   3.356   7.452  0.2197 -0.2065 -0.1885
  163SAPE   H4X18349   4.121   3.466   7.465 -3.8210 -0.4978  1.5111
  163SAPE   H4Y18350   4.226   3.323   7.412 -0.8301 -3.4461 -0.3979
  163SAPE   C3518351   4.107   3.293   7.590 -0.5718  0.1958 -0.5520
  163SAPE   H5X18352   4.118   3.182   7.596  3.1403  0.4521 -0.3258
  163SAPE   H5Y18353   4.006   3.313   7.632 -0.4415 -0.2970  0.0219
  163SAPE   C3618354   4.218   3.335   7.688 -0.2486  0.3853 -0.4975
  163SAPE   H6X18355   4.200   3.444   7.681  1.2981  0.6320 -0.8908
  163SAPE   H6Y18356   4.324   3.318   7.660 -0.7204 -1.5210 -1.2968
  163SAPE   C3718357   4.206   3.303   7.838 -0.3093  0.2608 -0.9124
  163SAPE   H7X18358   4.179   3.195   7.840  1.4686 -0.2128 -0.5093
  163SAPE   H7Y18359   4.115   3.354   7.876 -0.1604  0.2662 -0.5524
  163SAPE   C3818360   4.334   3.330   7.924  0.0876  0.1798  0.1084
  163SAPE   H8X18361   4.328   3.440   7.921 -2.6312  0.0753 -2.0887
  163SAPE   H8Y18362   4.422   3.304   7.861 -0.4862 -1.7901  0.0492
  163SAPE   C3918363   4.332   3.265   8.054  0.6244  0.1740 -0.3403
  163SAPE   H9X18364   4.345   3.155   8.051  1.2152  0.2464 -0.6167
  163SAPE   H9Y18365   4.228   3.284   8.089  0.6503  1.6073 -0.9577
  163SAPE  C31018366   4.443   3.317   8.140  0.8624  0.5875  0.1185
  163SAPE  H10X18367   4.469   3.422   8.115  0.4972  0.4790 -0.7501
  163SAPE  H10Y18368   4.542   3.268   8.129 -0.7205 -2.7922 -0.5351
  163SAPE  C31118369   4.413   3.319   8.288  0.2752  0.3778 -0.0973
  163SAPE  H11X18370   4.332   3.394   8.304  1.2955  1.0488  2.2929
  163SAPE  H11Y18371   4.500   3.362   8.342 -1.2866  3.2412  0.3351
  163SAPE  C31218372   4.387   3.187   8.355 -0.1363  0.7112 -0.7578
  163SAPE  H12X18373   4.453   3.105   8.319  0.5572  0.7576  0.3711
  163SAPE  H12Y18374   4.286   3.153   8.322 -1.5331  1.6404  2.2067
  163SAPE  C31318375   4.384   3.186   8.509  0.1766  0.5864 -0.1613
  163SAPE  H13X18376   4.348   3.086   8.542  1.4706  0.5361  1.1823
  163SAPE  H13Y18377   4.313   3.265   8.542 -1.8525 -1.5282  0.8140
  163SAPE  C31418378   4.524   3.200   8.570 -0.0259  0.6826  0.2540
  163SAPE  H14X18379   4.554   3.306   8.560 -0.8047  0.9623  0.7701
  163SAPE  H14Y18380   4.596   3.140   8.510 -2.2896 -2.0689  0.0366
  163SAPE  C31518381   4.544   3.147   8.717  1.0240  0.0542  0.0335
  163SAPE  H15X18382   4.498   3.226   8.781  0.9186 -0.6933  0.8945
  163SAPE  H15Y18383   4.654   3.144   8.727  1.2399  0.0372 -2.0055
  163SAPE  C31618384   4.491   3.011   8.759  0.5674  0.2979 -0.4796
  163SAPE  H16X18385   4.512   2.935   8.682  0.1524  2.1902 -2.5760
  163SAPE  H16Y18386   4.380   3.024   8.764  0.9169  4.3282  0.9990
  163SAPE  C31718387   4.542   2.955   8.898 -0.1487  0.1105  0.3484
  163SAPE  H17X18388   4.652   2.944   8.886 -0.0872  0.7191  0.2938
  163SAPE  H17Y18389   4.508   2.851   8.914  0.2472 -0.4258 -1.9758
  163SAPE  C31818390   4.515   3.052   9.015  0.4423 -0.3275  0.1759
  163SAPE  H18X18391   4.408   3.083   9.020  0.9714  2.1228 -1.8495
  163SAPE  H18Y18392   4.580   3.141   9.005 -0.9279  0.7832  0.7568
  163SAPE  H18Z18393   4.536   2.994   9.108 -1.2077  1.1225  1.5241
  164SAPE     N18394   0.612   0.787   5.945  0.0007 -0.3907 -0.5446
  164SAPE   HN118395   0.553   0.846   6.008  0.6415 -1.5521  1.1918
  164SAPE   HN218396   0.710   0.794   5.979 -0.8140 -0.7173  2.0600
  164SAPE   HN318397   0.610   0.829   5.850  3.1389 -0.2191 -0.6388
  164SAPE   C1218398   0.568   0.641   5.951 -0.4022  0.2068 -0.0208
  164SAPE  H12A18399   0.480   0.639   5.883 -0.7179  1.5854  0.3055
  164SAPE  H12B18400   0.536   0.616   6.054 -2.5292 -3.2512 -1.3572
  164SAPE   C1118401   0.686   0.566   5.890  0.3744  0.1080 -0.5274
  164SAPE  H11A18402   0.782   0.586   5.944  1.9544 -0.9884 -2.7670
  164SAPE  H11B18403   0.708   0.616   5.794  1.4041  2.0040  0.6176
  164SAPE     P18404   0.739   0.315   5.950 -0.0163  0.0101 -0.0063
  164SAPE   O1318405   0.662   0.189   5.942  0.0386 -0.1384 -0.3367
  164SAPE   O1418406   0.880   0.299   5.911  0.2434  0.1835 -0.0150
  164SAPE   O1218407   0.673   0.421   5.856 -0.1100 -0.0616  0.0158
  164SAPE   O1118408   0.735   0.378   6.095  0.0897  0.0134 -0.9226
  164SAPE    C118409   0.826   0.330   6.194 -0.0210  0.4459  0.2905
  164SAPE    HA18410   0.933   0.321   6.164  0.6216 -0.1002  2.5604
  164SAPE    HB18411   0.824   0.399   6.281 -1.2711  1.9400 -0.8550
  164SAPE    C218412   0.787   0.190   6.251  1.2741  0.0216 -0.0902
  164SAPE    HS18413   0.808   0.123   6.165 -0.8211 -0.9173  0.0739
  164SAPE   O2118414   0.646   0.190   6.294 -0.0627  0.0814  0.0791
  164SAPE   C2118415   0.580   0.076   6.287 -0.9908 -0.0576  0.3232
  164SAPE   O2218416   0.624  -0.033   6.260 -1.0296  0.6158  1.0419
  164SAPE   C2218417   0.431   0.111   6.308 -0.5217  1.0025 -0.2977
  164SAPE   H2R18418   0.415   0.218   6.286  1.2625  1.3102 -0.1925
  164SAPE   H2S18419   0.394   0.050   6.222  0.6772 -0.2570  0.0289
  164SAPE    C318420   0.880   0.146   6.363 -0.4264 -0.1003 -0.2387
  164SAPE    HX18421   0.980   0.110   6.331 -0.3637  1.5761 -2.0750
  164SAPE    HY18422   0.816   0.070   6.413 -1.0360  0.5154 -0.0666
  164SAPE   O3118423   0.912   0.255   6.454  0.7294  0.0433 -0.1837
  164SAPE   C3118424   0.972   0.214   6.568  0.7488 -0.9312 -0.2412
  164SAPE   O3218425   1.001   0.098   6.586  0.0310  0.1701  0.0585
  164SAPE   C3218426   0.995   0.339   6.661  0.3016  0.4481 -0.8144
  164SAPE   H2X18427   0.900   0.395   6.650  0.5800  1.3172  0.9547
  164SAPE   H2Y18428   1.070   0.408   6.618 -1.8333  1.4289 -3.2715
  164SAPE   C2318429   0.366   0.062   6.447 -0.4727  0.3522  0.1328
  164SAPE   H3R18430   0.392  -0.044   6.469  2.0299  0.9217  0.2342
  164SAPE   H3S18431   0.256   0.069   6.437 -0.5455  0.5620  0.9939
  164SAPE   C2418432   0.415   0.151   6.566 -0.0810 -0.1953 -0.0390
  164SAPE   H4R18433   0.338   0.134   6.644  0.7924  0.4693  1.0129
  164SAPE   H4S18434   0.400   0.257   6.537  0.2048  0.8255  3.1257
  164SAPE   C2518435   0.554   0.125   6.627  0.9216  0.1339 -0.3608
  164SAPE   H5R18436   0.634   0.146   6.554  0.2728 -0.0912 -1.1615
  164SAPE   C2618437   0.591   0.063   6.744  0.4988 -0.0221 -0.1275
  164SAPE   H6R18438   0.694   0.052   6.781 -0.5638  0.3447  3.3383
  164SAPE   C2718439   0.489   0.018   6.839 -0.0069 -0.5041  0.5511
  164SAPE   H7R18440   0.517  -0.088   6.857  1.7328 -0.1001  0.4192
  164SAPE   H7S18441   0.387   0.012   6.796 -0.5487 -0.8688  1.8190
  164SAPE   C2818442   0.474   0.101   6.967 -0.5657 -0.3073  0.2085
  164SAPE   H8R18443   0.421   0.195   6.950 -2.9795 -1.2611  1.9193
  164SAPE   C2918444   0.517   0.067   7.090  0.3242 -0.4820 -0.3642
  164SAPE   H9R18445   0.484   0.132   7.173  1.6173  0.9865 -0.9622
  164SAPE  C21018446   0.590  -0.058   7.136 -0.7627 -0.1399 -0.7810
  164SAPE  H10R18447   0.675  -0.028   7.202  2.3040 -0.8542 -4.0528
  164SAPE  H10S18448   0.640  -0.107   7.050  0.3486 -2.2175  0.9466
  164SAPE  C21118449   0.503  -0.161   7.215 -0.9672  0.3565  0.1528
  164SAPE  H11R18450   0.427  -0.207   7.150 -1.4245  0.6488  0.4770
  164SAPE  C21218451   0.513  -0.201   7.342 -0.2323 -0.3584 -0.7671
  164SAPE  H12R18452   0.436  -0.267   7.384 -0.5197  0.1139 -0.5349
  164SAPE  C21318453   0.613  -0.153   7.443 -0.4700 -0.0583  0.0675
  164SAPE  H13R18454   0.576  -0.071   7.507  2.1111  0.6915  0.6854
  164SAPE  H13S18455   0.715  -0.127   7.406  0.1491  1.9723  2.8944
  164SAPE  C21418456   0.644  -0.274   7.531  0.9566 -0.1032 -0.1118
  164SAPE  H14R18457   0.654  -0.368   7.475 -2.9997 -1.8664  1.7692
  164SAPE  C21518458   0.636  -0.281   7.673 -0.1115  0.2780  0.7734
  164SAPE  H15R18459   0.664  -0.371   7.729 -0.7262  0.9657  2.2484
  164SAPE  C21618460   0.612  -0.163   7.767  0.3609  0.1550  0.0963
  164SAPE  H16R18461   0.609  -0.070   7.707  3.0096  0.5067  0.3542
  164SAPE  H16S18462   0.701  -0.149   7.832 -0.8738  0.7113  1.7278
  164SAPE  C21718463   0.493  -0.158   7.866 -0.6945 -0.4639  0.4929
  164SAPE  H17R18464   0.400  -0.160   7.806 -2.1660 -1.1071  2.6813
  164SAPE  H17S18465   0.497  -0.055   7.909 -3.4527 -0.6823  1.4647
  164SAPE  C21818466   0.504  -0.256   7.979  0.0537  0.2243 -0.8850
  164SAPE  H18R18467   0.613  -0.277   7.993 -0.2047 -0.3884  0.3489
  164SAPE  H18S18468   0.444  -0.346   7.955  0.5585 -0.7284  1.2285
  164SAPE  C21918469   0.454  -0.209   8.118 -0.1818 -0.0726 -0.0488
  164SAPE  H19R18470   0.527  -0.133   8.153  1.4571 -1.0560 -1.1858
  164SAPE  H19S18471   0.469  -0.297   8.185 -0.9868 -0.4163 -0.3157
  164SAPE  C22018472   0.304  -0.171   8.121  0.0835 -0.4766 -0.1067
  164SAPE  H20R18473   0.248  -0.266   8.104  2.0777 -1.7043 -0.1688
  164SAPE  H20S18474   0.276  -0.101   8.040  0.3682 -1.3903 -1.0196
  164SAPE  H20T18475   0.284  -0.132   8.223  1.5455 -2.6882  1.1227
  164SAPE   C3318476   1.013   0.309   6.817 -0.2565 -0.8472  0.8646
  164SAPE   H3X18477   0.993   0.406   6.868  0.0235 -1.0743  1.4118
  164SAPE   H3Y18478   1.120   0.286   6.833  0.7434  0.9959 -2.2142
  164SAPE   C3418479   0.908   0.219   6.881  0.0149 -0.0985 -0.3676
  164SAPE   H4X18480   0.930   0.116   6.845 -2.7343 -1.0869  0.5264
  164SAPE   H4Y18481   0.811   0.251   6.837 -0.4530 -1.2100 -0.1611
  164SAPE   C3518482   0.889   0.230   7.040  0.6400 -0.2446 -0.2287
  164SAPE   H5X18483   0.789   0.201   7.077  1.3736  0.3868  2.4610
  164SAPE   H5Y18484   0.891   0.338   7.068 -0.4692  0.2748 -1.9347
  164SAPE   C3618485   0.996   0.158   7.122 -0.9561  0.3018  0.6143
  164SAPE   H6X18486   1.087   0.200   7.075 -0.8057 -1.3307 -0.6620
  164SAPE   H6Y18487   1.012   0.053   7.087  3.2592  0.8005  0.5948
  164SAPE   C3718488   1.001   0.169   7.277  1.0930  1.2167  0.8244
  164SAPE   H7X18489   0.997   0.269   7.326  2.7808 -0.1242  3.9957
  164SAPE   H7Y18490   1.093   0.121   7.314 -0.8115 -4.4122 -0.8135
  164SAPE   C3818491   0.873   0.104   7.339 -0.8846 -0.0548 -0.5590
  164SAPE   H8X18492   0.858  -0.003   7.311 -2.1776  0.7337 -3.2675
  164SAPE   H8Y18493   0.790   0.169   7.303 -1.5361 -1.2473 -1.2894
  164SAPE   C3918494   0.887   0.101   7.496 -0.7254  0.6286  0.0288
  164SAPE   H9X18495   0.990   0.068   7.521 -0.6080  1.8609  1.3428
  164SAPE   H9Y18496   0.818   0.030   7.547 -1.2982  0.1371 -1.3935
  164SAPE  C31018497   0.853   0.236   7.556 -0.2072  0.2509 -0.6809
  164SAPE  H10X18498   0.806   0.293   7.473 -0.8557 -2.5779 -2.3665
  164SAPE  H10Y18499   0.949   0.289   7.573  0.1996 -1.2411  2.2744
  164SAPE  C31118500   0.771   0.228   7.687 -0.0368 -0.1874 -0.1626
  164SAPE  H11X18501   0.667   0.202   7.659 -0.7067  0.5649  1.4896
  164SAPE  H11Y18502   0.752   0.333   7.719  0.4167 -0.3637  0.7273
  164SAPE  C31218503   0.839   0.151   7.794 -0.6258  0.0801 -0.4383
  164SAPE  H12X18504   0.943   0.188   7.796 -0.8236  0.8397  3.1702
  164SAPE  H12Y18505   0.850   0.043   7.773 -0.7468 -0.1528  0.6180
  164SAPE  C31318506   0.778   0.188   7.927 -0.1996 -0.2234  0.4843
  164SAPE  H13X18507   0.677   0.142   7.931 -0.7476  0.9547  0.7215
  164SAPE  H13Y18508   0.758   0.297   7.925 -2.8588 -0.6319  0.4662
  164SAPE  C31418509   0.853   0.137   8.055  0.1756 -0.5178  0.1275
  164SAPE  H14X18510   0.949   0.193   8.051  0.1083 -0.4356 -0.3742
  164SAPE  H14Y18511   0.868   0.028   8.046 -0.1724 -0.5377 -0.1773
  164SAPE  C31518512   0.779   0.170   8.183 -0.0280  0.6947  0.1260
  164SAPE  H15X18513   0.686   0.113   8.204 -1.1836  3.3616  3.2455
  164SAPE  H15Y18514   0.724   0.266   8.175 -3.0912 -0.8566  0.6834
  164SAPE  C31618515   0.868   0.152   8.308 -0.3307 -0.0834  0.2713
  164SAPE  H16X18516   0.970   0.192   8.290 -1.1694  1.4094 -1.4577
  164SAPE  H16Y18517   0.880   0.045   8.335 -1.3339 -0.3274 -0.1966
  164SAPE  C31718518   0.819   0.219   8.438  0.3135  0.3747 -0.2308
  164SAPE  H17X18519   0.719   0.176   8.461 -0.3233  1.8766 -0.0947
  164SAPE  H17Y18520   0.807   0.328   8.424  0.0747  0.2996 -0.6335
  164SAPE  C31818521   0.915   0.200   8.557  0.6839  0.1931 -0.3035
  164SAPE  H18X18522   1.010   0.255   8.541  1.3439  0.1272  2.8410
  164SAPE  H18Y18523   0.933   0.093   8.582  1.7459  0.5956  0.7350
  164SAPE  H18Z18524   0.871   0.244   8.649 -2.8418 -0.9784 -1.2503
  165SAPE     N18525   0.215   3.244   5.955 -0.0275  0.1675 -0.1158
  165SAPE   HN118526   0.136   3.195   6.002  0.3318 -1.6378 -1.2866
  165SAPE   HN218527   0.212   3.348   5.950 -1.6350  0.0958 -2.3267
  165SAPE   HN318528   0.196   3.212   5.858  0.5701 -0.7836  0.0632
  165SAPE   C1218529   0.346   3.189   6.009 -0.4893  0.7981 -0.4827
  165SAPE  H12A18530   0.375   3.102   5.946 -2.5386 -1.4525  1.4323
  165SAPE  H12B18531   0.328   3.154   6.113 -0.4215  2.1069 -0.0198
  165SAPE   C1118532   0.449   3.303   6.015  0.3472 -0.3731  0.6996
  165SAPE  H11A18533   0.467   3.316   5.906  0.8052  1.0214  0.9258
  165SAPE  H11B18534   0.550   3.281   6.057  0.9275  1.0793  0.1349
  165SAPE     P18535   0.463   3.512   6.178 -0.6313  0.0509 -0.0544
  165SAPE   O1318536   0.532   3.625   6.110 -0.1513 -0.4960  0.0899
  165SAPE   O1418537   0.368   3.549   6.282 -0.7234 -0.1680  0.4758
  165SAPE   O1218538   0.392   3.423   6.061  0.6003 -0.3089  0.2768
  165SAPE   O1118539   0.570   3.418   6.241  0.4822 -0.3651 -0.5785
  165SAPE    C118540   0.536   3.306   6.328  0.1566  0.3597  0.2412
  165SAPE    HA18541   0.429   3.276   6.329  0.5183 -1.0307 -0.3563
  165SAPE    HB18542   0.572   3.214   6.278  0.3648  0.4944  0.1414
  165SAPE    C218543   0.572   3.313   6.481  0.0744  0.3839  0.2782
  165SAPE    HS18544   0.478   3.357   6.520 -1.1069 -0.7875 -1.1174
  165SAPE   O2118545   0.693   3.387   6.504 -0.2979 -0.1179 -0.4445
  165SAPE   C2118546   0.678   3.497   6.576 -0.4078  0.0935  0.2019
  165SAPE   O2218547   0.572   3.526   6.627  0.1538  0.3989  0.2197
  165SAPE   C2218548   0.808   3.574   6.576  0.1893 -0.2388 -0.1916
  165SAPE   H2R18549   0.887   3.496   6.587 -0.0934 -0.1651  4.4972
  165SAPE   H2S18550   0.812   3.640   6.487 -1.8728  1.2619  0.7478
  165SAPE    C318551   0.582   3.169   6.548 -0.4394 -0.1016  0.1547
  165SAPE    HX18552   0.665   3.122   6.491  0.6661 -0.1191  1.7116
  165SAPE    HY18553   0.493   3.106   6.529  0.6777 -1.1839 -1.8303
  165SAPE   O3118554   0.629   3.157   6.682 -0.3271 -0.1607  0.0052
  165SAPE   C3118555   0.542   3.193   6.777  0.6228 -0.1897 -0.4588
  165SAPE   O3218556   0.427   3.243   6.761  0.3926  0.5342 -0.1978
  165SAPE   C3218557   0.605   3.166   6.912 -0.5144  0.2040 -0.0207
  165SAPE   H2X18558   0.674   3.251   6.932 -0.1396 -0.1976  0.4235
  165SAPE   H2Y18559   0.661   3.072   6.898 -2.7615 -1.2946  0.5611
  165SAPE   C2318560   0.831   3.647   6.710  0.0256  0.3991 -0.3968
  165SAPE   H3R18561   0.766   3.736   6.725  0.7669  0.6620  1.6105
  165SAPE   H3S18562   0.933   3.690   6.714 -0.4758  1.5625  2.5823
  165SAPE   C2418563   0.831   3.555   6.832 -0.4440 -0.5493  0.0776
  165SAPE   H4R18564   0.903   3.471   6.823  1.5403  0.7213  2.7961
  165SAPE   H4S18565   0.730   3.510   6.821 -1.2865  1.2463  0.1175
  165SAPE   C2518566   0.860   3.638   6.953 -0.3007 -0.8919  0.3595
  165SAPE   H5R18567   0.962   3.679   6.946 -0.9208  0.6435  0.0468
  165SAPE   C2618568   0.792   3.652   7.064  0.0933 -0.4524 -0.6784
  165SAPE   H6R18569   0.828   3.707   7.152 -1.0534  0.6945 -0.8911
  165SAPE   C2718570   0.662   3.585   7.107 -0.0602 -0.7155  0.3068
  165SAPE   H7R18571   0.609   3.537   7.022 -0.5732  2.2212 -1.1396
  165SAPE   H7S18572   0.593   3.664   7.143 -0.4303 -2.3160  3.4590
  165SAPE   C2818573   0.687   3.477   7.209  0.0658 -0.4501 -0.2125
  165SAPE   H8R18574   0.698   3.377   7.163  0.4844 -0.4424 -0.1260
  165SAPE   C2918575   0.693   3.490   7.341 -0.5603  0.0199  0.2091
  165SAPE   H9R18576   0.715   3.398   7.397 -0.4969  0.3029  0.6567
  165SAPE  C21018577   0.684   3.614   7.425 -0.6965  0.2852  0.2859
  165SAPE  H10R18578   0.577   3.643   7.437 -1.6034 -1.5156 -2.3902
  165SAPE  H10S18579   0.723   3.698   7.364 -1.7961 -1.0185 -2.3878
  165SAPE  C21118580   0.767   3.591   7.548 -0.2144  0.6239  0.2735
  165SAPE  H11R18581   0.874   3.568   7.541 -0.1078 -1.3097  4.7932
  165SAPE  C21218582   0.741   3.607   7.675  0.1904  0.0185 -0.4650
  165SAPE  H12R18583   0.814   3.579   7.753  0.2205  0.0060 -0.4971
  165SAPE  C21318584   0.607   3.644   7.735 -0.5986 -1.2677 -0.2875
  165SAPE  H13R18585   0.531   3.661   7.656  0.6577  0.6751 -1.1406
  165SAPE  H13S18586   0.624   3.740   7.787  1.1236 -2.3347  1.2468
  165SAPE  C21418587   0.560   3.540   7.837  0.6214  0.0400  0.1796
  165SAPE  H14R18588   0.490   3.462   7.802  1.1595  0.1825 -1.2880
  165SAPE  C21518589   0.609   3.532   7.966  0.0529  0.0840  0.3708
  165SAPE  H15R18590   0.570   3.453   8.031 -0.6040  0.2871  0.2325
  165SAPE  C21618591   0.724   3.607   8.032 -0.1876  0.4583 -0.4193
  165SAPE  H16R18592   0.682   3.690   8.093 -1.5399 -0.6102  0.1521
  165SAPE  H16S18593   0.776   3.658   7.948 -0.2014 -0.4038 -0.9602
  165SAPE  C21718594   0.817   3.525   8.120 -0.1626  0.3913 -1.0744
  165SAPE  H17R18595   0.879   3.454   8.061  0.5612 -0.3649  0.5341
  165SAPE  H17S18596   0.764   3.450   8.183  3.0968  0.0176  1.4900
  165SAPE  C21818597   0.906   3.611   8.203  0.4466 -0.1583 -0.3060
  165SAPE  H18R18598   0.972   3.665   8.132  1.9763  1.0437  1.9257
  165SAPE  H18S18599   0.973   3.547   8.264 -0.9448  0.6042  2.1725
  165SAPE  C21918600   0.834   3.717   8.301 -0.6906  0.0259 -0.1028
  165SAPE  H19R18601   0.787   3.807   8.256 -1.5024 -0.4101 -0.1494
  165SAPE  H19S18602   0.913   3.757   8.368 -2.4079  3.2134  0.1845
  165SAPE  C22018603   0.726   3.659   8.400 -0.1436 -0.0264 -0.1600
  165SAPE  H20R18604   0.647   3.612   8.337  1.9500 -2.2978 -1.2446
  165SAPE  H20S18605   0.678   3.731   8.470  0.5316  0.8092 -0.5490
  165SAPE  H20T18606   0.778   3.586   8.465  2.1302 -0.1917 -2.0499
  165SAPE   C3318607   0.500   3.155   7.021 -0.3648 -0.1481  1.1153
  165SAPE   H3X18608   0.438   3.071   6.985 -1.9249  1.3627  0.1001
  165SAPE   H3Y18609   0.441   3.249   7.020 -0.6536 -0.3261 -0.2595
  165SAPE   C3418610   0.553   3.127   7.160  0.8484 -0.1078 -0.0033
  165SAPE   H4X18611   0.624   3.205   7.196  0.0621  0.6692 -0.1105
  165SAPE   H4Y18612   0.612   3.033   7.169  0.2833 -0.6474 -1.6355
  165SAPE   C3518613   0.439   3.123   7.263  1.1742  0.5149 -0.1952
  165SAPE   H5X18614   0.381   3.031   7.244 -0.3993  0.6845  2.9960
  165SAPE   H5Y18615   0.372   3.203   7.224  0.0688 -0.4352 -0.2882
  165SAPE   C3618616   0.473   3.168   7.405 -0.2260 -0.1714  0.1753
  165SAPE   H6X18617   0.498   3.276   7.402 -1.0709  0.0982  2.0435
  165SAPE   H6Y18618   0.552   3.103   7.449 -0.6724  0.9526  2.7802
  165SAPE   C3718619   0.354   3.139   7.494  0.4840 -0.0070 -0.2046
  165SAPE   H7X18620   0.348   3.030   7.513 -0.3059 -0.2426 -1.6930
  165SAPE   H7Y18621   0.257   3.170   7.449 -0.2336 -2.3451 -0.3766
  165SAPE   C3818622   0.376   3.195   7.632 -0.1408 -0.6934  0.3073
  165SAPE   H8X18623   0.376   3.306   7.626 -0.8680 -0.5424  2.2350
  165SAPE   H8Y18624   0.471   3.173   7.684  0.8045  1.9159 -0.1463
  165SAPE   C3918625   0.267   3.160   7.739 -0.3903  0.2858  0.6694
  165SAPE   H9X18626   0.260   3.050   7.748  0.9982 -0.0088 -1.2520
  165SAPE   H9Y18627   0.176   3.209   7.698 -0.0335  0.7957  0.4727
  165SAPE  C31018628   0.282   3.238   7.877 -0.4966  0.1086  0.2399
  165SAPE  H10X18629   0.191   3.227   7.938 -1.1680 -0.9890 -0.9193
  165SAPE  H10Y18630   0.308   3.345   7.856  0.4254 -0.2325 -0.4756
  165SAPE  C31118631   0.391   3.170   7.966  1.2693 -0.1772  0.2300
  165SAPE  H11X18632   0.494   3.170   7.924  0.7681 -1.1039 -1.0534
  165SAPE  H11Y18633   0.357   3.066   7.987  2.7679 -0.2212  2.9427
  165SAPE  C31218634   0.396   3.245   8.105  0.7224  0.1911  0.6360
  165SAPE  H12X18635   0.370   3.350   8.076 -0.4703 -0.3850 -0.4992
  165SAPE  H12Y18636   0.505   3.255   8.126  0.8442 -0.6337  0.4346
  165SAPE  C31318637   0.332   3.179   8.222 -0.1952  0.1230 -0.4385
  165SAPE  H13X18638   0.372   3.076   8.229 -2.4877 -0.7646  0.8470
  165SAPE  H13Y18639   0.227   3.168   8.187 -0.0621 -3.8598 -0.0795
  165SAPE  C31418640   0.343   3.248   8.355  0.1946 -0.5399 -1.5912
  165SAPE  H14X18641   0.279   3.192   8.427 -0.5450 -1.2386 -2.7567
  165SAPE  H14Y18642   0.299   3.347   8.332  1.2820 -0.1690 -2.1678
  165SAPE  C31518643   0.492   3.264   8.399  0.0230  0.3749  0.2145
  165SAPE  H15X18644   0.542   3.325   8.321 -1.7346 -0.2833 -1.5150
  165SAPE  H15Y18645   0.537   3.165   8.424 -0.0248  0.2161 -0.3286
  165SAPE  C31618646   0.501   3.344   8.535  0.4372 -0.6021 -0.6200
  165SAPE  H16X18647   0.446   3.440   8.525  0.6752 -0.2703  0.9467
  165SAPE  H16Y18648   0.610   3.355   8.553  0.1285  0.6196  0.7174
  165SAPE  C31718649   0.438   3.265   8.663  0.0605 -0.2213  0.0512
  165SAPE  H17X18650   0.327   3.253   8.672  0.0598  0.6995  1.8156
  165SAPE  H17Y18651   0.455   3.328   8.753  0.9232  0.0123 -0.2713
  165SAPE  C31818652   0.502   3.130   8.693  0.0593  0.1189 -0.1453
  165SAPE  H18X18653   0.448   3.098   8.785  0.0166  3.8180  1.3102
  165SAPE  H18Y18654   0.607   3.132   8.729  0.2857 -0.3259 -0.7729
  165SAPE  H18Z18655   0.490   3.056   8.611  1.2180  0.8705 -1.0347
  166SAPE     N18656   1.159   1.223   5.708 -0.9221 -0.3661  0.0613
  166SAPE   HN118657   1.195   1.312   5.669  0.5364 -0.5288  0.9813
  166SAPE   HN218658   1.203   1.216   5.802  2.6342  0.4646 -1.3956
  166SAPE   HN318659   1.175   1.144   5.642 -1.5903  1.7692 -2.8349
  166SAPE   C1218660   1.013   1.218   5.723 -0.1058 -0.6244  0.7985
  166SAPE  H12A18661   0.971   1.200   5.622  0.2377 -1.2226  0.7604
  166SAPE  H12B18662   0.981   1.322   5.746  0.1915 -0.1490 -0.8095
  166SAPE   C1118663   0.971   1.122   5.836 -0.0764  0.2692 -0.6977
  166SAPE  H11A18664   0.862   1.130   5.853  0.1747  0.2505  1.2168
  166SAPE  H11B18665   1.026   1.165   5.923  0.2555 -0.7916 -0.3640
  166SAPE     P18666   0.947   0.854   5.826  0.3538  0.4019  0.1660
  166SAPE   O1318667   0.838   0.862   5.725 -0.2746  0.1452 -0.0734
  166SAPE   O1418668   1.037   0.743   5.815 -0.1616  0.2731 -0.6060
  166SAPE   O1218669   1.026   0.987   5.822 -0.1767 -0.4228 -0.1220
  166SAPE   O1118670   0.875   0.851   5.968 -0.0133  0.2517  0.1404
  166SAPE    C118671   0.950   0.793   6.076  0.6327  0.1714 -0.6517
  166SAPE    HA18672   0.948   0.682   6.064 -1.6205  0.0179  0.5593
  166SAPE    HB18673   1.049   0.842   6.086 -0.2495  1.7065  1.0208
  166SAPE    C218674   0.876   0.829   6.206  0.1848 -0.8422  0.2058
  166SAPE    HS18675   0.946   0.799   6.287  1.8821  0.1268 -0.8320
  166SAPE   O2118676   0.750   0.746   6.217 -0.4089  0.1391 -0.3628
  166SAPE   C2118677   0.734   0.691   6.339  0.8113 -0.0096 -0.3932
  166SAPE   O2218678   0.812   0.698   6.433  0.3626 -0.0408  0.4888
  166SAPE   C2218679   0.611   0.601   6.335 -0.1288  0.1003 -0.0991
  166SAPE   H2R18680   0.535   0.681   6.344  0.7683  0.8317  1.2935
  166SAPE   H2S18681   0.616   0.540   6.242 -1.3436 -0.8570  0.4297
  166SAPE    C318682   0.842   0.972   6.226  0.4412 -0.1847  0.7952
  166SAPE    HX18683   0.778   1.000   6.140 -1.0665 -1.5890  1.4129
  166SAPE    HY18684   0.935   1.032   6.221  0.4043 -0.1296  0.7715
  166SAPE   O3118685   0.765   0.984   6.351  0.1901  0.2071  0.6068
  166SAPE   C3118686   0.828   1.058   6.448 -0.1596 -0.1786  0.1990
  166SAPE   O3218687   0.940   1.111   6.434 -0.0102  0.1073  0.7441
  166SAPE   C3218688   0.728   1.096   6.560 -0.2055  0.4758 -0.5021
  166SAPE   H2X18689   0.631   1.048   6.534 -1.4285  1.8359  1.2964
  166SAPE   H2Y18690   0.715   1.206   6.570  1.7155  0.8327 -1.3358
  166SAPE   C2318691   0.612   0.514   6.463  0.1147 -0.6683  0.2587
  166SAPE   H3R18692   0.713   0.473   6.480  0.5151  0.8077  1.7748
  166SAPE   H3S18693   0.548   0.428   6.434 -1.7490  0.7783 -0.1509
  166SAPE   C2418694   0.552   0.584   6.591  0.6264  0.1084 -0.5662
  166SAPE   H4R18695   0.448   0.620   6.578 -0.4447 -3.0248 -1.4830
  166SAPE   H4S18696   0.613   0.675   6.612  0.3580  0.1139  0.2192
  166SAPE   C2518697   0.551   0.481   6.703  0.6997 -0.6471  0.7508
  166SAPE   H5R18698   0.474   0.404   6.690 -0.0567 -0.0395  1.5096
  166SAPE   C2618699   0.604   0.486   6.826  0.0490  0.5287 -0.1842
  166SAPE   H6R18700   0.592   0.393   6.884  0.5749  1.1326  0.9106
  166SAPE   C2718701   0.701   0.590   6.875 -0.7401  1.1637  0.3773
  166SAPE   H7R18702   0.726   0.561   6.979  0.0403 -0.7178 -0.2927
  166SAPE   H7S18703   0.657   0.690   6.895 -1.1864  1.8251 -3.2199
  166SAPE   C2818704   0.830   0.617   6.794 -0.1255 -0.0899  0.1692
  166SAPE   H8R18705   0.825   0.623   6.684  1.2418 -0.3811  0.0680
  166SAPE   C2918706   0.948   0.665   6.835 -0.5939  0.0056 -0.0450
  166SAPE   H9R18707   1.030   0.668   6.762 -1.6955  1.0967 -1.2924
  166SAPE  C21018708   0.979   0.694   6.981 -0.3671 -0.2946 -0.4568
  166SAPE  H10R18709   0.928   0.624   7.050  0.0203 -0.9843 -0.8588
  166SAPE  H10S18710   0.922   0.781   7.020 -0.2567 -1.0770  1.5485
  166SAPE  C21118711   1.126   0.706   7.015  0.4306 -0.7932  0.0818
  166SAPE  H11R18712   1.192   0.708   6.927  0.0314  4.7168 -0.4244
  166SAPE  C21218713   1.181   0.734   7.135 -0.2092  1.0715 -0.6350
  166SAPE  H12R18714   1.291   0.729   7.136 -0.2458 -0.2704 -1.1878
  166SAPE  C21318715   1.105   0.750   7.266  0.2498  0.4275  0.0265
  166SAPE  H13R18716   0.996   0.765   7.253 -0.1166 -2.1732 -0.4554
  166SAPE  H13S18717   1.143   0.841   7.318  1.9033  1.3598 -2.6505
  166SAPE  C21418718   1.108   0.627   7.357  0.3447 -0.1361  0.4901
  166SAPE  H14R18719   1.184   0.555   7.324 -0.0782 -0.1893 -0.4007
  166SAPE  C21518720   1.027   0.586   7.454  0.9516 -0.4886 -0.1602
  166SAPE  H15R18721   1.027   0.486   7.500  1.9437 -0.3670  0.1274
  166SAPE  C21618722   0.908   0.670   7.498  0.1204  0.1724 -0.1550
  166SAPE  H16R18723   0.899   0.766   7.442 -0.0465  2.1434  2.9769
  166SAPE  H16S18724   0.908   0.706   7.603 -2.2599  1.4214 -0.5177
  166SAPE  C21718725   0.768   0.608   7.476  0.8558 -0.3732 -0.4879
  166SAPE  H17R18726   0.695   0.689   7.498 -0.1331 -0.8894 -1.6799
  166SAPE  H17S18727   0.747   0.528   7.550  0.0245  0.2811  0.0066
  166SAPE  C21818728   0.743   0.550   7.341 -0.0148 -0.2054  0.2232
  166SAPE  H18R18729   0.811   0.462   7.333  0.9026  0.2774  2.2069
  166SAPE  H18S18730   0.764   0.626   7.263 -1.5168 -1.0695 -1.1032
  166SAPE  C21918731   0.599   0.496   7.335  0.3919 -0.4915 -0.1746
  166SAPE  H19R18732   0.541   0.574   7.388 -1.7072 -1.3015 -1.1670
  166SAPE  H19S18733   0.597   0.402   7.395  1.5175 -0.6071 -0.2974
  166SAPE  C22018734   0.538   0.451   7.197 -0.2037 -0.1125 -1.0837
  166SAPE  H20R18735   0.505   0.548   7.154 -1.5944 -0.6914 -1.3643
  166SAPE  H20S18736   0.450   0.383   7.196 -0.2468 -0.1552 -4.4846
  166SAPE  H20T18737   0.626   0.411   7.142  0.5211 -3.6246  2.1679
  166SAPE   C3318738   0.777   1.037   6.690 -0.0042  0.1648 -0.0116
  166SAPE   H3X18739   0.883   1.069   6.703 -0.3906  1.7723 -0.5221
  166SAPE   H3Y18740   0.776   0.926   6.685  1.4884  0.1445 -0.4061
  166SAPE   C3418741   0.693   1.076   6.811 -1.2017  0.1036 -0.0761
  166SAPE   H4X18742   0.586   1.066   6.782 -0.4861 -1.5486 -2.4756
  166SAPE   H4Y18743   0.718   1.181   6.837 -0.5406  0.0482 -0.4494
  166SAPE   C3518744   0.722   0.988   6.934  0.3713 -0.8898  0.3108
  166SAPE   H5X18745   0.831   0.968   6.946  0.7382 -1.4452 -2.9987
  166SAPE   H5Y18746   0.660   0.905   6.894 -1.4377  1.2400 -1.6316
  166SAPE   C3618747   0.653   1.054   7.056 -0.5760  0.5406  0.5482
  166SAPE   H6X18748   0.632   0.976   7.132 -1.7206  1.6904  1.4409
  166SAPE   H6Y18749   0.555   1.096   7.025 -0.5980 -0.9186 -1.5812
  166SAPE   C3718750   0.738   1.149   7.136 -0.3822  0.3103 -0.2523
  166SAPE   H7X18751   0.694   1.178   7.234 -0.9422  2.4438 -1.0932
  166SAPE   H7Y18752   0.756   1.249   7.091 -2.1853  0.8802  0.2120
  166SAPE   C3818753   0.883   1.093   7.162  0.4766  0.3876  0.9981
  166SAPE   H8X18754   0.957   1.103   7.080 -1.4276  1.9208 -0.6433
  166SAPE   H8Y18755   0.870   0.985   7.187 -0.8115  0.3357  0.1909
  166SAPE   C3918756   0.944   1.165   7.288 -0.2533 -0.4983  0.7723
  166SAPE   H9X18757   0.867   1.196   7.363  0.5916 -1.1799  1.9600
  166SAPE   H9Y18758   0.988   1.260   7.252  1.7555 -1.5508  0.3578
  166SAPE  C31018759   1.052   1.085   7.360 -0.1378 -0.1637 -0.1954
  166SAPE  H10X18760   1.121   1.066   7.275 -1.2095  0.7416 -1.3051
  166SAPE  H10Y18761   1.007   0.991   7.399  1.1172 -0.2631  1.0801
  166SAPE  C31118762   1.123   1.169   7.466 -0.0460  0.5853 -0.4396
  166SAPE  H11X18763   1.134   1.277   7.444  0.9299  1.0047  1.7892
  166SAPE  H11Y18764   1.223   1.122   7.480 -0.7836 -1.0157 -0.3321
  166SAPE  C31218765   1.040   1.143   7.602  0.2615  0.0313  0.7345
  166SAPE  H12X18766   1.029   1.033   7.613 -2.7151 -0.2119 -2.6978
  166SAPE  H12Y18767   0.938   1.183   7.583 -0.0356 -0.9924  0.0647
  166SAPE  C31318768   1.113   1.213   7.719  0.1114 -0.4174 -0.1773
  166SAPE  H13X18769   1.114   1.321   7.693 -1.3828 -0.1750  0.6326
  166SAPE  H13Y18770   1.215   1.175   7.741  0.7660  1.9400  1.2703
  166SAPE  C31418771   1.036   1.185   7.853  0.8045  0.1518  0.5076
  166SAPE  H14X18772   1.060   1.078   7.868 -1.3885 -0.2992  1.0832
  166SAPE  H14Y18773   0.926   1.194   7.839  0.5144 -1.8437  1.1651
  166SAPE  C31518774   1.067   1.279   7.971  0.3536 -0.3294 -0.2368
  166SAPE  H15X18775   1.060   1.386   7.942  0.8058 -0.2910 -0.2135
  166SAPE  H15Y18776   1.173   1.253   7.993  0.5623  2.2750  2.4398
  166SAPE  C31618777   0.985   1.257   8.093 -0.0386 -0.1460  0.2097
  166SAPE  H16X18778   0.880   1.293   8.080 -0.2232 -0.0118  1.8141
  166SAPE  H16Y18779   1.022   1.316   8.180 -2.3394  0.2400  0.9954
  166SAPE  C31718780   0.969   1.113   8.141  0.8126 -0.1824  0.3075
  166SAPE  H17X18781   1.064   1.058   8.124  1.6430  1.1525  0.4244
  166SAPE  H17Y18782   0.891   1.062   8.080  2.4920  0.4142 -2.5315
  166SAPE  C31818783   0.937   1.109   8.285  0.2625  0.5680  0.2335
  166SAPE  H18X18784   1.010   1.164   8.348  1.4159  0.2358 -0.7637
  166SAPE  H18Y18785   0.945   1.004   8.321 -0.1478  0.5300  0.2151
  166SAPE  H18Z18786   0.833   1.141   8.304 -0.2422 -0.2259 -1.0473
  167SAPE     N18787   1.551   5.915   6.416  0.3716  0.7195  0.0614
  167SAPE   HN118788   1.631   5.957   6.364  1.5278 -2.0260 -0.5907
  167SAPE   HN218789   1.460   5.929   6.368 -1.5861  0.2113  3.3529
  167SAPE   HN318790   1.558   5.950   6.513 -1.5113 -0.7816  0.7899
  167SAPE   C1218791   1.592   5.770   6.403 -0.2970 -0.2089  0.5765
  167SAPE  H12A18792   1.539   5.721   6.488  1.2908  2.1191  3.0982
  167SAPE  H12B18793   1.703   5.764   6.408 -0.2051  0.9986  0.3884
  167SAPE   C1118794   1.547   5.709   6.272 -0.2818 -0.1166 -0.5479
  167SAPE  H11A18795   1.439   5.682   6.278 -0.3495  0.4162  1.2736
  167SAPE  H11B18796   1.599   5.611   6.269  1.1274  0.6004 -0.3674
  167SAPE     P18797   1.476   5.864   6.072 -0.1137  0.2034  0.0443
  167SAPE   O1318798   1.553   5.961   5.992 -0.4576  0.2279  0.1212
  167SAPE   O1418799   1.393   5.775   5.995 -0.6863 -0.0664 -0.4813
  167SAPE   O1218800   1.583   5.784   6.156 -0.3475  0.9788 -0.0476
  167SAPE   O1118801   1.390   5.925   6.190  0.2365  0.0756  0.3340
  167SAPE    C118802   1.256   5.884   6.226 -0.5011  0.9283  0.0828
  167SAPE    HA18803   1.200   5.835   6.143  0.0385 -1.0396  0.8363
  167SAPE    HB18804   1.273   5.816   6.312  1.2163  1.8532  0.5249
  167SAPE    C218805   1.164   6.010   6.281  0.0831 -0.3379  0.4704
  167SAPE    HS18806   1.144   6.071   6.190 -0.6295 -1.0404  0.1465
  167SAPE   O2118807   1.229   6.093   6.379  0.0338  0.0245 -0.8726
  167SAPE   C2118808   1.189   6.227   6.373  0.6855 -0.1095 -0.3358
  167SAPE   O2218809   1.101   6.269   6.303  0.6104 -0.0782  0.3871
  167SAPE   C2218810   1.265   6.305   6.478 -0.3561  0.4259  0.1013
  167SAPE   H2R18811   1.307   6.231   6.550  0.1344 -0.8334 -1.4345
  167SAPE   H2S18812   1.356   6.341   6.426  1.8354 -3.9883  0.4234
  167SAPE    C318813   1.027   5.954   6.338  0.3994 -0.2578 -0.3121
  167SAPE    HX18814   1.036   5.844   6.354  0.0434  0.0103  1.9551
  167SAPE    HY18815   0.947   5.974   6.263 -0.0788 -1.5337 -0.1762
  167SAPE   O3118816   0.979   6.026   6.455  0.2822 -0.6504 -0.0562
  167SAPE   C3118817   1.036   5.979   6.571  0.9432  0.2564  0.0329
  167SAPE   O3218818   1.110   5.884   6.577  0.5341  0.2714  0.2131
  167SAPE   C3218819   0.965   6.052   6.687 -0.3727  0.4846 -0.2059
  167SAPE   H2X18820   0.857   6.031   6.670 -0.1176 -0.1021 -1.1927
  167SAPE   H2Y18821   0.998   6.158   6.683  0.5425  0.2781  1.2519
  167SAPE   C2318822   1.176   6.409   6.552 -0.3259  0.1719 -0.6387
  167SAPE   H3R18823   1.093   6.356   6.603  1.9746 -2.7344  0.4507
  167SAPE   H3S18824   1.144   6.483   6.476 -0.8235 -2.1543 -2.8333
  167SAPE   C2418825   1.241   6.483   6.674 -0.7204  0.0825 -0.2219
  167SAPE   H4R18826   1.348   6.504   6.652 -0.0301 -1.5201  1.2914
  167SAPE   H4S18827   1.253   6.410   6.757 -1.3438 -0.5576 -0.6842
  167SAPE   C2518828   1.161   6.604   6.717  0.0180  0.0164 -0.5152
  167SAPE   H5R18829   1.136   6.669   6.632  2.7356  0.4606 -1.0440
  167SAPE   C2618830   1.122   6.621   6.840  0.0919 -0.7399  0.0955
  167SAPE   H6R18831   1.061   6.711   6.858  0.5896 -0.1113 -1.2044
  167SAPE   C2718832   1.145   6.531   6.960 -0.3203  0.0736 -0.1340
  167SAPE   H7R18833   1.161   6.595   7.049  3.6128 -1.8382  0.7358
  167SAPE   H7S18834   1.240   6.475   6.958  0.9976  2.0212  2.5591
  167SAPE   C2818835   1.028   6.436   6.979 -0.3501  0.5329 -0.3023
  167SAPE   H8R18836   0.977   6.430   6.882  1.0670 -1.9892 -0.9587
  167SAPE   C2918837   0.984   6.379   7.091 -0.6962 -0.6554 -0.2452
  167SAPE   H9R18838   0.907   6.301   7.080 -2.4110  0.7939  0.8769
  167SAPE  C21018839   1.052   6.394   7.232 -0.1304 -0.5684  0.2960
  167SAPE  H10R18840   1.156   6.431   7.240 -0.0974 -0.9560  1.9483
  167SAPE  H10S18841   1.055   6.292   7.275  1.4135 -0.6976 -0.0760
  167SAPE  C21118842   0.959   6.465   7.332  0.6491  0.0803  0.7054
  167SAPE  H11R18843   0.853   6.443   7.314  1.1999 -0.9861 -1.4649
  167SAPE  C21218844   0.987   6.531   7.442 -0.1311  0.4024  0.0845
  167SAPE  H12R18845   0.900   6.568   7.498 -0.8786 -2.3725  0.8940
  167SAPE  C21318846   1.126   6.533   7.502  0.1926  0.2297 -0.8647
  167SAPE  H13R18847   1.138   6.631   7.555 -0.2431  1.3943 -2.8112
  167SAPE  H13S18848   1.207   6.526   7.428  2.4747  0.6731  1.4402
  167SAPE  C21418849   1.146   6.417   7.598  0.4782 -0.4254  0.5197
  167SAPE  H14R18850   1.172   6.328   7.540 -1.2048 -0.9758  0.5542
  167SAPE  C21518851   1.108   6.401   7.725  0.6759 -0.4671 -0.2215
  167SAPE  H15R18852   1.126   6.307   7.779  0.3670  1.3405  3.2959
  167SAPE  C21618853   1.055   6.514   7.810  0.2643  0.0581 -0.1016
  167SAPE  H16R18854   1.020   6.601   7.750 -1.2420 -0.7235 -0.3804
  167SAPE  H16S18855   1.140   6.551   7.872 -0.2357  2.0674 -0.5295
  167SAPE  C21718856   0.945   6.488   7.912  0.1397 -0.1460 -0.3791
  167SAPE  H17R18857   0.848   6.459   7.865 -0.4078 -2.1624  1.7852
  167SAPE  H17S18858   0.912   6.580   7.964 -1.5365 -0.0999 -1.4557
  167SAPE  C21818859   0.990   6.403   8.028 -0.5366  0.6740  0.9797
  167SAPE  H18R18860   1.016   6.302   7.988  0.7006  1.5971 -0.6418
  167SAPE  H18S18861   0.898   6.375   8.084 -1.4666  2.7515  0.5863
  167SAPE  C21918862   1.094   6.472   8.114  0.3760 -0.5805  0.2790
  167SAPE  H19R18863   1.060   6.575   8.138  0.7824 -0.7058  1.4496
  167SAPE  H19S18864   1.192   6.486   8.064  0.1411  1.6358  0.3374
  167SAPE  C22018865   1.118   6.406   8.254 -0.5763  0.1399  0.2751
  167SAPE  H20R18866   1.023   6.351   8.273 -1.0947  0.6296 -0.8181
  167SAPE  H20S18867   1.149   6.479   8.331 -2.0688  2.0093 -0.8127
  167SAPE  H20T18868   1.200   6.331   8.242  0.8651  1.9373 -1.8781
  167SAPE   C3318869   1.007   5.976   6.820 -0.4827 -0.5264  0.2224
  167SAPE   H3X18870   1.117   5.988   6.818 -0.5995  0.5523 -0.3370
  167SAPE   H3Y18871   0.988   5.868   6.805  1.4009 -1.2461  2.4174
  167SAPE   C3418872   0.930   6.024   6.946 -1.0507  0.5421 -0.1423
  167SAPE   H4X18873   0.823   6.046   6.925 -1.3974 -0.5910  0.3756
  167SAPE   H4Y18874   0.976   6.119   6.979  0.0748  0.5519 -1.6235
  167SAPE   C3518875   0.947   5.943   7.075 -0.2713  0.0835 -0.0628
  167SAPE   H5X18876   1.055   5.956   7.098 -0.1068 -1.4991  0.2162
  167SAPE   H5Y18877   0.927   5.835   7.057 -0.3215 -0.0103  0.5231
  167SAPE   C3618878   0.854   6.001   7.183  0.3315 -0.4308 -0.9541
  167SAPE   H6X18879   0.747   5.982   7.160  0.2067 -0.7076 -0.1893
  167SAPE   H6Y18880   0.862   6.111   7.182 -1.2738 -0.2980 -1.7346
  167SAPE   C3718881   0.901   5.948   7.318 -0.5824  0.3052  0.2832
  167SAPE   H7X18882   1.010   5.955   7.338 -0.7172 -2.4296  2.6323
  167SAPE   H7Y18883   0.892   5.837   7.317  2.4049 -0.0163 -0.0183
  167SAPE   C3818884   0.830   5.999   7.448  0.0290 -0.9166 -0.5147
  167SAPE   H8X18885   0.842   5.920   7.525 -0.9331 -1.6547 -1.0990
  167SAPE   H8Y18886   0.726   6.009   7.411  0.4971 -0.9062 -1.9202
  167SAPE   C3918887   0.894   6.120   7.500  0.1230  0.1310 -0.4801
  167SAPE   H9X18888   0.912   6.195   7.420 -3.1201  1.5115 -0.0740
  167SAPE   H9Y18889   0.986   6.080   7.547  0.3000  0.4661 -0.5365
  167SAPE  C31018890   0.814   6.178   7.612  0.5296  0.2276  0.0328
  167SAPE  H10X18891   0.716   6.202   7.565  1.2054  0.2211 -1.4481
  167SAPE  H10Y18892   0.862   6.275   7.637 -1.6167  2.5371 -3.7287
  167SAPE  C31118893   0.803   6.092   7.731 -0.2448 -0.1660  0.1471
  167SAPE  H11X18894   0.899   6.069   7.782 -2.1739 -1.6822  3.4420
  167SAPE  H11Y18895   0.769   5.988   7.711  1.6751 -1.1477  1.5254
  167SAPE  C31218896   0.709   6.154   7.832  0.1927 -0.3501 -0.1788
  167SAPE  H12X18897   0.612   6.171   7.780  1.4234  2.9548 -1.6622
  167SAPE  H12Y18898   0.748   6.251   7.869 -0.8502 -0.3515  1.0234
  167SAPE  C31318899   0.680   6.068   7.955  0.1629 -0.3138 -0.0982
  167SAPE  H13X18900   0.773   6.023   7.997  0.0154 -1.2026 -0.6948
  167SAPE  H13Y18901   0.619   5.985   7.914 -0.2677 -0.6529  1.1932
  167SAPE  C31418902   0.587   6.149   8.048  0.0400 -0.1059  0.5291
  167SAPE  H14X18903   0.498   6.173   7.986 -0.6940 -2.2586  0.6683
  167SAPE  H14Y18904   0.638   6.243   8.079  0.7381 -0.6820  1.1632
  167SAPE  C31518905   0.529   6.071   8.165  0.4836  0.5753 -0.2826
  167SAPE  H15X18906   0.460   5.996   8.120 -1.3595  2.3743 -0.6015
  167SAPE  H15Y18907   0.455   6.131   8.222 -0.8313 -1.1298 -0.0921
  167SAPE  C31618908   0.623   6.003   8.263 -0.8478 -0.3167  0.2101
  167SAPE  H16X18909   0.693   6.076   8.308 -0.2484 -1.0185  0.4455
  167SAPE  H16Y18910   0.686   5.922   8.220  1.1615  2.0908 -1.6210
  167SAPE  C31718911   0.555   5.941   8.384 -0.0662  0.1867 -0.2306
  167SAPE  H17X18912   0.473   5.879   8.343  1.6689 -1.5615 -1.2796
  167SAPE  H17Y18913   0.508   6.027   8.435 -1.0641 -0.2609 -0.3820
  167SAPE  C31818914   0.645   5.851   8.475  0.5332  0.7999  0.5477
  167SAPE  H18X18915   0.585   5.801   8.554  0.9114 -0.0982  0.2842
  167SAPE  H18Y18916   0.720   5.910   8.532 -0.8358  1.7635  1.4147
  167SAPE  H18Z18917   0.689   5.767   8.416 -1.9964  0.3545 -0.8595
  168SAPE     N18918   2.333   0.068   6.434 -0.2021 -0.4818  0.3191
  168SAPE   HN118919   2.370  -0.017   6.482  2.3275  0.1020 -0.4393
  168SAPE   HN218920   2.329   0.151   6.497  0.3039 -2.2441  2.8201
  168SAPE   HN318921   2.242   0.051   6.387  0.1137  1.7898 -1.2727
  168SAPE   C1218922   2.423   0.122   6.332 -0.7369  0.1885 -0.6057
  168SAPE  H12A18923   2.369   0.130   6.235 -0.5205 -0.2252 -0.7612
  168SAPE  H12B18924   2.512   0.056   6.327 -1.6531 -1.5474  2.8912
  168SAPE   C1118925   2.470   0.264   6.375  0.0686  0.2445 -0.2613
  168SAPE  H11A18926   2.534   0.307   6.295  1.7748 -0.2721  0.7592
  168SAPE  H11B18927   2.540   0.253   6.461 -1.3919 -0.7031  0.8385
  168SAPE     P18928   2.305   0.390   6.534  0.1743 -0.1419  0.2651
  168SAPE   O1318929   2.198   0.491   6.517  0.1387  0.4551  0.6037
  168SAPE   O1418930   2.277   0.266   6.607  0.2411  0.6528  0.3558
  168SAPE   O1218931   2.367   0.359   6.398 -0.6480 -0.3909  0.2911
  168SAPE   O1118932   2.432   0.456   6.603  0.6287 -0.2200 -0.1020
  168SAPE    C118933   2.499   0.563   6.543  0.3378 -0.0157 -0.2396
  168SAPE    HA18934   2.574   0.526   6.470  0.1737 -1.6006  0.3560
  168SAPE    HB18935   2.438   0.633   6.481  3.5938  2.0865 -1.3252
  168SAPE    C218936   2.569   0.653   6.647  0.8070 -0.4434  0.2128
  168SAPE    HS18937   2.620   0.730   6.584 -1.6393  2.1240  1.1547
  168SAPE   O2118938   2.656   0.586   6.734 -0.2704 -0.2184  0.3024
  168SAPE   C2118939   2.755   0.522   6.673 -0.0154  0.3853  0.1539
  168SAPE   O2218940   2.783   0.531   6.556 -0.3604  0.2989 -0.4623
  168SAPE   C2218941   2.823   0.427   6.776 -0.5809 -0.1898 -0.1318
  168SAPE   H2R18942   2.821   0.466   6.881  1.3654 -0.9410  0.2265
  168SAPE   H2S18943   2.774   0.329   6.764 -1.0626 -0.1213  1.1130
  168SAPE    C318944   2.462   0.729   6.736  0.2239 -0.5070  0.9357
  168SAPE    HX18945   2.402   0.651   6.787  0.4861 -0.3969  1.4209
  168SAPE    HY18946   2.392   0.794   6.679  0.8414 -1.7417 -1.3660
  168SAPE   O3118947   2.526   0.806   6.843  0.4087 -0.2044 -0.5663
  168SAPE   C3118948   2.570   0.929   6.813  0.4137 -0.0528 -0.4277
  168SAPE   O3218949   2.600   0.969   6.701 -0.5558  0.2003 -0.5016
  168SAPE   C3218950   2.575   1.005   6.948 -0.5910  1.0749 -0.6302
  168SAPE   H2X18951   2.611   0.939   7.030 -0.2798  1.3117 -0.5747
  168SAPE   H2Y18952   2.471   1.038   6.973 -1.4068 -0.1314 -2.2545
  168SAPE   C2318953   2.971   0.407   6.735  0.1007  0.2197  0.0891
  168SAPE   H3R18954   3.031   0.500   6.741  0.6978 -0.2131  1.0268
  168SAPE   H3S18955   2.986   0.375   6.630 -0.0753  3.6301 -1.0830
  168SAPE   C2418956   3.043   0.320   6.842 -0.2777  0.1157  0.2467
  168SAPE   H4R18957   3.047   0.372   6.939  0.1082 -0.0607  0.3277
  168SAPE   H4S18958   3.150   0.315   6.812  0.0751 -0.3008  1.5023
  168SAPE   C2518959   2.990   0.182   6.853  0.0016 -0.5490 -1.0847
  168SAPE   H5R18960   2.975   0.125   6.760 -0.8149 -0.8612 -0.7745
  168SAPE   C2618961   2.952   0.118   6.965 -0.1908  0.8692 -0.3863
  168SAPE   H6R18962   2.915   0.014   6.959 -0.0068  0.6718  1.4454
  168SAPE   C2718963   2.955   0.170   7.104  0.2662 -0.3550  0.1781
  168SAPE   H7R18964   3.031   0.250   7.122  0.6690 -1.1473  2.2920
  168SAPE   H7S18965   2.985   0.086   7.169  2.5038  1.8570  2.2394
  168SAPE   C2818966   2.826   0.240   7.152 -0.3105  0.1725 -0.0299
  168SAPE   H8R18967   2.783   0.311   7.080 -0.7439 -0.7739 -0.7355
  168SAPE   C2918968   2.757   0.227   7.270  0.0503  0.9038 -0.2009
  168SAPE   H9R18969   2.670   0.293   7.279 -0.7482  0.1628 -1.8938
  168SAPE  C21018970   2.802   0.141   7.387 -0.0131 -0.5023 -0.3513
  168SAPE  H10R18971   2.789   0.199   7.480 -0.4655 -1.6012  0.2925
  168SAPE  H10S18972   2.906   0.109   7.368  0.4351  1.3588 -1.2412
  168SAPE  C21118973   2.719   0.016   7.396  1.3871 -0.3870  0.3233
  168SAPE  H11R18974   2.657  -0.023   7.313  0.1600  0.0643  0.9977
  168SAPE  C21218975   2.717  -0.059   7.506 -0.2058 -0.0090 -0.1225
  168SAPE  H12R18976   2.649  -0.144   7.518  1.0746 -0.9957  0.3699
  168SAPE  C21318977   2.787  -0.016   7.634 -0.1934  0.3519  0.0294
  168SAPE  H13R18978   2.862   0.065   7.622 -0.8925  1.4004  2.1340
  168SAPE  H13S18979   2.853  -0.100   7.665  0.5205  1.1394  0.7041
  168SAPE  C21418980   2.696   0.016   7.750  0.0086  0.0617  0.3800
  168SAPE  H14R18981   2.599   0.061   7.721 -2.2877 -3.0492  2.5280
  168SAPE  C21518982   2.719   0.011   7.882 -0.1241  0.0198 -0.2260
  168SAPE  H15R18983   2.640   0.031   7.956  0.9238  1.7536  0.4801
  168SAPE  C21618984   2.852  -0.031   7.937 -0.3833  0.5162  0.2087
  168SAPE  H16R18985   2.919   0.056   7.956 -0.7097  0.8881 -0.3138
  168SAPE  H16S18986   2.898  -0.113   7.879  0.8753  0.7394  0.8465
  168SAPE  C21718987   2.839  -0.098   8.074  0.3937 -0.3124  0.1961
  168SAPE  H17R18988   2.941  -0.134   8.099  1.3277  2.1598  0.2349
  168SAPE  H17S18989   2.756  -0.171   8.080 -0.2234  0.4871  3.1261
  168SAPE  C21818990   2.814   0.003   8.189  0.0282 -0.1874  0.4471
  168SAPE  H18R18991   2.711   0.045   8.186  0.9584  2.2408  0.1096
  168SAPE  H18S18992   2.872   0.096   8.170 -3.3711  3.0472  3.8775
  168SAPE  C21918993   2.842  -0.054   8.325  0.2119  0.1142 -0.0833
  168SAPE  H19R18994   2.950  -0.067   8.349  0.4949  1.2060 -0.6948
  168SAPE  H19S18995   2.817  -0.160   8.347  2.2711 -0.0991  1.5588
  168SAPE  C22018996   2.786   0.026   8.440  0.6637  0.0069  0.1382
  168SAPE  H20R18997   2.817  -0.012   8.539  0.6586  0.2203  0.2214
  168SAPE  H20S18998   2.675   0.021   8.439  0.7121 -1.4786  0.3882
  168SAPE  H20T18999   2.814   0.133   8.427 -5.0850  1.5446 -3.3182
  168SAPE   C3319000   2.657   1.140   6.937  0.8805  0.0268 -0.3571
  168SAPE   H3X19001   2.629   1.200   6.848  0.4741 -0.4959 -0.5877
  168SAPE   H3Y19002   2.765   1.117   6.947  1.2072  1.4565 -0.3351
  168SAPE   C3419003   2.649   1.231   7.062 -0.0617  0.2228  0.4863
  168SAPE   H4X19004   2.548   1.262   7.095 -0.0925  1.6160 -0.8011
  168SAPE   H4Y19005   2.705   1.322   7.030  0.4278 -0.7903 -1.7230
  168SAPE   C3519006   2.710   1.188   7.195  0.2951  0.0854  0.9401
  168SAPE   H5X19007   2.798   1.123   7.175  2.8134  3.0090  1.8529
  168SAPE   H5Y19008   2.633   1.139   7.259  0.8761 -1.6944  0.3576
  168SAPE   C3619009   2.772   1.301   7.280 -1.0844 -0.0143  0.4765
  168SAPE   H6X19010   2.860   1.351   7.233  0.0928 -1.0663  1.4843
  168SAPE   H6Y19011   2.818   1.247   7.365 -0.3130  0.0123  0.0858
  168SAPE   C3719012   2.669   1.409   7.335 -0.1613  0.1985 -0.0434
  168SAPE   H7X19013   2.617   1.449   7.246 -1.0086  0.4151  0.5288
  168SAPE   H7Y19014   2.731   1.488   7.384 -0.0640  0.8372 -1.1775
  168SAPE   C3819015   2.562   1.358   7.440 -0.1671 -0.7081  1.1402
  168SAPE   H8X19016   2.618   1.291   7.509  0.6110 -0.3695  0.8535
  168SAPE   H8Y19017   2.480   1.298   7.395 -0.0442 -1.7501  2.2454
  168SAPE   C3919018   2.506   1.479   7.524 -0.4867 -0.0939  0.4281
  168SAPE   H9X19019   2.451   1.540   7.449  1.4293  1.3087  0.0879
  168SAPE   H9Y19020   2.587   1.548   7.554 -0.8395  0.8306 -0.6657
  168SAPE  C31019021   2.427   1.440   7.652  0.6321  0.3131  0.0992
  168SAPE  H10X19022   2.469   1.351   7.703  1.9190  0.2164 -1.0693
  168SAPE  H10Y19023   2.318   1.442   7.634  0.7409  3.7496 -0.8500
  168SAPE  C31119024   2.436   1.553   7.759  1.0043  0.0794  0.2673
  168SAPE  H11X19025   2.393   1.646   7.717  0.8262  0.6620  1.6975
  168SAPE  H11Y19026   2.542   1.568   7.790  0.3804  2.8484  1.3493
  168SAPE  C31219027   2.347   1.523   7.883  0.1798 -0.6824 -0.9200
  168SAPE  H12X19028   2.363   1.421   7.926 -1.1933 -1.0071 -1.1418
  168SAPE  H12Y19029   2.243   1.520   7.844  0.7326 -3.2637 -2.4075
  168SAPE  C31319030   2.372   1.627   7.998 -1.0055  0.5360  0.1538
  168SAPE  H13X19031   2.343   1.726   7.955  1.3111  2.1884  2.1070
  168SAPE  H13Y19032   2.480   1.642   8.018 -0.9413 -1.1050  1.1104
  168SAPE  C31419033   2.294   1.591   8.120 -0.1972  0.6689 -0.2645
  168SAPE  H14X19034   2.335   1.504   8.176 -0.0236 -0.0284 -1.4365
  168SAPE  H14Y19035   2.192   1.562   8.087 -0.4851 -1.0914  1.9068
  168SAPE  C31519036   2.262   1.715   8.214  0.5203  0.5969 -0.1639
  168SAPE  H15X19037   2.165   1.700   8.266  0.1914  0.4538 -0.8040
  168SAPE  H15Y19038   2.244   1.803   8.149  0.8792  2.3268  1.9972
  168SAPE  C31619039   2.377   1.753   8.305  0.4224  0.5575  0.2813
  168SAPE  H16X19040   2.470   1.776   8.249  0.0348  0.5609 -0.3780
  168SAPE  H16Y19041   2.403   1.680   8.384  0.7901 -0.4917 -0.7713
  168SAPE  C31719042   2.333   1.889   8.362 -0.7438 -0.3330 -0.7517
  168SAPE  H17X19043   2.248   1.873   8.432  1.4496  0.3641  2.2810
  168SAPE  H17Y19044   2.308   1.960   8.280  1.0412 -0.7813 -1.7186
  168SAPE  C31819045   2.448   1.956   8.447  0.5793 -0.1757 -0.2488
  168SAPE  H18X19046   2.476   1.881   8.524 -0.3378 -1.2826 -0.9522
  168SAPE  H18Y19047   2.396   2.044   8.490  1.8852  0.4205  0.1834
  168SAPE  H18Z19048   2.529   1.989   8.379  0.2176  2.6528  0.5603
  169SAPE     N19049   3.576   2.479   6.447 -0.9260 -0.3952  0.9935
  169SAPE   HN119050   3.527   2.479   6.355 -1.6489 -0.8710  1.3678
  169SAPE   HN219051   3.657   2.545   6.443 -0.3243 -1.1883 -1.3475
  169SAPE   HN319052   3.597   2.380   6.467  0.9000 -0.5754 -1.4118
  169SAPE   C1219053   3.478   2.523   6.554 -0.2451  0.4133  0.2203
  169SAPE  H12A19054   3.532   2.516   6.651  3.2045  0.2645 -1.5385
  169SAPE  H12B19055   3.400   2.444   6.551  2.3323 -2.3785  0.5489
  169SAPE   C1119056   3.426   2.657   6.523  0.3223  0.2924 -0.0022
  169SAPE  H11A19057   3.502   2.732   6.553 -1.3825  2.5578 -1.0702
  169SAPE  H11B19058   3.341   2.666   6.594  2.4357  0.0235  2.7437
  169SAPE     P19059   3.333   2.812   6.340  0.2336 -0.4472 -0.1594
  169SAPE   O1319060   3.376   2.820   6.201  0.2890  0.3574 -0.5357
  169SAPE   O1419061   3.185   2.817   6.362  0.2779 -0.3478 -0.3956
  169SAPE   O1219062   3.381   2.676   6.391 -0.4524  0.4958  0.6227
  169SAPE   O1119063   3.407   2.921   6.428  0.1482  0.2576 -0.2104
  169SAPE    C119064   3.332   3.041   6.456 -0.2653 -0.1892 -0.0173
  169SAPE    HA19065   3.353   3.120   6.381  2.1772  0.4907  1.2504
  169SAPE    HB19066   3.224   3.021   6.469  0.0470 -1.0956  1.4538
  169SAPE    C219067   3.364   3.100   6.592 -0.0432 -0.5623  0.0690
  169SAPE    HS19068   3.471   3.128   6.603 -0.2403 -0.7564  5.5878
  169SAPE   O2119069   3.323   3.009   6.697 -0.0312  0.2703 -0.5502
  169SAPE   C2119070   3.403   2.997   6.803  0.0066 -0.2012 -0.0348
  169SAPE   O2219071   3.509   3.053   6.819  0.1062 -0.0102 -0.0350
  169SAPE   C2219072   3.338   2.907   6.908  0.6679  0.8543  1.0326
  169SAPE   H2R19073   3.235   2.878   6.878  1.1966  0.2432 -0.2892
  169SAPE   H2S19074   3.387   2.807   6.911 -1.9204 -0.7239 -2.6095
  169SAPE    C319075   3.276   3.230   6.612 -0.2394  0.3306 -0.2628
  169SAPE    HX19076   3.307   3.298   6.531  2.3049 -1.7301 -1.1311
  169SAPE    HY19077   3.304   3.290   6.701 -1.0487  1.6135 -0.8406
  169SAPE   O3119078   3.136   3.217   6.598  0.6478 -0.6778  0.5364
  169SAPE   C3119079   3.072   3.185   6.709  0.5535  0.2860 -0.3380
  169SAPE   O3219080   3.118   3.188   6.820  0.2897 -0.1337  0.2301
  169SAPE   C3219081   2.934   3.162   6.661 -0.0000  0.3362 -0.6861
  169SAPE   H2X19082   2.952   3.094   6.575  0.5738  0.3751 -0.5974
  169SAPE   H2Y19083   2.899   3.262   6.625  1.7935  1.3907  0.3693
  169SAPE   C2319084   3.318   2.966   7.053 -0.9455  0.1950  0.4896
  169SAPE   H3R19085   3.271   3.066   7.043 -1.5964 -0.1964 -0.5282
  169SAPE   H3S19086   3.422   2.981   7.091  0.6478 -2.4093 -2.3864
  169SAPE   C2419087   3.246   2.876   7.147 -0.0062 -0.0414  0.0644
  169SAPE   H4R19088   3.142   2.857   7.112 -0.2898 -2.6273  2.0063
  169SAPE   H4S19089   3.227   2.931   7.242  0.3717 -0.4991  0.4085
  169SAPE   C2519090   3.309   2.741   7.164 -0.2198  0.5156 -0.4425
  169SAPE   H5R19091   3.308   2.679   7.073  1.8642  1.1210 -0.9249
  169SAPE   C2619092   3.363   2.694   7.281  0.4749 -0.2962  0.2808
  169SAPE   H6R19093   3.409   2.595   7.291  2.0398  0.6286  3.8280
  169SAPE   C2719094   3.366   2.774   7.405 -0.4573  0.0580 -0.4092
  169SAPE   H7R19095   3.390   2.880   7.382 -0.6491 -0.0585 -1.1441
  169SAPE   H7S19096   3.455   2.750   7.467 -0.9093 -0.5905  0.0077
  169SAPE   C2819097   3.226   2.763   7.475 -0.1952 -0.3203  0.4053
  169SAPE   H8R19098   3.143   2.743   7.406 -0.2243  1.3860 -0.0961
  169SAPE   C2919099   3.207   2.772   7.609  0.7080  0.5156 -0.3716
  169SAPE   H9R19100   3.112   2.739   7.652  0.8072 -0.8006 -1.1021
  169SAPE  C21019101   3.311   2.798   7.714  0.1564 -0.8474 -0.2309
  169SAPE  H10R19102   3.270   2.873   7.784  0.3425 -1.0465  0.0936
  169SAPE  H10S19103   3.406   2.840   7.674  2.2669 -3.0569  2.1252
  169SAPE  C21119104   3.352   2.674   7.787 -0.0391 -0.2120 -0.4972
  169SAPE  H11R19105   3.351   2.584   7.724 -0.7179 -0.8025  0.3322
  169SAPE  C21219106   3.393   2.652   7.916  0.3214 -0.4590 -0.0144
  169SAPE  H12R19107   3.401   2.549   7.954  1.7089 -1.0048 -1.7026
  169SAPE  C21319108   3.411   2.761   8.019  0.2119 -0.5298 -0.2050
  169SAPE  H13R19109   3.341   2.848   8.018  2.5031  1.5044  1.8494
  169SAPE  H13S19110   3.510   2.804   7.995  0.4032 -1.6781 -1.5849
  169SAPE  C21419111   3.403   2.704   8.156 -0.2969  0.4290 -0.6431
  169SAPE  H14R19112   3.490   2.643   8.185 -0.3776 -0.7508 -2.7184
  169SAPE  C21519113   3.293   2.706   8.234  0.4363 -0.7767  0.5260
  169SAPE  H15R19114   3.306   2.690   8.342 -1.1006 -0.9822  0.7107
  169SAPE  C21619115   3.155   2.765   8.188 -0.1102 -0.1320  0.1469
  169SAPE  H16R19116   3.134   2.742   8.082 -0.4797 -1.5426  0.4990
  169SAPE  H16S19117   3.164   2.875   8.187 -1.7217  0.0336 -1.5268
  169SAPE  C21719118   3.035   2.689   8.264 -0.3579  0.2168  1.0069
  169SAPE  H17R19119   2.939   2.741   8.245 -0.3433  0.3110  1.1831
  169SAPE  H17S19120   3.065   2.696   8.371 -2.8794 -1.2806  1.9001
  169SAPE  C21819121   3.017   2.543   8.213  0.5180 -0.5378  0.5155
  169SAPE  H18R19122   3.109   2.481   8.215  0.9241 -0.0098 -0.5418
  169SAPE  H18S19123   2.980   2.557   8.109  0.0103 -2.2150  0.4337
  169SAPE  C21919124   2.915   2.465   8.291 -0.0082  0.0957  0.4850
  169SAPE  H19R19125   2.818   2.519   8.300 -0.3777 -0.3549 -0.6969
  169SAPE  H19S19126   2.947   2.454   8.397 -1.7870  1.6987  1.2499
  169SAPE  C22019127   2.883   2.330   8.226 -0.0748  0.1351  0.5759
  169SAPE  H20R19128   2.864   2.337   8.117  0.3682 -1.2406  0.4021
  169SAPE  H20S19129   2.795   2.274   8.266 -0.7110 -0.2587 -1.2703
  169SAPE  H20T19130   2.966   2.259   8.238 -2.7095 -2.8323  2.9713
  169SAPE   C3319131   2.846   3.090   6.764 -0.1561  0.4586 -0.6857
  169SAPE   H3X19132   2.850   3.152   6.857 -1.1113 -3.0352  1.8874
  169SAPE   H3Y19133   2.881   2.986   6.779  2.2123  1.2610 -0.2232
  169SAPE   C3419134   2.703   3.095   6.731  0.3768  0.2940 -0.2075
  169SAPE   H4X19135   2.698   3.060   6.625 -1.5230 -1.2411  0.3270
  169SAPE   H4Y19136   2.668   3.200   6.727  0.5411  0.4123  1.0820
  169SAPE   C3519137   2.610   3.006   6.807 -0.1002 -0.0707  0.3864
  169SAPE   H5X19138   2.506   2.997   6.769  0.2514  0.6962 -0.8009
  169SAPE   H5Y19139   2.605   3.026   6.916 -1.6160  1.5936  0.0555
  169SAPE   C3619140   2.642   2.847   6.797 -0.5454 -0.4431 -0.5891
  169SAPE   H6X19141   2.752   2.832   6.812 -0.6177 -2.3219 -1.5063
  169SAPE   H6Y19142   2.606   2.811   6.698 -2.4911 -2.4899  0.7761
  169SAPE   C3719143   2.557   2.763   6.896 -0.4762  0.2243  0.3081
  169SAPE   H7X19144   2.568   2.659   6.858  0.1297 -0.7374  2.8978
  169SAPE   H7Y19145   2.449   2.787   6.881 -0.3586  0.4790 -0.1498
  169SAPE   C3819146   2.607   2.775   7.038  0.0903 -0.2356  0.1086
  169SAPE   H8X19147   2.609   2.882   7.067 -2.3020 -0.1433  0.1119
  169SAPE   H8Y19148   2.708   2.730   7.030  1.0012  1.6443  0.4133
  169SAPE   C3919149   2.518   2.712   7.142 -0.1018 -0.1173 -0.3278
  169SAPE   H9X19150   2.514   2.603   7.120 -0.0960  0.3575 -2.9640
  169SAPE   H9Y19151   2.414   2.751   7.131 -0.6826 -1.4157  0.3149
  169SAPE  C31019152   2.575   2.721   7.285 -0.1692  0.5658 -0.0770
  169SAPE  H10X19153   2.569   2.827   7.317  0.3302  0.6915 -0.3947
  169SAPE  H10Y19154   2.681   2.689   7.280 -0.4207 -0.4603  0.7173
  169SAPE  C31119155   2.503   2.618   7.373  0.3565  0.3127 -0.3081
  169SAPE  H11X19156   2.538   2.517   7.344 -1.0966 -0.4984  0.6643
  169SAPE  H11Y19157   2.393   2.612   7.363  0.1177  0.6524  1.6110
  169SAPE  C31219158   2.542   2.649   7.517 -0.2079 -0.9159  0.3382
  169SAPE  H12X19159   2.508   2.747   7.558  0.5468 -0.7757  0.6493
  169SAPE  H12Y19160   2.652   2.639   7.526 -0.0964  1.0609  1.8609
  169SAPE  C31319161   2.475   2.542   7.605 -0.0719  0.3226  0.1701
  169SAPE  H13X19162   2.527   2.446   7.583  0.9421  0.7577  0.5761
  169SAPE  H13Y19163   2.371   2.530   7.567  0.7608  0.6452 -2.4062
  169SAPE  C31419164   2.479   2.570   7.758 -0.0183 -0.3779  0.0349
  169SAPE  H14X19165   2.417   2.658   7.786  2.5495  0.6997  2.9852
  169SAPE  H14Y19166   2.581   2.609   7.773  0.0950 -1.0444  1.1379
  169SAPE  C31519167   2.446   2.451   7.852 -0.1136  0.7288 -0.2959
  169SAPE  H15X19168   2.531   2.380   7.861  1.2821  2.4507  0.8772
  169SAPE  H15Y19169   2.364   2.395   7.803 -0.2585  1.5927 -1.0725
  169SAPE  C31619170   2.416   2.498   7.996 -0.2147 -0.3173 -0.4564
  169SAPE  H16X19171   2.306   2.514   8.008 -0.5168 -2.5692  0.3876
  169SAPE  H16Y19172   2.471   2.589   8.029 -0.2865 -0.2834 -0.4288
  169SAPE  C31719173   2.451   2.404   8.117  0.5771 -0.3131 -0.4614
  169SAPE  H17X19174   2.438   2.470   8.204  0.1750  0.6370 -1.2238
  169SAPE  H17Y19175   2.558   2.375   8.127  0.2935 -1.1041  0.4198
  169SAPE  C31819176   2.366   2.275   8.125 -0.3135 -0.1679  0.0764
  169SAPE  H18X19177   2.354   2.227   8.026 -2.2720 -1.5070  0.9016
  169SAPE  H18Y19178   2.259   2.294   8.146 -0.5243 -0.9598 -0.2473
  169SAPE  H18Z19179   2.405   2.205   8.202 -0.0956  0.5036  0.5845
  170SAPE     N19180   1.804   6.662   6.071  0.2460 -1.4710  0.0980
  170SAPE   HN119181   1.828   6.561   6.060  0.9372 -1.4014  0.8816
  170SAPE   HN219182   1.734   6.700   6.005  0.3445 -0.4901  0.5384
  170SAPE   HN319183   1.890   6.721   6.066 -2.3278  2.8982  1.9023
  170SAPE   C1219184   1.753   6.667   6.210  0.0530 -0.4950  0.0612
  170SAPE  H12A19185   1.718   6.564   6.234 -1.1706  0.0850  0.9112
  170SAPE  H12B19186   1.655   6.720   6.205 -0.0126 -0.5905  0.3119
  170SAPE   C1119187   1.840   6.733   6.309 -0.4274 -0.0322 -0.2178
  170SAPE  H11A19188   1.933   6.672   6.306 -0.8205 -0.6162 -2.9644
  170SAPE  H11B19189   1.790   6.730   6.408 -0.3232 -2.6925 -0.1778
  170SAPE     P19190   1.970   6.956   6.325 -0.1171 -0.0018  0.6467
  170SAPE   O1319191   2.093   6.875   6.304 -0.4087  0.1161 -0.8518
  170SAPE   O1419192   1.979   7.083   6.253 -0.9870 -0.5375  0.4908
  170SAPE   O1219193   1.852   6.871   6.270  0.2304  0.3585 -0.1480
  170SAPE   O1119194   1.941   6.974   6.476  0.3246  0.4089 -0.0761
  170SAPE    C119195   1.819   7.041   6.522 -0.1765 -0.1929  0.0287
  170SAPE    HA19196   1.834   7.151   6.526 -2.0219  0.1173 -0.5257
  170SAPE    HB19197   1.736   7.036   6.448  1.3440 -0.7999 -1.7284
  170SAPE    C219198   1.764   6.991   6.658  0.4312  0.3914  0.6377
  170SAPE    HS19199   1.685   7.057   6.700 -1.8275 -1.7875  0.0550
  170SAPE   O2119200   1.872   6.971   6.746  0.0667  0.6050 -0.3074
  170SAPE   C2119201   1.924   7.084   6.790  0.3869 -0.4697 -0.0403
  170SAPE   O2219202   1.890   7.197   6.753 -0.6878 -0.2409  0.4031
  170SAPE   C2219203   2.045   7.064   6.880  0.2022 -0.0688 -0.0199
  170SAPE   H2R19204   2.128   7.024   6.817  0.3838  0.9598 -0.4545
  170SAPE   H2S19205   2.079   7.163   6.916 -0.2330  0.7714 -1.7864
  170SAPE    C319206   1.690   6.850   6.637 -0.2403 -0.1107  0.4873
  170SAPE    HX19207   1.764   6.777   6.597 -1.1637 -0.3109 -0.9040
  170SAPE    HY19208   1.610   6.867   6.562  0.9405  0.0306 -0.7773
  170SAPE   O3119209   1.629   6.809   6.758 -0.0659 -0.1515 -0.8089
  170SAPE   C3119210   1.602   6.680   6.760  0.4812  0.1128 -0.0167
  170SAPE   O3219211   1.636   6.606   6.670  0.4447  0.5142  0.2195
  170SAPE   C3219212   1.527   6.636   6.888 -0.0171 -0.0644  0.2021
  170SAPE   H2X19213   1.522   6.525   6.889 -0.1913 -0.0587  0.0469
  170SAPE   H2Y19214   1.424   6.678   6.884  1.2622  3.2793 -1.1899
  170SAPE   C2319215   2.011   6.960   7.001 -0.0636 -0.4607  0.1630
  170SAPE   H3R19216   2.094   6.955   7.075 -0.1875  0.2219  0.3531
  170SAPE   H3S19217   2.002   6.862   6.951 -1.0514 -0.2502 -0.0806
  170SAPE   C2419218   1.882   6.998   7.077  0.2802  1.2493 -0.7302
  170SAPE   H4R19219   1.804   7.007   6.998  1.8184  0.8907 -2.3611
  170SAPE   H4S19220   1.893   7.104   7.109 -0.5680  1.5740 -1.4796
  170SAPE   C2519221   1.842   6.893   7.184  0.6878  0.2654 -0.5463
  170SAPE   H5R19222   1.793   6.805   7.141  0.6793  0.0453 -0.0985
  170SAPE   C2619223   1.823   6.916   7.315 -0.2592 -0.0489  0.1654
  170SAPE   H6R19224   1.774   6.844   7.382 -1.5321 -0.1904 -0.8954
  170SAPE   C2719225   1.862   7.053   7.378  0.2665 -0.3551  0.0246
  170SAPE   H7R19226   1.767   7.097   7.414  0.3685 -0.3896  0.3391
  170SAPE   H7S19227   1.913   7.126   7.312 -1.0017  0.4211 -0.1245
  170SAPE   C2819228   1.948   7.039   7.498 -0.6708 -0.7506 -1.4519
  170SAPE   H8R19229   2.054   7.066   7.480 -0.4236  1.7035  2.4663
  170SAPE   C2919230   1.911   7.002   7.624  0.2279  0.6481  1.0823
  170SAPE   H9R19231   1.980   7.001   7.709  0.1420 -1.8223  1.2071
  170SAPE  C21019232   1.767   6.969   7.655  0.0867  0.1439 -0.3474
  170SAPE  H10R19233   1.758   6.864   7.619  2.2348  0.1747 -1.0888
  170SAPE  H10S19234   1.705   7.034   7.589  0.9367  0.2476 -1.0549
  170SAPE  C21119235   1.731   7.003   7.795  0.0341  0.1080 -0.9938
  170SAPE  H11R19236   1.646   7.073   7.801  0.8339  1.0807 -0.8329
  170SAPE  C21219237   1.792   6.956   7.907 -0.1065 -0.1478  0.0433
  170SAPE  H12R19238   1.758   6.990   8.007  0.3202 -0.6886  0.3776
  170SAPE  C21319239   1.905   6.851   7.918 -0.8407  0.6506  0.0088
  170SAPE  H13R19240   2.000   6.901   7.944 -0.9700  0.2802  1.2231
  170SAPE  H13S19241   1.922   6.805   7.818 -0.5090  0.3187  0.2162
  170SAPE  C21419242   1.888   6.740   8.018  0.3413  0.5554  0.6079
  170SAPE  H14R19243   1.838   6.651   7.976  0.7386  1.1449 -1.2414
  170SAPE  C21519244   1.915   6.741   8.147  0.3556 -0.6786  0.5193
  170SAPE  H15R19245   1.882   6.661   8.216  0.1905 -0.2767  0.9104
  170SAPE  C21619246   1.965   6.853   8.235  0.4449 -0.5403  0.4838
  170SAPE  H16R19247   2.034   6.931   8.194  0.7289 -0.3352  1.3252
  170SAPE  H16S19248   2.024   6.800   8.313 -0.0779 -1.3868  0.3161
  170SAPE  C21719249   1.858   6.945   8.304 -0.0160  0.6338 -0.4362
  170SAPE  H17R19250   1.799   6.879   8.372 -0.4456  0.2712 -1.1472
  170SAPE  H17S19251   1.797   6.997   8.227 -2.8935  2.0267  2.5575
  170SAPE  C21819252   1.924   7.061   8.386  0.1410  0.0457  0.5171
  170SAPE  H18R19253   1.961   7.022   8.483  1.5959 -2.1502 -0.8376
  170SAPE  H18S19254   1.835   7.125   8.406 -0.4131 -1.2202  2.2429
  170SAPE  C21919255   2.026   7.151   8.316  0.0559  0.3765  0.1166
  170SAPE  H19R19256   1.997   7.171   8.210  1.0997 -2.2926 -0.7753
  170SAPE  H19S19257   2.130   7.112   8.313  0.2212  0.6523  1.7141
  170SAPE  C22019258   2.023   7.280   8.387  0.3043  0.0095 -0.3817
  170SAPE  H20R19259   1.922   7.324   8.375  2.1026  4.0688 -2.9961
  170SAPE  H20S19260   2.099   7.351   8.348  0.1522  1.9374  2.5952
  170SAPE  H20T19261   2.040   7.265   8.495 -2.5447  1.0398  0.3137
  170SAPE   C3319262   1.586   6.675   7.020 -0.2539  0.3123  0.1271
  170SAPE   H3X19263   1.580   6.785   7.028  2.1018  0.4651  0.5272
  170SAPE   H3Y19264   1.691   6.641   7.028 -0.4358  0.1188  3.2203
  170SAPE   C3419265   1.505   6.609   7.133 -0.5647  0.2079  0.3369
  170SAPE   H4X19266   1.507   6.499   7.117 -0.5913  0.0109  1.6181
  170SAPE   H4Y19267   1.398   6.638   7.129 -0.3398  0.9639 -1.4305
  170SAPE   C3519268   1.565   6.660   7.267  0.1997  0.3165  0.2919
  170SAPE   H5X19269   1.554   6.770   7.277 -2.3785  0.1452  0.0326
  170SAPE   H5Y19270   1.673   6.639   7.276  0.1778 -0.6259 -1.1503
  170SAPE   C3619271   1.496   6.585   7.382  0.3967 -0.1852 -0.0191
  170SAPE   H6X19272   1.499   6.476   7.362 -1.5565 -0.1199 -0.9290
  170SAPE   H6Y19273   1.388   6.610   7.392  0.6209  0.4054  1.1612
  170SAPE   C3719274   1.569   6.617   7.512 -0.0303  0.4428 -1.1658
  170SAPE   H7X19275   1.577   6.727   7.525  0.4301  0.1647  1.6657
  170SAPE   H7Y19276   1.665   6.560   7.507 -0.2504  0.0387 -0.8748
  170SAPE   C3819277   1.494   6.562   7.640  0.1159  0.1273  0.1356
  170SAPE   H8X19278   1.447   6.463   7.620  3.9177 -1.9444  0.6347
  170SAPE   H8Y19279   1.408   6.628   7.663  1.4052  2.2262 -0.7675
  170SAPE   C3919280   1.576   6.570   7.767 -0.3227 -0.1534 -0.2828
  170SAPE   H9X19281   1.588   6.677   7.793 -2.7804  0.4434 -1.2844
  170SAPE   H9Y19282   1.680   6.532   7.758 -0.1443  0.0650  0.8219
  170SAPE  C31019283   1.494   6.509   7.885 -0.6061  0.0585  0.3869
  170SAPE  H10X19284   1.490   6.399   7.872  0.8586 -0.0535  0.6101
  170SAPE  H10Y19285   1.387   6.539   7.889 -0.4201  2.1703 -4.2445
  170SAPE  C31119286   1.555   6.546   8.018  0.0512 -0.0384  0.1204
  170SAPE  H11X19287   1.592   6.651   8.022  1.6425 -0.5870  0.4535
  170SAPE  H11Y19288   1.644   6.486   8.046  0.3650  1.0059  1.4414
  170SAPE  C31219289   1.464   6.543   8.147 -0.0857 -0.0791 -0.9359
  170SAPE  H12X19290   1.406   6.449   8.139 -2.2217  0.8353  2.1700
  170SAPE  H12Y19291   1.404   6.636   8.141  1.2751  0.9055  0.0712
  170SAPE  C31319292   1.538   6.535   8.282 -0.2204 -0.1742 -0.0288
  170SAPE  H13X19293   1.468   6.570   8.361 -2.1070  0.3134 -1.8313
  170SAPE  H13Y19294   1.621   6.608   8.281 -0.7132  0.4358  1.5185
  170SAPE  C31419295   1.593   6.399   8.317 -0.5789 -0.0282  0.6004
  170SAPE  H14X19296   1.654   6.417   8.409 -1.6396  3.4432  0.7929
  170SAPE  H14Y19297   1.661   6.360   8.239  0.6064  1.1169  1.0259
  170SAPE  C31519298   1.488   6.289   8.337  0.8115 -0.2605 -0.8829
  170SAPE  H15X19299   1.438   6.264   8.241 -1.2015  0.6131 -0.1404
  170SAPE  H15Y19300   1.405   6.336   8.395  2.0259  0.1785  0.5599
  170SAPE  C31619301   1.527   6.156   8.404  0.1881  0.3129 -0.0101
  170SAPE  H16X19302   1.524   6.162   8.515 -0.0574 -0.8032  0.0536
  170SAPE  H16Y19303   1.629   6.134   8.364  0.9923  2.9914  0.3707
  170SAPE  C31719304   1.446   6.036   8.360  0.3310  0.1222  0.5637
  170SAPE  H17X19305   1.449   6.023   8.249  2.7007  1.0011  0.4852
  170SAPE  H17Y19306   1.343   6.055   8.397 -0.1763  3.7725 -2.1282
  170SAPE  C31819307   1.501   5.905   8.413 -0.2680  0.1961 -0.0263
  170SAPE  H18X19308   1.477   5.892   8.520  0.3898  1.3857  0.2762
  170SAPE  H18Y19309   1.608   5.893   8.386 -0.7524 -0.1772 -1.9678
  170SAPE  H18Z19310   1.445   5.816   8.374  2.0572 -0.6633 -1.6621
  171SAPE     N19311   3.751   0.713   6.260 -0.0683  0.3168  0.4725
  171SAPE   HN119312   3.762   0.695   6.362  3.4554 -2.8153 -0.2474
  171SAPE   HN219313   3.656   0.691   6.224 -0.3179 -1.1908  1.9537
  171SAPE   HN319314   3.820   0.652   6.213 -2.1702 -1.8342  0.0272
  171SAPE   C1219315   3.787   0.848   6.204 -0.3430  0.5532 -0.4002
  171SAPE  H12A19316   3.706   0.920   6.225  0.7604  1.0619  2.5612
  171SAPE  H12B19317   3.794   0.832   6.094  0.4179  0.8823 -0.4099
  171SAPE   C1119318   3.923   0.888   6.262 -0.1230 -0.0254 -0.0689
  171SAPE  H11A19319   3.960   0.981   6.214 -1.5169  1.2920  1.3063
  171SAPE  H11B19320   3.998   0.811   6.234 -2.1695 -1.3761 -2.2138
  171SAPE     P19321   3.891   1.037   6.480 -0.1799 -0.2461  0.2278
  171SAPE   O1319322   3.788   1.121   6.412  0.7157 -0.1776 -0.3745
  171SAPE   O1419323   3.856   1.003   6.619  0.2746  0.1796  0.1377
  171SAPE   O1219324   3.925   0.903   6.401 -0.5896 -0.1221  0.1605
  171SAPE   O1119325   4.025   1.127   6.473 -0.1882  0.5372 -0.1276
  171SAPE    C119326   4.150   1.059   6.457 -0.0211 -0.2276  0.4192
  171SAPE    HA19327   4.143   0.949   6.441  1.5219 -0.0709 -1.8017
  171SAPE    HB19328   4.196   1.095   6.363 -0.0685 -1.4688 -0.0931
  171SAPE    C219329   4.255   1.096   6.566  0.1543 -0.1428  0.1013
  171SAPE    HS19330   4.353   1.046   6.552  0.5535  1.0877 -1.9875
  171SAPE   O2119331   4.200   1.066   6.695  0.2013 -0.0907 -0.1017
  171SAPE   C2119332   4.214   0.938   6.727 -0.7616  0.1837 -0.1132
  171SAPE   O2219333   4.246   0.843   6.660  0.0193 -0.1951  0.5217
  171SAPE   C2219334   4.140   0.929   6.861  0.3857  0.2653 -0.4759
  171SAPE   H2R19335   4.090   1.025   6.887 -2.4655 -1.6845  1.8471
  171SAPE   H2S19336   4.057   0.859   6.836 -0.4532  1.7627 -2.1490
  171SAPE    C319337   4.282   1.243   6.559  0.1742 -0.6040 -0.4188
  171SAPE    HX19338   4.194   1.303   6.588  0.6005  0.5080 -1.3362
  171SAPE    HY19339   4.308   1.263   6.453 -0.3401  0.1209 -0.4126
  171SAPE   O3119340   4.397   1.267   6.641 -0.6217 -0.6165 -0.1776
  171SAPE   C3119341   4.374   1.307   6.767 -0.0402  0.9769  0.1037
  171SAPE   O3219342   4.266   1.320   6.816 -0.1552 -0.2539 -0.5895
  171SAPE   C3219343   4.514   1.331   6.829  0.1344 -0.0039 -0.2901
  171SAPE   H2X19344   4.572   1.394   6.759 -3.4908  3.1858 -0.7880
  171SAPE   H2Y19345   4.559   1.230   6.840 -2.0002 -0.8874  0.9277
  171SAPE   C2319346   4.225   0.865   6.972 -0.3635 -0.3106  0.1102
  171SAPE   H3R19347   4.327   0.908   6.987 -0.0320 -1.6276  2.0624
  171SAPE   H3S19348   4.244   0.763   6.932  0.5012  0.0492 -0.4280
  171SAPE   C2419349   4.149   0.840   7.103 -0.4417 -0.3807 -0.0323
  171SAPE   H4R19350   4.061   0.775   7.087 -0.7991  0.2972 -0.9473
  171SAPE   H4S19351   4.122   0.938   7.149 -1.0470 -0.6637  0.2179
  171SAPE   C2519352   4.248   0.766   7.187  0.2201  0.6627 -0.0990
  171SAPE   H5R19353   4.324   0.717   7.124 -0.1447 -2.7068  1.8461
  171SAPE   C2619354   4.237   0.734   7.315 -0.3525  0.4426  0.4695
  171SAPE   H6R19355   4.314   0.669   7.358  1.1359  0.2535 -2.3124
  171SAPE   C2719356   4.124   0.776   7.409 -0.0377  0.0577  0.1809
  171SAPE   H7R19357   4.063   0.859   7.367  2.2558  0.8194 -1.9112
  171SAPE   H7S19358   4.188   0.814   7.492 -0.4559  0.0730  0.5015
  171SAPE   C2819359   4.056   0.657   7.453  0.3757  0.0069 -0.0935
  171SAPE   H8R19360   4.027   0.581   7.379  0.9574  2.0757 -2.5864
  171SAPE   C2919361   4.030   0.629   7.582 -0.0776 -0.2587 -0.1969
  171SAPE   H9R19362   3.986   0.532   7.610 -2.8389  0.6458 -1.0569
  171SAPE  C21019363   4.058   0.716   7.699  0.7271 -0.7104  0.0591
  171SAPE  H10R19364   4.063   0.822   7.667 -1.2711  0.0575  2.0565
  171SAPE  H10S19365   4.152   0.684   7.749  1.0325  1.2087  0.7762
  171SAPE  C21119366   3.954   0.694   7.807 -0.1253 -0.5643 -0.6152
  171SAPE  H11R19367   3.896   0.601   7.806 -0.0140 -0.6463  0.0244
  171SAPE  C21219368   3.920   0.776   7.915 -0.7637  0.0223  0.3320
  171SAPE  H12R19369   3.841   0.737   7.981 -1.9077 -0.8858 -1.4847
  171SAPE  C21319370   3.978   0.915   7.945  0.2048  0.2789 -0.4749
  171SAPE  H13R19371   4.067   0.935   7.882 -0.1297  1.7188 -0.5373
  171SAPE  H13S19372   4.024   0.914   8.046  1.2343  2.9177 -0.8432
  171SAPE  C21419373   3.880   1.034   7.955 -0.3440 -0.3835 -0.0374
  171SAPE  H14R19374   3.828   1.046   8.051  0.8638  0.2761  0.5587
  171SAPE  C21519375   3.861   1.119   7.847 -0.5587 -0.0045 -0.0241
  171SAPE  H15R19376   3.789   1.199   7.867 -0.7736 -0.4560  1.0923
  171SAPE  C21619377   3.920   1.088   7.709  0.8934 -0.8631 -0.4287
  171SAPE  H16R19378   3.882   0.991   7.670  2.7930 -1.1027 -1.8050
  171SAPE  H16S19379   4.031   1.092   7.705  0.8565  1.9515 -5.0622
  171SAPE  C21719380   3.870   1.192   7.606  0.4000 -0.1547 -0.0079
  171SAPE  H17R19381   3.906   1.293   7.637  1.3617 -1.2745  2.8872
  171SAPE  H17S19382   3.761   1.184   7.586  0.1645  0.6792  0.8364
  171SAPE  C21819383   3.947   1.164   7.474  0.1447  1.3251  0.3593
  171SAPE  H18R19384   3.941   1.057   7.445  2.0129  0.5979  2.3195
  171SAPE  H18S19385   4.052   1.196   7.492 -0.0649  1.5969  1.1472
  171SAPE  C21919386   3.881   1.242   7.358 -0.1462 -0.4429  0.0386
  171SAPE  H19R19387   3.870   1.344   7.401 -0.5793 -1.6281  2.9695
  171SAPE  H19S19388   3.780   1.209   7.324 -0.0685  0.7720 -1.5388
  171SAPE  C22019389   3.963   1.235   7.232 -0.3387 -0.5870  0.0391
  171SAPE  H20R19390   3.978   1.126   7.221 -1.4871 -0.7797  0.2930
  171SAPE  H20S19391   4.055   1.298   7.232 -0.8778  0.2328 -0.5542
  171SAPE  H20T19392   3.914   1.255   7.134  2.4127  2.0086 -0.9765
  171SAPE   C3319393   4.506   1.403   6.967  0.0602  0.5768 -1.2317
  171SAPE   H3X19394   4.418   1.470   6.975 -2.7968 -2.9428 -0.3373
  171SAPE   H3Y19395   4.600   1.462   6.973  0.8219 -0.6139 -1.2108
  171SAPE   C3419396   4.480   1.300   7.082  0.4843  0.0865  0.0055
  171SAPE   H4X19397   4.571   1.236   7.085  1.2144  1.1277  0.7743
  171SAPE   H4Y19398   4.392   1.235   7.061 -0.5258  1.7602 -1.1235
  171SAPE   C3519399   4.444   1.359   7.217  0.2834  0.1496 -0.9212
  171SAPE   H5X19400   4.358   1.428   7.202 -0.0147  0.2326  0.8956
  171SAPE   H5Y19401   4.538   1.408   7.251  0.2406 -1.4448  1.8552
  171SAPE   C3619402   4.421   1.243   7.314  0.9719 -0.4825  0.0050
  171SAPE   H6X19403   4.476   1.147   7.308  1.8559 -0.0606  0.9780
  171SAPE   H6Y19404   4.316   1.209   7.299  0.6678  1.2185 -2.3192
  171SAPE   C3719405   4.433   1.272   7.465  0.5293  0.4698  0.0086
  171SAPE   H7X19406   4.361   1.352   7.494  0.6481  0.5528  0.0751
  171SAPE   H7Y19407   4.533   1.304   7.501  2.0418 -1.9294 -1.7160
  171SAPE   C3819408   4.403   1.140   7.547 -0.5107  0.2386  0.6135
  171SAPE   H8X19409   4.468   1.060   7.505  1.8330  2.0047  0.6656
  171SAPE   H8Y19410   4.297   1.112   7.533 -1.0592  1.4914  1.9857
  171SAPE   C3919411   4.428   1.160   7.693  0.0942  0.2772  0.3202
  171SAPE   H9X19412   4.403   1.264   7.725 -0.6574  0.2845 -0.2530
  171SAPE   H9Y19413   4.536   1.141   7.705  0.6019  2.6701  0.1531
  171SAPE  C31019414   4.346   1.062   7.779 -0.3764  0.0978 -0.9726
  171SAPE  H10X19415   4.353   0.957   7.743  0.5468  0.4189 -1.7942
  171SAPE  H10Y19416   4.237   1.078   7.772 -0.2288  1.1551 -1.0119
  171SAPE  C31119417   4.392   1.075   7.933 -0.0535 -0.0867  0.1842
  171SAPE  H11X19418   4.396   1.184   7.953 -0.7869 -0.1926  0.9664
  171SAPE  H11Y19419   4.496   1.039   7.944  0.9476  1.8748 -2.0143
  171SAPE  C31219420   4.290   1.012   8.029 -0.3763 -0.1698  0.0667
  171SAPE  H12X19421   4.267   0.908   7.997 -3.9577  0.0881  1.3196
  171SAPE  H12Y19422   4.195   1.064   8.004 -0.1937  1.4766  2.4801
  171SAPE  C31319423   4.334   1.027   8.175  0.2077 -0.7292 -0.1901
  171SAPE  H13X19424   4.249   1.010   8.245  0.9463 -0.2226  0.8509
  171SAPE  H13Y19425   4.368   1.132   8.180  1.7420 -1.2170  0.0987
  171SAPE  C31419426   4.443   0.931   8.215 -0.1296  0.1154  0.6363
  171SAPE  H14X19427   4.542   0.955   8.170 -0.9283 -1.5170 -2.2867
  171SAPE  H14Y19428   4.400   0.832   8.187  1.2272 -0.4056  0.2969
  171SAPE  C31519429   4.455   0.920   8.368 -0.1102 -0.3075  0.3025
  171SAPE  H15X19430   4.500   0.821   8.386  0.5483  0.2151  1.6844
  171SAPE  H15Y19431   4.354   0.900   8.409 -0.8882  1.3987 -0.6319
  171SAPE  C31619432   4.532   1.036   8.426  0.1169 -0.4221 -0.2834
  171SAPE  H16X19433   4.489   1.138   8.410 -0.4586 -0.1247  2.6820
  171SAPE  H16Y19434   4.629   1.034   8.372 -0.0544 -3.4772 -0.6521
  171SAPE  C31719435   4.571   1.010   8.572 -0.2575 -0.3318  0.9231
  171SAPE  H17X19436   4.603   1.105   8.620  2.0748 -1.0499  0.9108
  171SAPE  H17Y19437   4.650   0.932   8.577 -1.0848 -1.5111 -2.1982
  171SAPE  C31819438   4.456   0.981   8.657 -0.3989 -0.0633  0.0439
  171SAPE  H18X19439   4.456   0.876   8.694  0.2829  0.5886  2.0127
  171SAPE  H18Y19440   4.362   1.013   8.606 -0.2855  1.1632  0.5786
  171SAPE  H18Z19441   4.460   1.047   8.746 -0.4476 -0.0268  0.0191
  172SAPE     N19442   3.030   5.570   6.469 -0.2092 -0.0668 -0.2095
  172SAPE   HN119443   3.118   5.523   6.499  0.4090 -0.3694 -2.3125
  172SAPE   HN219444   2.994   5.607   6.559  0.2236 -1.9925  0.8188
  172SAPE   HN319445   2.965   5.497   6.433 -0.3611  0.4998 -1.1230
  172SAPE   C1219446   3.056   5.675   6.372  0.0940 -0.7946 -0.7402
  172SAPE  H12A19447   2.961   5.703   6.321  0.9559  0.3805 -1.7766
  172SAPE  H12B19448   3.121   5.629   6.294  0.8229 -2.4097  0.7479
  172SAPE   C1119449   3.123   5.800   6.447  0.5526 -0.1423 -0.6124
  172SAPE  H11A19450   3.157   5.872   6.369  1.3097 -0.8926 -1.0021
  172SAPE  H11B19451   3.213   5.752   6.492 -0.8065 -3.0340 -0.7564
  172SAPE     P19452   2.922   5.947   6.516 -0.0586  0.1506  0.1506
  172SAPE   O1319453   2.951   6.030   6.398  0.7016  0.2382 -0.0832
  172SAPE   O1419454   2.798   5.865   6.517 -0.1650  0.5838 -0.4539
  172SAPE   O1219455   3.041   5.849   6.553 -0.1804 -0.1107  0.5349
  172SAPE   O1119456   2.913   6.050   6.634  0.2836  0.2151 -0.2484
  172SAPE    C119457   3.027   6.136   6.659 -0.5578 -0.3367  1.0190
  172SAPE    HA19458   3.120   6.082   6.631  0.6294  0.9934  2.2309
  172SAPE    HB19459   3.028   6.223   6.590 -0.7638 -0.8158  0.3992
  172SAPE    C219460   3.035   6.180   6.806  0.2674 -0.3640  0.0683
  172SAPE    HS19461   3.122   6.243   6.833 -0.2231  0.6974 -0.7388
  172SAPE   O2119462   3.001   6.068   6.900 -0.0859 -0.3349  0.1611
  172SAPE   C2119463   3.113   5.991   6.917  1.1049 -0.5461  0.2171
  172SAPE   O2219464   3.217   6.019   6.858 -0.7599 -0.1532 -0.1576
  172SAPE   C2219465   3.089   5.870   7.006  0.4974 -0.2528 -0.4334
  172SAPE   H2R19466   3.054   5.791   6.935  0.8269 -0.9971  0.2154
  172SAPE   H2S19467   3.184   5.853   7.060 -0.4159 -0.6645  1.1103
  172SAPE    C319468   2.913   6.280   6.819 -0.6518 -0.5619  1.0466
  172SAPE    HX19469   2.814   6.232   6.806 -1.4086  1.4102 -1.2842
  172SAPE    HY19470   2.910   6.357   6.739  1.1977 -0.2171  1.2682
  172SAPE   O3119471   2.924   6.346   6.948 -0.0924  0.0043  0.2401
  172SAPE   C3119472   2.844   6.305   7.040  0.0083 -0.1054 -0.3853
  172SAPE   O3219473   2.751   6.225   7.028  0.3718 -0.5115  0.2226
  172SAPE   C3219474   2.859   6.397   7.160 -0.8900  0.1573  0.3506
  172SAPE   H2X19475   2.773   6.468   7.152 -0.7120  0.8119  2.9912
  172SAPE   H2Y19476   2.953   6.456   7.149 -1.7101  1.1909 -1.5363
  172SAPE   C2319477   2.969   5.886   7.109 -0.3291 -0.2517 -1.0424
  172SAPE   H3R19478   2.943   5.786   7.151 -0.1162 -0.4058 -1.2759
  172SAPE   H3S19479   2.876   5.912   7.054 -0.1228  1.5055 -0.6209
  172SAPE   C2419480   2.994   5.995   7.217 -0.2459  0.1846  0.4287
  172SAPE   H4R19481   3.002   6.098   7.178 -0.7136  0.8602  2.0343
  172SAPE   H4S19482   3.097   5.975   7.255 -0.3479  1.8342  1.6638
  172SAPE   C2519483   2.890   6.002   7.332  0.3991 -0.1135  0.4618
  172SAPE   H5R19484   2.791   6.012   7.286  0.4943  1.6225  0.5725
  172SAPE   C2619485   2.914   5.988   7.462  0.4122 -0.1088  0.0260
  172SAPE   H6R19486   2.829   6.011   7.527 -0.6657 -0.3873 -1.2496
  172SAPE   C2719487   3.045   5.976   7.525 -0.5911  0.4974 -0.0028
  172SAPE   H7R19488   3.133   6.005   7.464  1.2053  0.5315  2.4384
  172SAPE   H7S19489   3.060   5.869   7.553  1.1198  0.6765 -0.1153
  172SAPE   C2819490   3.059   6.063   7.649  0.3530 -0.3636 -0.3174
  172SAPE   H8R19491   3.104   6.162   7.634 -1.2315  0.0969 -2.4401
  172SAPE   C2919492   2.999   6.039   7.764 -0.2701  0.7642  0.1426
  172SAPE   H9R19493   3.013   6.105   7.851  0.9877  1.6299 -0.6911
  172SAPE  C21019494   2.918   5.914   7.797 -0.7208  0.2501  0.6580
  172SAPE  H10R19495   2.852   5.885   7.712 -0.7020  1.1878  0.3089
  172SAPE  H10S19496   2.836   5.946   7.865 -2.1337  1.4705 -1.4607
  172SAPE  C21119497   3.007   5.802   7.856 -0.4241 -0.3412  0.3872
  172SAPE  H11R19498   3.070   5.746   7.785  1.6238  1.7530  0.4532
  172SAPE  C21219499   3.014   5.749   7.982  0.2007  0.0901 -0.4813
  172SAPE  H12R19500   3.105   5.691   8.005  2.1264  2.8214 -0.6879
  172SAPE  C21319501   2.944   5.775   8.114  0.2766 -0.3645  0.3748
  172SAPE  H13R19502   3.000   5.727   8.197 -0.1600  1.0895  1.5370
  172SAPE  H13S19503   2.848   5.720   8.114 -0.4447  0.8615 -0.0051
  172SAPE  C21419504   2.916   5.920   8.138  0.1509  0.2117  0.0243
  172SAPE  H14R19505   2.973   5.988   8.073 -0.0917  0.1012 -0.3053
  172SAPE  C21519506   2.852   5.973   8.238  0.0262  0.3717  0.0869
  172SAPE  H15R19507   2.838   6.082   8.238  1.6033  0.6062  0.8554
  172SAPE  C21619508   2.782   5.900   8.359 -0.2155 -0.0758 -0.0579
  172SAPE  H16R19509   2.814   5.793   8.357 -2.2793 -0.7257 -0.5040
  172SAPE  H16S19510   2.671   5.902   8.361 -0.3765  4.6024  3.6798
  172SAPE  C21719511   2.834   5.958   8.494  0.7020  0.4578 -0.0053
  172SAPE  H17R19512   2.942   5.983   8.494  0.6418  0.7985 -1.5233
  172SAPE  H17S19513   2.812   5.891   8.581 -1.3084  1.6999  0.4998
  172SAPE  C21819514   2.770   6.084   8.536  0.5776  0.0073 -0.7593
  172SAPE  H18R19515   2.660   6.085   8.521  0.7588  1.5771 -2.3126
  172SAPE  H18S19516   2.813   6.164   8.472  2.1746  0.2237  0.5161
  172SAPE  C21919517   2.802   6.131   8.681 -0.4512 -0.3276 -0.4003
  172SAPE  H19R19518   2.909   6.111   8.701 -0.4299  0.9906  0.9653
  172SAPE  H19S19519   2.745   6.071   8.755 -0.5497  0.0374 -0.1776
  172SAPE  C22019520   2.789   6.279   8.712  0.6825 -0.0229 -0.0818
  172SAPE  H20R19521   2.858   6.333   8.643 -1.3074  0.4479 -1.7817
  172SAPE  H20S19522   2.824   6.280   8.817 -0.1221 -1.2771  0.2095
  172SAPE  H20T19523   2.684   6.316   8.707  0.3142 -0.9809  0.4338
  172SAPE   C3319524   2.867   6.326   7.303 -0.0522 -0.0599  0.5844
  172SAPE   H3X19525   2.968   6.303   7.344 -0.9793 -1.7478  2.0474
  172SAPE   H3Y19526   2.811   6.230   7.302 -1.0222  0.4806  1.2324
  172SAPE   C3419527   2.785   6.397   7.415  0.2369  0.4931 -0.1141
  172SAPE   H4X19528   2.687   6.426   7.372  0.5623  1.3645 -0.2809
  172SAPE   H4Y19529   2.834   6.494   7.437 -0.4978  0.5713  1.2711
  172SAPE   C3519530   2.770   6.310   7.538 -0.1653 -0.0401 -0.8143
  172SAPE   H5X19531   2.871   6.286   7.578 -0.0465  1.3588 -0.2089
  172SAPE   H5Y19532   2.713   6.217   7.515 -1.5417  0.9974 -1.7668
  172SAPE   C3619533   2.690   6.373   7.654 -0.3623  0.6073 -0.9246
  172SAPE   H6X19534   2.588   6.398   7.616 -0.2732  2.9090  0.1330
  172SAPE   H6Y19535   2.727   6.474   7.683  0.5612 -0.2257  0.9826
  172SAPE   C3719536   2.681   6.284   7.776 -0.3750  0.0482  0.2396
  172SAPE   H7X19537   2.782   6.243   7.797 -0.7026 -1.1534 -0.4177
  172SAPE   H7Y19538   2.621   6.194   7.749  0.4888 -1.4844  2.9877
  172SAPE   C3819539   2.619   6.356   7.893 -0.6228  0.3290 -0.7453
  172SAPE   H8X19540   2.534   6.427   7.891 -0.4491  0.6740  1.4776
  172SAPE   H8Y19541   2.706   6.423   7.913  2.0046 -2.5994 -1.5167
  172SAPE   C3919542   2.591   6.256   8.014  0.4457 -0.4152 -0.6073
  172SAPE   H9X19543   2.651   6.170   7.979 -0.1402 -1.2384  0.3536
  172SAPE   H9Y19544   2.485   6.223   8.009 -0.8252  1.8986  4.3453
  172SAPE  C31019545   2.633   6.309   8.155  0.2796  0.3995  0.0563
  172SAPE  H10X19546   2.732   6.360   8.154  0.7108 -0.3226 -2.8138
  172SAPE  H10Y19547   2.644   6.220   8.220 -1.9653  2.1228  3.0487
  172SAPE  C31119548   2.528   6.400   8.216  0.6306 -0.0454  0.3116
  172SAPE  H11X19549   2.430   6.346   8.218 -0.5888  1.9324  4.4514
  172SAPE  H11Y19550   2.515   6.496   8.162 -2.9549 -0.0599  0.8598
  172SAPE  C31219551   2.556   6.427   8.363 -0.0443 -0.3003  0.2594
  172SAPE  H12X19552   2.654   6.479   8.374  0.7646 -1.5155 -0.8115
  172SAPE  H12Y19553   2.556   6.331   8.419 -0.4757 -0.3218  0.2247
  172SAPE  C31319554   2.446   6.519   8.424  0.1063 -0.2148  0.4894
  172SAPE  H13X19555   2.344   6.488   8.393 -0.0235  0.5610  0.1078
  172SAPE  H13Y19556   2.465   6.618   8.376  1.1281  0.6299  2.4717
  172SAPE  C31419557   2.461   6.548   8.574  0.2836  0.2815 -0.4280
  172SAPE  H14X19558   2.562   6.531   8.615  0.1792 -0.5802 -0.5167
  172SAPE  H14Y19559   2.408   6.463   8.622  2.4072  0.2155  1.9891
  172SAPE  C31519560   2.399   6.682   8.623 -0.0759  1.0176  0.1916
  172SAPE  H15X19561   2.475   6.758   8.597  1.7484 -1.1807 -1.3029
  172SAPE  H15Y19562   2.398   6.696   8.734  0.5556  0.2250  0.3076
  172SAPE  C31619563   2.261   6.709   8.555 -0.8148  0.2319  0.3419
  172SAPE  H16X19564   2.193   6.627   8.587  0.9109 -2.2620 -1.9979
  172SAPE  H16Y19565   2.270   6.708   8.445  0.2839 -0.0311  0.4197
  172SAPE  C31719566   2.204   6.846   8.582  0.4352 -0.8535 -0.5509
  172SAPE  H17X19567   2.130   6.880   8.506  3.0270  2.0314 -2.0338
  172SAPE  H17Y19568   2.288   6.915   8.558 -1.0892  1.1032 -0.4993
  172SAPE  C31819569   2.157   6.871   8.725 -0.0940  0.2285 -0.3033
  172SAPE  H18X19570   2.218   6.807   8.792 -2.1439 -0.6509  0.8245
  172SAPE  H18Y19571   2.049   6.848   8.735 -0.2313  0.4797 -1.1410
  172SAPE  H18Z19572   2.169   6.978   8.754  2.5163  0.5090 -2.1036
  173SOPE     N19573   2.731   3.683  11.025 -0.6362 -0.1924 -0.1423
  173SOPE   HN119574   2.803   3.748  11.064  1.4288 -1.5685 -1.5045
  173SOPE   HN219575   2.656   3.660  11.093  0.0285  0.0728  0.7128
  173SOPE   HN319576   2.776   3.597  10.989 -1.1456 -1.0232  1.1062
  173SOPE   C1219577   2.665   3.753  10.909 -0.4771  0.1566 -0.5868
  173SOPE  H12A19578   2.575   3.806  10.947  1.2827  2.6905  0.3273
  173SOPE  H12B19579   2.626   3.680  10.834  0.8010  0.6384 -1.7705
  173SOPE   C1119580   2.761   3.849  10.836 -1.0411 -1.0427 -0.0756
  173SOPE  H11A19581   2.702   3.908  10.763 -1.2515  0.6448  1.3687
  173SOPE  H11B19582   2.838   3.793  10.779  3.3419  0.6141  3.5793
  173SOPE     P19583   2.779   4.076  10.985  0.0312  0.2725  0.2305
  173SOPE   O1319584   2.898   4.145  11.044  0.3484 -0.0927 -0.5653
  173SOPE   O1419585   2.662   4.048  11.062 -0.3675  0.2287  1.0820
  173SOPE   O1219586   2.828   3.935  10.933  0.1935 -0.4288 -0.1511
  173SOPE   O1119587   2.739   4.151  10.848 -0.2451 -0.7265  0.2262
  173SOPE    C119588   2.618   4.223  10.835 -0.8683 -0.2314 -0.0444
  173SOPE    HA19589   2.621   4.325  10.881  1.0671  0.0990 -0.8446
  173SOPE    HB19590   2.528   4.174  10.878 -0.2741 -0.6916  0.6995
  173SOPE    C219591   2.588   4.239  10.686  0.4040 -0.2554  0.6754
  173SOPE    HS19592   2.501   4.307  10.672 -0.6979 -1.5892  0.8730
  173SOPE   O2119593   2.548   4.118  10.618  0.5139  0.0111 -0.1388
  173SOPE   C2119594   2.466   4.133  10.509 -0.3644  0.0654 -0.1131
  173SOPE   O2219595   2.429   4.238  10.459  0.4156 -0.0127  0.0638
  173SOPE   C2219596   2.426   4.004  10.449  0.4845  0.7251 -0.0356
  173SOPE   H2R19597   2.322   4.009  10.411 -0.5016 -4.3796  1.2470
  173SOPE   H2S19598   2.420   3.928  10.530  1.0930  1.3986  0.6545
  173SOPE    C319599   2.713   4.291  10.609 -0.0578  0.0911 -0.0542
  173SOPE    HX19600   2.791   4.212  10.602  0.3234  0.5671 -1.4947
  173SOPE    HY19601   2.760   4.375  10.664 -1.1300  0.0489  0.9514
  173SOPE   O3119602   2.692   4.315  10.473 -0.2978 -0.3112 -0.0904
  173SOPE   C3119603   2.669   4.437  10.435 -0.4401  0.4506 -0.1988
  173SOPE   O3219604   2.674   4.536  10.512  0.0636  0.4005  0.0556
  173SOPE   C3219605   2.658   4.450  10.284  0.3474  0.1604 -0.3296
  173SOPE   H2X19606   2.558   4.408  10.263  1.2830 -2.8538  0.7806
  173SOPE   H2Y19607   2.729   4.372  10.250 -0.1842 -0.0947 -0.8688
  173SOPE   C2319608   2.529   3.959  10.345 -0.9195 -0.3375 -0.4201
  173SOPE   H3R19609   2.506   3.853  10.321  0.5215 -1.5867  3.0528
  173SOPE   H3S19610   2.634   3.976  10.376 -1.5848  1.0923  1.2132
  173SOPE   C2419611   2.507   4.030  10.207 -0.1579  0.2894 -0.0602
  173SOPE   H4R19612   2.467   3.962  10.129  0.6478 -0.4972  0.1917
  173SOPE   H4S19613   2.424   4.099  10.235  0.2512 -0.4665  3.5615
  173SOPE   C2519614   2.627   4.097  10.143 -0.2578 -0.3247 -0.8716
  173SOPE   H5R19615   2.668   4.162  10.223  0.7014 -0.3154 -1.3419
  173SOPE   H5S19616   2.712   4.025  10.133 -2.2113 -2.8614 -0.1729
  173SOPE   C2619617   2.607   4.183  10.019  0.3582 -0.5676  0.5415
  173SOPE   H6R19618   2.516   4.247  10.027  0.6205 -0.3959  2.9851
  173SOPE   H6S19619   2.692   4.254  10.014  0.8417 -1.1465  0.5627
  173SOPE   C2719620   2.608   4.110   9.880 -0.5882  0.1036 -0.6704
  173SOPE   H7R19621   2.695   4.042   9.894 -0.1779  0.0369 -2.9960
  173SOPE   H7S19622   2.514   4.051   9.874 -0.8767  0.6498 -2.0547
  173SOPE   C2819623   2.623   4.216   9.769  0.7663  0.1614  0.0973
  173SOPE   H8R19624   2.537   4.286   9.774 -0.2469 -1.0198 -0.3794
  173SOPE   H8S19625   2.704   4.281   9.810 -0.9575  0.8555  2.6892
  173SOPE   C2919626   2.654   4.144   9.639  0.2583  0.1970 -0.5278
  173SOPE   H9119627   2.749   4.088   9.640 -0.3259 -0.8971  1.7384
  173SOPE  C21019628   2.576   4.139   9.529  0.2945  0.0482 -0.2767
  173SOPE  H10119629   2.603   4.075   9.444 -1.2028 -0.9605 -0.0292
  173SOPE  C21119630   2.435   4.199   9.504  0.1151  0.7736 -0.5864
  173SOPE  H11R19631   2.432   4.305   9.471  1.1052  0.8911 -0.3170
  173SOPE  H11S19632   2.382   4.198   9.602  2.2483  2.5463  0.6693
  173SOPE  C21219633   2.371   4.115   9.394 -0.1767  0.4622  0.2142
  173SOPE  H12R19634   2.269   4.156   9.379 -1.6999 -2.7525  0.7856
  173SOPE  H12S19635   2.352   4.010   9.426 -1.8391  0.3065 -1.1929
  173SOPE  C21319636   2.445   4.104   9.258  0.2178  0.2221 -0.2564
  173SOPE  H13R19637   2.550   4.066   9.259  0.7130  1.5176 -0.8004
  173SOPE  H13S19638   2.462   4.211   9.233  1.7457  0.3535  1.1039
  173SOPE  C21419639   2.362   4.028   9.154 -0.0575 -0.1600  0.3347
  173SOPE  H14R19640   2.266   4.083   9.145 -0.2531 -0.4862  0.4191
  173SOPE  H14S19641   2.341   3.926   9.194 -1.2879 -0.7697 -1.7377
  173SOPE  C21519642   2.433   4.010   9.019 -0.0012 -0.4208 -0.4714
  173SOPE  H15R19643   2.539   3.989   9.043  0.6453  0.0705 -2.7073
  173SOPE  H15S19644   2.426   4.111   8.973 -1.8657 -1.1959 -2.0531
  173SOPE  C21619645   2.373   3.899   8.933 -0.4504  0.7746 -0.7361
  173SOPE  H16R19646   2.264   3.919   8.923 -0.1154  2.8154 -0.6446
  173SOPE  H16S19647   2.394   3.805   8.989  1.0402  0.5491 -1.6226
  173SOPE  C21719648   2.441   3.899   8.796  0.3419  0.4327 -0.0511
  173SOPE  H17R19649   2.403   3.991   8.747  2.5950  1.0663 -0.7259
  173SOPE  H17S19650   2.408   3.813   8.733 -0.2377 -0.8882  1.9420
  173SOPE  C21819651   2.597   3.894   8.795 -0.3822 -0.6902 -0.3185
  173SOPE  H18R19652   2.633   3.990   8.840 -1.9860 -0.0310 -0.3644
  173SOPE  H18S19653   2.635   3.876   8.692 -0.7207  1.0168 -0.7718
  173SOPE  H18T19654   2.623   3.803   8.853  1.2784 -0.3062 -0.4149
  173SOPE   C3319655   2.686   4.586  10.215  0.7276 -0.2188 -1.0523
  173SOPE   H3X19656   2.772   4.637  10.263 -1.1389  1.3953  0.7732
  173SOPE   H3Y19657   2.593   4.645  10.233  0.7053 -0.1880 -1.2678
  173SOPE   C3419658   2.720   4.569  10.068  0.1847 -0.2759 -0.1063
  173SOPE   H4X19659   2.643   4.508  10.016  0.0687 -0.6045  0.4489
  173SOPE   H4Y19660   2.818   4.517  10.063 -0.3887 -1.3340 -0.8986
  173SOPE   C3519661   2.731   4.697   9.994 -0.1028 -0.6840  0.0689
  173SOPE   H5X19662   2.807   4.764  10.040 -1.2705  0.4087  0.4712
  173SOPE   H5Y19663   2.637   4.757   9.990 -0.1720 -0.6408  1.6858
  173SOPE   C3619664   2.780   4.683   9.847 -0.9498  0.5106 -0.1467
  173SOPE   H6X19665   2.829   4.781   9.829 -1.7473  0.8981 -0.2772
  173SOPE   H6Y19666   2.688   4.676   9.785 -0.6286 -0.3479 -0.5396
  173SOPE   C3719667   2.867   4.564   9.827 -0.1169  0.8146  0.0584
  173SOPE   H7X19668   2.816   4.468   9.851  0.0095  0.4611 -1.0555
  173SOPE   H7Y19669   2.961   4.573   9.886 -0.2385 -0.0234  0.3993
  173SOPE   C3819670   2.901   4.541   9.680 -0.4372 -0.0858  0.1547
  173SOPE   H8X19671   2.983   4.468   9.663 -0.7857 -0.4133 -0.1313
  173SOPE   H8Y19672   2.949   4.635   9.645 -1.2466 -0.0252 -0.8497
  173SOPE   C3919673   2.780   4.509   9.590  0.1383  0.1208  0.4200
  173SOPE   H9X19674   2.707   4.592   9.598  0.7261  0.8323 -1.1904
  173SOPE   H9Y19675   2.733   4.417   9.631  1.9492 -1.0171  0.0680
  173SOPE  C31019676   2.823   4.491   9.447  0.0012  0.7717 -0.1491
  173SOPE  H10X19677   2.898   4.410   9.438  1.3378  2.0466 -0.8618
  173SOPE  H10Y19678   2.878   4.579   9.409 -0.0221  1.2815  0.9399
  173SOPE  C31119679   2.698   4.470   9.360  0.1597  0.3857 -1.1731
  173SOPE  H11X19680   2.635   4.562   9.360  2.3577  2.0345  0.9982
  173SOPE  H11Y19681   2.633   4.397   9.413  0.7356 -0.4558 -1.6033
  173SOPE  C31219682   2.738   4.435   9.222 -0.6264  0.8983  0.2474
  173SOPE  H12X19683   2.783   4.333   9.220  1.7623  1.8619  1.5905
  173SOPE  H12Y19684   2.823   4.500   9.195  1.7786 -1.6895  1.1044
  173SOPE  C31319685   2.619   4.456   9.128 -0.7830  1.0185 -0.1255
  173SOPE  H13X19686   2.602   4.566   9.126  0.2209  1.3166  2.8663
  173SOPE  H13Y19687   2.518   4.430   9.167 -0.7967  1.2085 -0.0316
  173SOPE  C31419688   2.630   4.374   8.993  0.1124 -0.8933 -1.2011
  173SOPE  H14X19689   2.654   4.267   9.011  0.0114 -0.6537  0.5200
  173SOPE  H14Y19690   2.720   4.414   8.940  1.3579  1.7624  2.4954
  173SOPE  C31519691   2.501   4.383   8.916  0.2615  0.5835  0.0320
  173SOPE  H15X19692   2.490   4.493   8.900 -0.6639  0.3401 -1.0607
  173SOPE  H15Y19693   2.433   4.336   8.990 -0.5675  0.3476 -0.8611
  173SOPE  C31619694   2.496   4.321   8.771  0.1269 -0.7785  0.5104
  173SOPE  H16X19695   2.516   4.212   8.774 -1.6126 -1.1896 -1.0170
  173SOPE  H16Y19696   2.576   4.372   8.713  1.0763  0.4636  2.7818
  173SOPE  C31719697   2.356   4.329   8.707  0.2637  0.1782  0.1179
  173SOPE  H17X19698   2.312   4.431   8.709 -2.3476 -0.7882 -1.7582
  173SOPE  H17Y19699   2.307   4.268   8.786  1.7305 -0.3284  0.6664
  173SOPE  C31819700   2.349   4.253   8.572 -0.4321  0.3843 -0.1080
  173SOPE  H18X19701   2.249   4.215   8.544  1.2997 -2.4964 -3.0891
  173SOPE  H18Y19702   2.425   4.172   8.573  0.3070  1.0451 -0.4462
  173SOPE  H18Z19703   2.390   4.319   8.491  0.6020  0.4108  0.4188
  174SOPE     N19704   1.942   3.886  11.134 -0.5374  0.2066 -0.3894
  174SOPE   HN119705   2.006   3.959  11.171 -0.2753  1.0597 -2.4168
  174SOPE   HN219706   1.867   3.864  11.203  0.2823  2.3872  1.3363
  174SOPE   HN319707   1.992   3.795  11.123  1.5506  1.0946  1.0452
  174SOPE   C1219708   1.891   3.925  10.998  0.2196  0.4010 -0.5569
  174SOPE  H12A19709   1.799   3.987  11.002 -0.9189 -1.2479  0.3748
  174SOPE  H12B19710   1.858   3.829  10.953  0.9397  0.7521 -1.8848
  174SOPE   C1119711   1.994   4.002  10.923 -0.5327  0.2777 -0.1253
  174SOPE  H11A19712   1.951   4.059  10.838  2.3249  0.7539 -1.3385
  174SOPE  H11B19713   2.065   3.934  10.873 -0.7826  0.4227 -0.6777
  174SOPE     P19714   2.202   4.142  10.990 -0.0341  0.2335  0.1643
  174SOPE   O1319715   2.283   4.033  11.045 -0.0113  0.1085  0.2371
  174SOPE   O1419716   2.219   4.277  11.035  0.4876 -0.2505  0.2838
  174SOPE   O1219717   2.054   4.101  11.013  0.0094 -0.0869 -0.0734
  174SOPE   O1119718   2.204   4.133  10.831  0.3360 -0.4912 -0.1901
  174SOPE    C119719   2.227   4.239  10.743 -0.9131 -0.6469 -0.5858
  174SOPE    HA19720   2.250   4.192  10.645  0.6009 -1.9165  0.3263
  174SOPE    HB19721   2.319   4.297  10.767 -2.5713  0.8655  2.7085
  174SOPE    C219722   2.099   4.320  10.728 -0.2035 -0.3456 -0.0893
  174SOPE    HS19723   2.074   4.357  10.830  3.4623 -1.2831  1.3011
  174SOPE   O2119724   2.000   4.242  10.667 -0.0981  0.0163  0.4074
  174SOPE   C2119725   1.880   4.305  10.663  0.4181 -0.4664 -0.1434
  174SOPE   O2219726   1.860   4.413  10.717  0.3555 -0.6431 -0.1918
  174SOPE   C2219727   1.800   4.239  10.557  0.4778  0.1305 -0.0766
  174SOPE   H2R19728   1.711   4.197  10.609  0.1285  1.9656  0.8708
  174SOPE   H2S19729   1.861   4.162  10.505 -2.5341 -1.6421 -1.3009
  174SOPE    C319730   2.133   4.448  10.634 -0.0165 -0.1023 -0.5712
  174SOPE    HX19731   2.223   4.492  10.682 -0.9402  1.0181  0.2132
  174SOPE    HY19732   2.046   4.517  10.638 -1.5866 -1.8841  4.9107
  174SOPE   O3119733   2.158   4.401  10.503 -0.7938 -0.3219  0.3503
  174SOPE   C3119734   2.245   4.475  10.429 -0.7069  0.5967 -0.3166
  174SOPE   O3219735   2.320   4.560  10.470  0.2172 -0.2754 -0.3030
  174SOPE   C3219736   2.237   4.433  10.288 -0.4975  0.5679  0.1146
  174SOPE   H2X19737   2.148   4.371  10.261 -0.3971  0.4849 -0.0263
  174SOPE   H2Y19738   2.322   4.361  10.280  0.0123  0.9430  1.8605
  174SOPE   C2319739   1.750   4.344  10.443 -0.2388  0.4538 -0.4174
  174SOPE   H3R19740   1.839   4.404  10.414  0.2481 -0.8513 -1.7863
  174SOPE   H3S19741   1.670   4.398  10.497 -1.2593 -1.2715 -0.1360
  174SOPE   C2419742   1.683   4.278  10.316 -0.3248 -0.0708 -0.4920
  174SOPE   H4R19743   1.776   4.236  10.273  0.4346  0.4203  0.6191
  174SOPE   H4S19744   1.619   4.194  10.353  0.8323  0.4846  3.1984
  174SOPE   C2519745   1.619   4.377  10.223  0.3811 -0.5162  0.2455
  174SOPE   H5R19746   1.511   4.376  10.247  0.9691 -1.7823  3.2094
  174SOPE   H5S19747   1.652   4.483  10.228  0.3817 -0.5707  1.7069
  174SOPE   C2619748   1.622   4.321  10.081 -0.1220  0.0009  0.2220
  174SOPE   H6R19749   1.588   4.216  10.092 -2.1621  0.5297 -0.6404
  174SOPE   H6S19750   1.547   4.366  10.012  0.6278  0.4780 -0.2990
  174SOPE   C2719751   1.754   4.316  10.003 -0.1362 -0.2226 -0.5785
  174SOPE   H7R19752   1.838   4.288  10.070 -0.7208  1.1111  0.7709
  174SOPE   H7S19753   1.752   4.235   9.927  0.0406 -0.2676 -0.5364
  174SOPE   C2819754   1.776   4.454   9.926  0.7062  0.8825 -0.2391
  174SOPE   H8R19755   1.697   4.439   9.849 -0.1255  1.1379  0.5450
  174SOPE   H8S19756   1.745   4.537   9.993  0.0681  1.7988 -1.6160
  174SOPE   C2919757   1.912   4.479   9.866 -0.1343 -0.3577 -0.8350
  174SOPE   H9119758   1.986   4.462   9.946 -0.4186  0.8219 -0.2933
  174SOPE  C21019759   1.946   4.517   9.746 -0.3005  0.0681  0.2286
  174SOPE  H10119760   2.051   4.523   9.717 -0.5834 -1.1762 -1.1653
  174SOPE  C21119761   1.846   4.555   9.638 -0.4024  0.0504  0.4857
  174SOPE  H11R19762   1.880   4.649   9.589 -1.3134 -0.5473 -1.3891
  174SOPE  H11S19763   1.743   4.567   9.677 -0.2115  0.3468  0.9102
  174SOPE  C21219764   1.864   4.444   9.528 -0.5567 -0.1918 -0.0740
  174SOPE  H12R19765   1.840   4.347   9.576  1.1361 -0.3196  0.5771
  174SOPE  H12S19766   1.971   4.423   9.510 -0.4545  0.1301  0.1409
  174SOPE  C21319767   1.788   4.487   9.401 -0.1258 -0.3216 -0.3159
  174SOPE  H13R19768   1.828   4.585   9.367 -1.2950 -0.3575 -1.9174
  174SOPE  H13S19769   1.680   4.492   9.426  0.3139 -0.5981  1.8350
  174SOPE  C21419770   1.809   4.384   9.287  0.5523  0.7264  0.3910
  174SOPE  H14R19771   1.770   4.284   9.312 -0.4673  1.7648  3.2818
  174SOPE  H14S19772   1.918   4.379   9.266  0.8079 -0.7186  1.8782
  174SOPE  C21519773   1.753   4.448   9.161  0.1490  0.0088  0.2192
  174SOPE  H15R19774   1.764   4.390   9.067 -2.0870  1.5066 -1.0601
  174SOPE  H15S19775   1.787   4.552   9.144 -0.2798  0.5549  2.3864
  174SOPE  C21619776   1.598   4.459   9.163 -0.9740  0.2812  0.3098
  174SOPE  H16R19777   1.572   4.523   9.250  2.1170  2.4459 -0.1858
  174SOPE  H16S19778   1.551   4.358   9.173 -1.7950  0.7231  1.0610
  174SOPE  C21719779   1.540   4.524   9.036 -0.8627  0.2083 -0.4995
  174SOPE  H17R19780   1.572   4.630   9.038  0.9559 -0.3130  0.2919
  174SOPE  H17S19781   1.432   4.527   9.061 -1.6165 -1.3266 -3.1655
  174SOPE  C21819782   1.565   4.449   8.902 -0.4524 -0.1126  0.6322
  174SOPE  H18R19783   1.674   4.442   8.880 -0.8706 -0.4166 -1.5425
  174SOPE  H18S19784   1.510   4.480   8.811 -1.3903 -0.8671  0.9258
  174SOPE  H18T19785   1.532   4.346   8.924 -1.8471  0.4883  1.4578
  174SOPE   C3319786   2.268   4.538  10.175  0.9054  0.5387 -0.2769
  174SOPE   H3X19787   2.361   4.593  10.199  0.0259  2.3325 -0.7552
  174SOPE   H3Y19788   2.191   4.617  10.164  1.0795  0.6995 -0.3479
  174SOPE   C3419789   2.283   4.477  10.039  0.2726  0.2862  0.5146
  174SOPE   H4X19790   2.201   4.410  10.008  0.2552  0.9363 -0.9437
  174SOPE   H4Y19791   2.373   4.412  10.043 -0.9087 -1.4234  0.2715
  174SOPE   C3519792   2.294   4.585   9.930 -0.0740 -0.1498  0.2984
  174SOPE   H5X19793   2.358   4.663   9.976 -0.4430  0.6734 -0.5442
  174SOPE   H5Y19794   2.192   4.626   9.914 -0.2210 -0.4302  0.5196
  174SOPE   C3619795   2.346   4.535   9.792 -0.8574 -0.3212  0.3729
  174SOPE   H6X19796   2.293   4.452   9.740 -0.6892  0.9402 -1.9425
  174SOPE   H6Y19797   2.444   4.492   9.821 -0.0898  1.2412  0.2128
  174SOPE   C3719798   2.360   4.651   9.677 -0.4203  0.1376  0.0823
  174SOPE   H7X19799   2.464   4.663   9.639  0.7429 -0.0445  2.9608
  174SOPE   H7Y19800   2.331   4.738   9.740 -2.4054 -1.3879  1.4246
  174SOPE   C3819801   2.260   4.636   9.562 -0.6682 -0.5141 -0.5137
  174SOPE   H8X19802   2.262   4.734   9.511 -0.2613  0.1860  0.7913
  174SOPE   H8Y19803   2.157   4.622   9.602 -0.7127  0.2939 -0.3450
  174SOPE   C3919804   2.275   4.522   9.462 -0.0009 -0.5208 -0.1240
  174SOPE   H9X19805   2.258   4.426   9.516 -2.2861  0.2587  0.6429
  174SOPE   H9Y19806   2.382   4.517   9.431  0.0914 -0.5354  0.1922
  174SOPE  C31019807   2.205   4.554   9.326  0.1939 -0.2111  0.4858
  174SOPE  H10X19808   2.270   4.628   9.275  1.7942 -1.0118  1.3163
  174SOPE  H10Y19809   2.101   4.588   9.349  0.9558  2.2178  0.6399
  174SOPE  C31119810   2.197   4.428   9.240 -1.0509 -0.6974 -0.1765
  174SOPE  H11X19811   2.136   4.358   9.300 -0.3047 -0.5708  0.7668
  174SOPE  H11Y19812   2.298   4.392   9.213 -0.2926  0.8301  0.4689
  174SOPE  C31219813   2.126   4.455   9.106  0.7489  0.3427  0.4826
  174SOPE  H12X19814   2.187   4.529   9.050 -0.6954  0.6294 -0.7479
  174SOPE  H12Y19815   2.029   4.508   9.111 -1.3097 -3.1750  0.6051
  174SOPE  C31319816   2.104   4.322   9.034 -0.2014 -0.3311  0.6563
  174SOPE  H13X19817   2.038   4.270   9.106  0.3030 -0.6618  0.8892
  174SOPE  H13Y19818   2.205   4.280   9.015  0.0553  1.3873 -2.3708
  174SOPE  C31419819   2.036   4.344   8.898 -0.0932  0.2790 -0.2830
  174SOPE  H14X19820   2.120   4.388   8.839  2.5828  0.4413  3.3406
  174SOPE  H14Y19821   1.954   4.419   8.903 -0.9054 -0.6832  2.6777
  174SOPE  C31519822   1.988   4.212   8.830 -0.1449 -1.0185 -0.3200
  174SOPE  H15X19823   1.903   4.171   8.888 -1.8542  0.7181 -1.4549
  174SOPE  H15Y19824   2.078   4.147   8.831  0.0977 -0.6828  0.2726
  174SOPE  C31619825   1.965   4.236   8.681 -0.2600  0.0016  0.2532
  174SOPE  H16X19826   1.956   4.145   8.618 -1.1642 -0.2520  0.7321
  174SOPE  H16Y19827   2.061   4.282   8.649 -1.9590  3.2088 -0.5825
  174SOPE  C31719828   1.840   4.317   8.642 -0.8608  0.1089  0.3762
  174SOPE  H17X19829   1.858   4.365   8.543  2.4499  2.6211  1.9830
  174SOPE  H17Y19830   1.828   4.405   8.708  0.9208  0.4346  0.3246
  174SOPE  C31819831   1.711   4.233   8.624  0.3273 -1.0528 -0.3441
  174SOPE  H18X19832   1.633   4.293   8.572 -0.3081 -2.1138 -0.6278
  174SOPE  H18Y19833   1.671   4.204   8.724 -0.3515 -0.4989 -0.4425
  174SOPE  H18Z19834   1.740   4.141   8.571 -2.5519 -1.5724 -1.1812
  175SOPE     N19835   5.185   6.036  10.947  0.0057 -0.3064 -0.5343
  175SOPE   HN119836   5.173   6.094  11.033 -1.7955 -3.1258  1.3001
  175SOPE   HN219837   5.131   5.951  10.974 -0.4479  0.7017  2.0383
  175SOPE   HN319838   5.282   6.006  10.922  0.6114 -0.0705  1.3062
  175SOPE   C1219839   5.117   6.096  10.832 -0.2666  0.0483  0.6695
  175SOPE  H12A19840   5.012   6.125  10.851 -0.2053  1.5514 -0.9877
  175SOPE  H12B19841   5.124   6.029  10.743  1.1956  1.4489 -0.3286
  175SOPE   C1119842   5.193   6.221  10.784 -0.5949 -0.2561 -0.1538
  175SOPE  H11A19843   5.211   6.288  10.871  0.3457 -2.2605  1.2857
  175SOPE  H11B19844   5.127   6.275  10.713  1.4033  0.5850 -1.4525
  175SOPE     P19845   5.345   6.189  10.570  0.2347 -0.1815 -0.2492
  175SOPE   O1319846   5.247   6.091  10.516 -0.1013 -0.4144 -0.3284
  175SOPE   O1419847   5.488   6.176  10.539 -0.1891 -0.2306 -0.5167
  175SOPE   O1219848   5.324   6.192  10.726 -0.0465 -0.1139 -0.3169
  175SOPE   O1119849   5.296   6.326  10.522 -0.4825  0.1533 -0.3526
  175SOPE    C119850   5.341   6.444  10.583 -0.1585  0.6889 -1.0613
  175SOPE    HA19851   5.419   6.438  10.661  0.3638  1.0148 -1.5442
  175SOPE    HB19852   5.252   6.484  10.637  0.4104  0.4676  0.0553
  175SOPE    C219853   5.394   6.544  10.476 -0.0936 -1.2350 -0.7362
  175SOPE    HS19854   5.304   6.566  10.416 -1.2145 -0.5211  1.1113
  175SOPE   O2119855   5.514   6.494  10.404  0.1625 -0.9188  0.4081
  175SOPE   C2119856   5.481   6.401  10.316 -0.0952  0.3915 -0.9237
  175SOPE   O2219857   5.370   6.385  10.266 -0.6163  0.3061 -0.2849
  175SOPE   C2219858   5.611   6.341  10.264 -0.9902 -0.5838  0.0647
  175SOPE   H2R19859   5.589   6.264  10.188  1.5198 -0.5397 -0.7843
  175SOPE   H2S19860   5.666   6.290  10.346 -0.0848 -0.6602 -0.5704
  175SOPE    C319861   5.427   6.679  10.552  0.2778 -0.1088  0.1683
  175SOPE    HX19862   5.518   6.669  10.615  0.4601  0.0349 -0.0726
  175SOPE    HY19863   5.343   6.682  10.625  0.8432 -0.9472  0.8660
  175SOPE   O3119864   5.423   6.796  10.470 -0.7382  0.0407 -0.4038
  175SOPE   C3119865   5.539   6.832  10.423  0.6768  0.1018  0.6379
  175SOPE   O3219866   5.641   6.775  10.448 -0.1994  0.8328  0.4480
  175SOPE   C3219867   5.519   6.943  10.323 -0.6236 -0.2598  0.2901
  175SOPE   H2X19868   5.518   7.038  10.381  2.6396 -0.3672  0.6983
  175SOPE   H2Y19869   5.423   6.947  10.268  0.9509 -2.1702 -2.9232
  175SOPE   C2319870   5.701   6.450  10.194  0.3779 -0.0107 -0.0010
  175SOPE   H3R19871   5.784   6.487  10.258  0.5502  0.2319 -0.3641
  175SOPE   H3S19872   5.646   6.544  10.176  0.3241 -0.6174 -3.7892
  175SOPE   C2419873   5.751   6.389  10.056 -0.2513 -0.1784 -0.4306
  175SOPE   H4R19874   5.828   6.465  10.031 -1.2216  1.0428  0.1052
  175SOPE   H4S19875   5.785   6.284  10.067 -1.4894 -0.6398 -0.8443
  175SOPE   C2519876   5.640   6.380   9.954  0.0896 -0.5942  0.1611
  175SOPE   H5R19877   5.555   6.320   9.994 -2.3056  0.9990 -2.1155
  175SOPE   H5S19878   5.602   6.483   9.939 -1.4977 -1.2102 -0.3235
  175SOPE   C2619879   5.688   6.340   9.812 -0.5275 -0.4389  0.0370
  175SOPE   H6R19880   5.784   6.397   9.804 -0.3557 -0.7350 -0.0297
  175SOPE   H6S19881   5.709   6.231   9.812 -0.1796 -0.4299  2.5671
  175SOPE   C2719882   5.588   6.374   9.711 -0.5970  0.2517  0.4973
  175SOPE   H7R19883   5.497   6.322   9.747 -1.0556  0.9106  0.3090
  175SOPE   H7S19884   5.550   6.478   9.709 -0.0663  0.4993  2.1936
  175SOPE   C2819885   5.625   6.312   9.569 -0.0625  0.2746 -0.2977
  175SOPE   H8R19886   5.704   6.375   9.523 -0.0007  1.4380  1.3272
  175SOPE   H8S19887   5.670   6.213   9.592  0.0825  0.5062  0.4433
  175SOPE   C2919888   5.501   6.310   9.492  0.2196 -0.2122  0.5196
  175SOPE   H9119889   5.414   6.274   9.549  0.8066 -1.3175  0.7500
  175SOPE  C21019890   5.490   6.344   9.360 -0.1064  0.2750  1.0775
  175SOPE  H10119891   5.389   6.341   9.315 -0.6771  0.8217  2.2676
  175SOPE  C21119892   5.597   6.389   9.264 -0.6743  0.0869  1.4106
  175SOPE  H11R19893   5.701   6.351   9.271  0.5411  1.7837 -3.4606
  175SOPE  H11S19894   5.602   6.499   9.275 -1.7976  0.3968 -0.7964
  175SOPE  C21219895   5.568   6.350   9.118  0.4178 -0.4707  0.9180
  175SOPE  H12R19896   5.475   6.402   9.086  0.2860 -0.2848  1.5736
  175SOPE  H12S19897   5.564   6.240   9.107  2.4253 -0.6775  1.7216
  175SOPE  C21319898   5.679   6.391   9.024 -0.0015  0.3536 -0.3592
  175SOPE  H13R19899   5.779   6.363   9.064  0.0551 -1.0154 -1.3655
  175SOPE  H13S19900   5.677   6.501   9.035  0.0773  0.3243 -0.0464
  175SOPE  C21419901   5.655   6.347   8.888 -0.2636 -0.4849  0.6182
  175SOPE  H14R19902   5.545   6.341   8.873 -0.0782 -2.0664 -0.3999
  175SOPE  H14S19903   5.697   6.246   8.868  1.8330  0.5020 -0.2590
  175SOPE  C21519904   5.723   6.436   8.786 -0.6617  0.6277 -0.1782
  175SOPE  H15R19905   5.830   6.414   8.767 -0.5038  1.4522 -0.2942
  175SOPE  H15S19906   5.718   6.541   8.824 -0.6987  0.5469  0.0453
  175SOPE  C21619907   5.658   6.444   8.652  0.2172  0.5477  0.0217
  175SOPE  H16R19908   5.691   6.524   8.582  3.2645  0.3612  1.0876
  175SOPE  H16S19909   5.551   6.469   8.671 -0.1856 -1.1330  0.1210
  175SOPE  C21719910   5.658   6.310   8.580 -0.3776 -0.1265 -0.2281
  175SOPE  H17R19911   5.639   6.234   8.658 -0.4707  1.4982  1.3996
  175SOPE  H17S19912   5.763   6.301   8.543  0.0696  2.7607  0.0700
  175SOPE  C21819913   5.549   6.306   8.478 -0.2130  0.7277 -0.5095
  175SOPE  H18R19914   5.525   6.409   8.445 -0.2403  1.1775  0.8365
  175SOPE  H18S19915   5.453   6.263   8.514 -0.7665  0.9423 -1.6848
  175SOPE  H18T19916   5.588   6.247   8.392  3.2392  1.8478  0.1179
  175SOPE   C3319917   5.636   6.953  10.223  0.1566  0.9142  0.3167
  175SOPE   H3X19918   5.734   6.926  10.269  1.6989  2.0689 -2.0368
  175SOPE   H3Y19919   5.646   7.059  10.190  1.4179  0.4251 -1.0101
  175SOPE   C3419920   5.612   6.870  10.088  0.6418 -0.3308 -0.2389
  175SOPE   H4X19921   5.514   6.906  10.050 -0.7328 -1.9682  1.5998
  175SOPE   H4Y19922   5.600   6.761  10.107 -2.8104  0.0172  0.2153
  175SOPE   C3519923   5.728   6.906   9.996  0.4244  0.6721  0.3740
  175SOPE   H5X19924   5.823   6.899  10.054  0.7136 -1.9069 -0.3025
  175SOPE   H5Y19925   5.717   7.011   9.960  0.2295  1.1331  1.7121
  175SOPE   C3619926   5.737   6.800   9.894 -0.0207 -0.7963 -0.6182
  175SOPE   H6X19927   5.640   6.809   9.841  0.9264 -0.1334 -2.3232
  175SOPE   H6Y19928   5.759   6.700   9.938  0.9991  0.5278  2.1259
  175SOPE   C3719929   5.843   6.827   9.783  0.1655  0.3555 -0.0534
  175SOPE   H7X19930   5.945   6.828   9.827 -0.1437  1.3770  0.6847
  175SOPE   H7Y19931   5.818   6.924   9.734  0.3643 -0.1382 -1.1765
  175SOPE   C3819932   5.830   6.713   9.681 -0.4480 -0.0905 -0.8081
  175SOPE   H8X19933   5.728   6.705   9.637  0.1484 -0.8928 -2.0754
  175SOPE   H8Y19934   5.853   6.618   9.734 -0.2441  1.1851  1.5139
  175SOPE   C3919935   5.927   6.726   9.565 -0.0461  0.1674 -0.8413
  175SOPE   H9X19936   6.026   6.697   9.607 -0.6423  0.5709  0.8906
  175SOPE   H9Y19937   5.944   6.833   9.541 -1.9460  1.0604  1.4376
  175SOPE  C31019938   5.907   6.620   9.454  0.0363  0.0914  0.0781
  175SOPE  H10X19939   5.799   6.615   9.430 -0.7044  0.1530  2.9926
  175SOPE  H10Y19940   5.945   6.522   9.492  1.0520 -0.1007 -1.3489
  175SOPE  C31119941   5.989   6.651   9.327  0.0456  0.9494 -0.0814
  175SOPE  H11X19942   5.987   6.556   9.269 -0.5923  1.4302 -0.8742
  175SOPE  H11Y19943   6.097   6.672   9.343  0.7967 -1.3380 -1.6182
  175SOPE  C31219944   5.926   6.760   9.238 -0.0956  0.4420 -0.3093
  175SOPE  H12X19945   5.922   6.847   9.307 -0.4622  0.9704 -0.9847
  175SOPE  H12Y19946   5.824   6.726   9.210  1.2256 -2.7872 -1.6899
  175SOPE  C31319947   6.016   6.792   9.113 -0.2314  0.1303 -0.9560
  175SOPE  H13X19948   6.124   6.786   9.136 -0.0006  0.6520 -1.8547
  175SOPE  H13Y19949   5.995   6.893   9.073  3.3071  0.2207 -3.0005
  175SOPE  C31419950   5.985   6.694   8.998 -0.1545  0.1911 -0.6734
  175SOPE  H14X19951   5.876   6.705   8.979 -0.3327 -0.3897  0.0098
  175SOPE  H14Y19952   6.001   6.591   9.036  0.8157  0.4399 -0.3922
  175SOPE  C31519953   6.057   6.725   8.867 -0.5362  0.0096 -0.3286
  175SOPE  H15X19954   6.166   6.702   8.870 -0.4485 -0.0899 -2.4110
  175SOPE  H15Y19955   6.045   6.835   8.851 -2.1272  0.2701  2.2503
  175SOPE  C31619956   5.999   6.656   8.747  0.5674  0.6349  0.3511
  175SOPE  H16X19957   5.890   6.670   8.761  0.5881  2.1610 -0.7563
  175SOPE  H16Y19958   6.027   6.549   8.752  1.9881  1.0281  1.2000
  175SOPE  C31719959   6.030   6.714   8.605  0.2848 -0.0482  0.1679
  175SOPE  H17X19960   6.137   6.697   8.584 -0.3110 -0.9143 -2.6238
  175SOPE  H17Y19961   6.014   6.823   8.618  0.5080 -0.3506  3.9701
  175SOPE  C31819962   5.950   6.661   8.489 -0.0368 -0.4903 -1.4619
  175SOPE  H18X19963   5.970   6.553   8.501 -1.4833 -0.5880  0.6108
  175SOPE  H18Y19964   5.971   6.694   8.385 -0.7420  0.4206 -1.3389
  175SOPE  H18Z19965   5.840   6.680   8.494 -0.8686 -4.7914  1.8812
  176SOPE     N19966   4.423   5.876  10.607  0.9969  0.0086  0.6274
  176SOPE   HN119967   4.497   5.904  10.675  2.4418 -1.2357 -0.3646
  176SOPE   HN219968   4.426   5.952  10.536  2.9759 -0.8885 -0.3225
  176SOPE   HN319969   4.326   5.867  10.643  0.9377 -1.3873  0.1928
  176SOPE   C1219970   4.460   5.751  10.548  0.5612  0.4650  0.4227
  176SOPE  H12A19971   4.559   5.763  10.499  0.6062 -0.4196  0.2771
  176SOPE  H12B19972   4.386   5.732  10.467  0.7359  3.6128 -0.6406
  176SOPE   C1119973   4.467   5.628  10.641  0.1178  0.0614  0.1095
  176SOPE  H11A19974   4.486   5.548  10.566 -0.4009 -0.6861  0.7587
  176SOPE  H11B19975   4.377   5.602  10.701 -0.6418 -2.6582 -1.9694
  176SOPE     P19976   4.681   5.515  10.754  0.3010 -0.4357 -0.5137
  176SOPE   O1319977   4.605   5.412  10.833  0.0706 -0.5250 -0.6227
  176SOPE   O1419978   4.803   5.577  10.810  0.1571 -0.8129  0.0933
  176SOPE   O1219979   4.578   5.639  10.730  0.2234 -0.1577  0.3138
  176SOPE   O1119980   4.703   5.465  10.604 -0.1364  0.0389  0.2861
  176SOPE    C119981   4.708   5.322  10.577 -0.1694 -0.1557 -0.6307
  176SOPE    HA19982   4.697   5.255  10.665 -0.9025 -0.3789 -0.8872
  176SOPE    HB19983   4.804   5.299  10.526  0.4865 -1.3569  1.0562
  176SOPE    C219984   4.607   5.278  10.475  0.6191  0.4004  0.1315
  176SOPE    HS19985   4.633   5.187  10.417 -0.9225  0.8442 -1.3513
  176SOPE   O2119986   4.588   5.388  10.383 -0.2271 -0.3430  0.0107
  176SOPE   C2119987   4.690   5.406  10.294 -0.0315 -0.3935  0.0042
  176SOPE   O2219988   4.798   5.341  10.294  0.9171  0.1773  0.5082
  176SOPE   C2219989   4.653   5.524  10.210 -0.1890 -0.1209 -0.1977
  176SOPE   H2R19990   4.746   5.544  10.154 -1.3159  3.0125 -1.1499
  176SOPE   H2S19991   4.620   5.611  10.272 -0.5364  0.1194 -0.7095
  176SOPE    C319992   4.472   5.244  10.541 -0.1965  0.6960  0.4821
  176SOPE    HX19993   4.437   5.335  10.596 -0.5768  1.5378 -1.1035
  176SOPE    HY19994   4.492   5.163  10.614  0.1044  3.0061  3.1476
  176SOPE   O3119995   4.370   5.203  10.441 -0.2319 -0.5519  0.0784
  176SOPE   C3119996   4.277   5.299  10.419  0.4987 -0.1204 -0.0500
  176SOPE   O3219997   4.239   5.376  10.502  0.1150  0.0542  0.4276
  176SOPE   C3219998   4.207   5.267  10.285 -0.5711 -0.3991  0.6861
  176SOPE   H2X19999   4.187   5.157  10.280 -1.9726 -0.1136 -0.4350
  176SOPE   H2Y20000   4.269   5.302  10.200 -3.4228 -0.9465 -1.7273
  176SOPE   C2320001   4.537   5.501  10.109 -0.0670  0.3173 -0.0441
  176SOPE   H3R20002   4.531   5.600  10.060 -1.2280  0.7897  0.9891
  176SOPE   H3S20003   4.445   5.470  10.163  0.8077 -2.7511 -0.1189
  176SOPE   C2420004   4.584   5.393  10.005  0.2924  0.5516 -0.0527
  176SOPE   H4R20005   4.663   5.438   9.941  0.0483  2.2415  0.7832
  176SOPE   H4S20006   4.629   5.308  10.060 -3.1268  0.0317  2.1925
  176SOPE   C2520007   4.473   5.341   9.915 -0.3569  0.3152 -0.3927
  176SOPE   H5R20008   4.384   5.314   9.976  0.7218  0.1255  1.1541
  176SOPE   H5S20009   4.447   5.433   9.857  1.7653  1.4055  0.2792
  176SOPE   C2620010   4.538   5.231   9.823  0.2246  0.7696 -0.5224
  176SOPE   H6R20011   4.640   5.264   9.793  0.8236  1.0760  1.6665
  176SOPE   H6S20012   4.543   5.132   9.873 -0.0374  0.2474 -1.4938
  176SOPE   C2720013   4.452   5.215   9.693  0.4129  0.5921 -0.8909
  176SOPE   H7R20014   4.356   5.167   9.722  1.5138  1.1392  4.7913
  176SOPE   H7S20015   4.432   5.319   9.659  3.2004  1.3528 -0.4585
  176SOPE   C2820016   4.520   5.130   9.585 -0.3465 -0.4760 -0.5202
  176SOPE   H8R20017   4.565   5.037   9.626 -1.2232 -0.7681 -0.1981
  176SOPE   H8S20018   4.434   5.100   9.521 -0.9741  1.2724 -0.5557
  176SOPE   C2920019   4.621   5.216   9.502 -0.1294  0.5386  0.2671
  176SOPE   H9120020   4.712   5.236   9.560  0.4402 -2.0556  0.4110
  176SOPE  C21020021   4.603   5.251   9.371 -0.1899  0.3525 -0.4031
  176SOPE  H10120022   4.674   5.316   9.319 -0.2739 -1.3430 -2.7637
  176SOPE  C21120023   4.490   5.232   9.282  0.4697  0.7045  0.9051
  176SOPE  H11R20024   4.463   5.329   9.235  2.8754  1.8226  1.6935
  176SOPE  H11S20025   4.403   5.182   9.331  0.7853  0.0721  0.8374
  176SOPE  C21220026   4.539   5.138   9.166  0.2825  0.3618 -0.8295
  176SOPE  H12R20027   4.554   5.040   9.215 -2.6304  1.1165  1.9033
  176SOPE  H12S20028   4.632   5.182   9.124 -0.1328  3.1873  0.9084
  176SOPE  C21320029   4.428   5.124   9.058 -0.1501  0.0619 -0.1265
  176SOPE  H13R20030   4.402   5.227   9.026  0.0554 -0.2159 -1.2205
  176SOPE  H13S20031   4.335   5.077   9.097  0.9293 -3.0961 -1.0346
  176SOPE  C21420032   4.472   5.021   8.948  0.9675  1.4070  0.4125
  176SOPE  H14R20033   4.493   4.929   9.007 -1.1202  0.6530  0.0821
  176SOPE  H14S20034   4.564   5.059   8.899 -0.9864  2.0556 -3.1221
  176SOPE  C21520035   4.367   4.988   8.836  0.0259 -0.0818 -0.5103
  176SOPE  H15R20036   4.318   5.082   8.804 -1.2432 -0.1622  1.0962
  176SOPE  H15S20037   4.293   4.914   8.872  0.0827  0.0013 -0.2221
  176SOPE  C21620038   4.430   4.927   8.712 -0.1211  0.6008 -0.0906
  176SOPE  H16R20039   4.517   4.989   8.683  1.4339 -1.6241 -0.3930
  176SOPE  H16S20040   4.357   4.923   8.629 -0.2179 -1.4356  0.0366
  176SOPE  C21720041   4.478   4.785   8.721  0.8788 -0.5608  0.2928
  176SOPE  H17R20042   4.395   4.719   8.753  1.4044 -0.7686  1.2886
  176SOPE  H17S20043   4.560   4.781   8.796  1.2765  0.6713 -0.0435
  176SOPE  C21820044   4.531   4.729   8.587  0.2466  0.2369  0.2732
  176SOPE  H18R20045   4.596   4.798   8.530  0.3581  0.2384  0.4032
  176SOPE  H18S20046   4.451   4.693   8.518  0.4986  0.1263  0.0329
  176SOPE  H18T20047   4.587   4.634   8.601  0.7689  0.3763 -0.7564
  176SOPE   C3320048   4.065   5.329  10.261 -0.0731 -0.0096 -0.2701
  176SOPE   H3X20049   4.081   5.437  10.238 -1.0302 -0.0867 -1.3801
  176SOPE   H3Y20050   4.016   5.326  10.361  3.2435  3.2036  1.7675
  176SOPE   C3420051   3.977   5.264  10.157  0.3220  0.5069 -0.4704
  176SOPE   H4X20052   3.899   5.336  10.124  0.8583 -0.1112 -3.3708
  176SOPE   H4Y20053   3.926   5.180  10.210  2.4293 -0.1980  0.5284
  176SOPE   C3520054   4.040   5.210  10.029  0.2484 -0.2466  0.0619
  176SOPE   H5X20055   4.133   5.156  10.055 -0.1127  0.0462  2.1352
  176SOPE   H5Y20056   4.060   5.302   9.969 -1.0701 -0.0644 -0.1370
  176SOPE   C3620057   3.941   5.114   9.954 -0.2281 -0.2224 -0.3149
  176SOPE   H6X20058   3.842   5.157   9.926 -0.2465 -0.3567 -0.4567
  176SOPE   H6Y20059   3.915   5.037  10.029  1.7107  0.6719  1.3961
  176SOPE   C3720060   3.999   5.060   9.817  0.2818  0.5454 -0.6537
  176SOPE   H7X20061   3.927   4.986   9.776  0.9529 -2.4920  3.0114
  176SOPE   H7Y20062   4.096   5.010   9.838  1.4747  2.0195 -2.3729
  176SOPE   C3820063   4.016   5.166   9.708 -0.3103 -0.6698 -0.5857
  176SOPE   H8X20064   4.105   5.221   9.745  1.0934 -2.7894 -0.6185
  176SOPE   H8Y20065   3.931   5.237   9.718 -0.6561 -0.9689 -1.3598
  176SOPE   C3920066   4.041   5.104   9.569 -0.2159 -0.5933 -0.2815
  176SOPE   H9X20067   3.970   5.023   9.543 -2.7740  1.5239 -0.2771
  176SOPE   H9Y20068   4.144   5.064   9.581  1.2446  2.6386 -0.8084
  176SOPE  C31020069   4.055   5.207   9.450 -0.2568  0.6418 -0.4489
  176SOPE  H10X20070   4.145   5.271   9.460  1.0934 -1.2200 -0.1482
  176SOPE  H10Y20071   3.968   5.277   9.449 -1.6339 -0.9816 -0.3791
  176SOPE  C31120072   4.077   5.127   9.320 -0.4669  1.4704  0.4367
  176SOPE  H11X20073   3.989   5.060   9.308  1.0594 -0.4641 -0.3302
  176SOPE  H11Y20074   4.165   5.061   9.313 -0.9227  0.8841  0.1262
  176SOPE  C31220075   4.080   5.221   9.196  0.1821  0.4829 -0.3864
  176SOPE  H12X20076   4.172   5.283   9.193  1.2773 -1.0994 -1.5932
  176SOPE  H12Y20077   3.997   5.291   9.219 -1.1366 -1.5195  1.3914
  176SOPE  C31320078   4.035   5.152   9.066 -0.5010 -0.2226  0.2905
  176SOPE  H13X20079   3.927   5.125   9.063 -0.5724  0.0727  0.2245
  176SOPE  H13Y20080   4.090   5.057   9.048 -0.0544 -0.2950  1.8719
  176SOPE  C31420081   4.050   5.246   8.941  0.1279  0.2903 -0.6879
  176SOPE  H14X20082   4.157   5.268   8.922  0.4734  1.1385  1.7911
  176SOPE  H14Y20083   4.007   5.344   8.970  0.9511  0.8246 -1.2038
  176SOPE  C31520084   3.983   5.191   8.819 -0.4950  0.0123 -0.0845
  176SOPE  H15X20085   3.890   5.134   8.841 -1.0205  0.2487 -1.6038
  176SOPE  H15Y20086   4.062   5.138   8.762  1.2918 -0.2557  2.4438
  176SOPE  C31620087   3.942   5.306   8.734  0.0233  0.6492  0.2218
  176SOPE  H16X20088   4.029   5.356   8.686 -0.8125  1.3513 -0.6002
  176SOPE  H16Y20089   3.896   5.385   8.798  1.8190  2.0721 -0.1520
  176SOPE  C31720090   3.835   5.269   8.629 -0.0303 -0.7978 -0.1872
  176SOPE  H17X20091   3.747   5.226   8.681 -0.6926  1.4284  0.6734
  176SOPE  H17Y20092   3.866   5.190   8.557 -4.4610 -2.5332 -0.5211
  176SOPE  C31820093   3.770   5.391   8.571  0.5819 -0.3388  0.5161
  176SOPE  H18X20094   3.687   5.371   8.500  1.3265 -1.3825 -0.0798
  176SOPE  H18Y20095   3.846   5.448   8.513 -0.5536  1.0507  0.3351
  176SOPE  H18Z20096   3.738   5.458   8.653 -0.1718  1.9435 -1.5010
  177SOPE     N20097   2.501   3.178  10.725 -0.2759  0.0480 -0.3351
  177SOPE   HN120098   2.460   3.273  10.715  0.7914  0.5098 -0.4051
  177SOPE   HN220099   2.535   3.159  10.628 -1.5831 -0.2693 -0.7508
  177SOPE   HN320100   2.431   3.107  10.756  0.2332 -0.8837 -1.2393
  177SOPE   C1220101   2.611   3.183  10.822  0.4920  0.7838  0.6624
  177SOPE  H12A20102   2.673   3.273  10.803  1.3640 -0.1523 -1.1824
  177SOPE  H12B20103   2.674   3.092  10.820  0.7980  0.9494  1.8482
  177SOPE   C1120104   2.570   3.205  10.971 -0.1819  0.1379  0.1718
  177SOPE  H11A20105   2.656   3.258  11.017 -0.6978  0.4956  0.7480
  177SOPE  H11B20106   2.557   3.108  11.024 -0.1508 -0.2711 -0.5596
  177SOPE     P20107   2.433   3.436  10.999 -0.0291  0.0196  0.3585
  177SOPE   O1320108   2.535   3.497  11.085 -0.4849  0.4698  0.3804
  177SOPE   O1420109   2.292   3.472  11.020  0.4458 -0.7559 -0.4588
  177SOPE   O1220110   2.454   3.285  10.991 -0.0671 -0.6173  0.1777
  177SOPE   O1120111   2.471   3.471  10.848 -0.5423 -0.2098  0.0451
  177SOPE    C120112   2.387   3.553  10.766  1.0250 -0.3638  0.6100
  177SOPE    HA20113   2.406   3.660  10.790 -3.2246  0.3388  1.5623
  177SOPE    HB20114   2.278   3.535  10.777  0.8700  0.3300  0.2602
  177SOPE    C220115   2.417   3.521  10.615 -0.0252  0.0726 -0.9972
  177SOPE    HS20116   2.365   3.600  10.557 -2.1259  1.2114  2.1724
  177SOPE   O2120117   2.365   3.386  10.588 -0.1989 -0.4344  0.6074
  177SOPE   C2120118   2.235   3.373  10.547  0.0671 -0.9247 -0.3049
  177SOPE   O2220119   2.156   3.463  10.531 -0.1175 -0.5945 -0.4167
  177SOPE   C2220120   2.203   3.231  10.528 -0.0790 -0.5397 -0.2695
  177SOPE   H2R20121   2.171   3.190  10.626 -1.5316  0.3249 -0.3715
  177SOPE   H2S20122   2.289   3.166  10.498  0.0860 -1.4605  2.0193
  177SOPE    C320123   2.571   3.521  10.587  1.1459  0.9855 -0.5620
  177SOPE    HX20124   2.626   3.474  10.671  1.4023 -0.8441 -1.7128
  177SOPE    HY20125   2.607   3.626  10.590 -1.4716  1.9749 -0.5411
  177SOPE   O3120126   2.609   3.434  10.476  0.1076 -0.1383  0.1526
  177SOPE   C3120127   2.586   3.489  10.358 -1.1375 -0.1487  0.3228
  177SOPE   O3220128   2.537   3.601  10.339  0.5228  0.4423  0.1207
  177SOPE   C3220129   2.630   3.385  10.250  0.0389 -0.1896 -0.6672
  177SOPE   H2X20130   2.567   3.294  10.257 -1.9004  1.1567  0.2699
  177SOPE   H2Y20131   2.739   3.363  10.247 -0.2377 -2.0075  0.8180
  177SOPE   C2320132   2.080   3.199  10.434 -0.9254  0.5927  0.5474
  177SOPE   H3R20133   2.098   3.263  10.344  4.2355 -0.5768  0.4392
  177SOPE   H3S20134   1.984   3.230  10.480 -0.3735 -0.0375  2.1820
  177SOPE   C2420135   2.079   3.048  10.402 -0.4794  0.1836  0.0279
  177SOPE   H4R20136   2.166   3.017  10.341 -0.4477 -0.2911  0.3094
  177SOPE   H4S20137   2.090   2.986  10.493  1.4105 -1.2373 -1.1023
  177SOPE   C2520138   1.952   3.016  10.326 -0.3585  0.0353  0.4644
  177SOPE   H5R20139   1.861   3.046  10.383  1.0212  1.3788  2.0942
  177SOPE   H5S20140   1.950   3.082  10.237 -0.8767 -1.5963 -0.7770
  177SOPE   C2620141   1.952   2.869  10.276  0.2746  0.5574  0.0468
  177SOPE   H6R20142   2.025   2.860  10.193  0.7283  1.5451  0.3289
  177SOPE   H6S20143   1.981   2.791  10.350  0.7713 -0.9808 -1.6912
  177SOPE   C2720144   1.811   2.827  10.230 -0.0398 -0.2985  0.0669
  177SOPE   H7R20145   1.755   2.810  10.324  1.7943 -0.2305  1.2299
  177SOPE   H7S20146   1.774   2.901  10.156  2.5998 -2.1046 -3.3773
  177SOPE   C2820147   1.812   2.690  10.163  0.2653  0.3487 -0.4945
  177SOPE   H8R20148   1.877   2.692  10.072  1.9283  0.9250  0.6620
  177SOPE   H8S20149   1.842   2.616  10.240 -0.5932 -2.2019 -2.4491
  177SOPE   C2920150   1.665   2.662  10.122 -0.1620  0.3382 -0.6094
  177SOPE   H9120151   1.586   2.704  10.186  0.1209 -1.8255  1.2989
  177SOPE  C21020152   1.619   2.596  10.017  0.0529  0.6600  0.0825
  177SOPE  H10120153   1.514   2.593   9.983  0.6936  1.9063 -2.2430
  177SOPE  C21120154   1.706   2.532   9.918 -0.4310  0.3674  1.1143
  177SOPE  H11R20155   1.812   2.532   9.950  0.2590  0.0001 -1.0039
  177SOPE  H11S20156   1.709   2.569   9.813 -1.0921  0.4889  1.1349
  177SOPE  C21220157   1.674   2.381   9.898 -0.4312  0.6980 -0.2830
  177SOPE  H12R20158   1.565   2.368   9.879 -0.3866 -0.7834  0.3702
  177SOPE  H12S20159   1.702   2.329   9.992 -2.1920 -0.8833 -0.5810
  177SOPE  C21320160   1.748   2.323   9.779  0.1244 -0.2043  0.0194
  177SOPE  H13R20161   1.857   2.343   9.787  0.3197 -1.7230  2.1609
  177SOPE  H13S20162   1.710   2.379   9.691 -2.0011 -0.2164  0.8597
  177SOPE  C21420163   1.731   2.168   9.758 -0.0701 -0.2153 -0.2951
  177SOPE  H14R20164   1.624   2.154   9.733  0.0283 -0.7689 -0.4077
  177SOPE  H14S20165   1.750   2.120   9.856  0.7741 -1.2558 -0.9456
  177SOPE  C21520166   1.837   2.116   9.658  0.0406 -0.0055 -0.0385
  177SOPE  H15R20167   1.843   2.005   9.651 -1.0146 -0.1554  1.1978
  177SOPE  H15S20168   1.938   2.152   9.686  0.6381  0.9019 -3.0029
  177SOPE  C21620169   1.825   2.163   9.515  0.3990  0.5813 -0.0271
  177SOPE  H16R20170   1.846   2.272   9.503  1.1518  0.2001 -3.0283
  177SOPE  H16S20171   1.716   2.155   9.493  0.4401  1.6844 -0.7579
  177SOPE  C21720172   1.910   2.087   9.415  0.2315 -0.0877 -0.4578
  177SOPE  H17R20173   1.888   2.128   9.314 -2.0363  1.7005  0.6915
  177SOPE  H17S20174   1.888   1.978   9.414  0.9245 -0.2582  0.7743
  177SOPE  C21820175   2.058   2.108   9.440 -0.7463  0.4863  0.7932
  177SOPE  H18R20176   2.121   2.082   9.352 -1.7868 -1.7315  0.6400
  177SOPE  H18S20177   2.078   2.045   9.530 -1.5859 -1.1438 -0.1081
  177SOPE  H18T20178   2.066   2.216   9.464 -4.0444  1.2239 -0.8402
  177SOPE   C3320179   2.585   3.430  10.117 -0.3505  0.0286 -0.7166
  177SOPE   H3X20180   2.630   3.528  10.089 -0.3613 -0.4974 -2.7181
  177SOPE   H3Y20181   2.475   3.435  10.101  0.0908  1.6145 -4.4161
  177SOPE   C3420182   2.620   3.318  10.009  0.6884  0.0319 -0.0994
  177SOPE   H4X20183   2.575   3.220  10.034 -0.7827  0.1504 -2.0268
  177SOPE   H4Y20184   2.730   3.307   9.997  0.5372 -0.1502 -1.5557
  177SOPE   C3520185   2.559   3.350   9.875 -1.4063  0.6272 -0.1235
  177SOPE   H5X20186   2.604   3.447   9.844 -0.2666  2.5413  6.0724
  177SOPE   H5Y20187   2.450   3.368   9.887 -1.0659  3.9214 -0.9214
  177SOPE   C3620188   2.584   3.242   9.770  0.3943 -0.4667 -0.5625
  177SOPE   H6X20189   2.535   3.151   9.810  0.7376  0.1417  1.3809
  177SOPE   H6Y20190   2.693   3.224   9.761  0.6473  0.5434  0.2520
  177SOPE   C3720191   2.535   3.282   9.632  0.1828  0.0900 -0.4280
  177SOPE   H7X20192   2.598   3.368   9.602  1.4823  0.0121  1.8611
  177SOPE   H7Y20193   2.428   3.313   9.635  0.4106  0.8635  0.2121
  177SOPE   C3820194   2.555   3.168   9.528  0.1187 -0.7775  0.9457
  177SOPE   H8X20195   2.663   3.140   9.519 -0.1276 -1.3319 -0.6258
  177SOPE   H8Y20196   2.529   3.206   9.427  1.9598  1.4700  1.2312
  177SOPE   C3920197   2.464   3.047   9.558  0.1193 -0.6165  0.7480
  177SOPE   H9X20198   2.468   3.025   9.667 -2.2205 -0.5796  0.9090
  177SOPE   H9Y20199   2.509   2.958   9.510 -1.7000 -1.5136  0.6165
  177SOPE  C31020200   2.317   3.055   9.511 -0.1637 -0.1226 -0.2595
  177SOPE  H10X20201   2.261   3.131   9.570 -1.0240  0.1740 -1.4396
  177SOPE  H10Y20202   2.262   2.961   9.534 -2.1535  0.5345 -1.9821
  177SOPE  C31120203   2.301   3.085   9.360 -0.1863 -0.2779 -0.4789
  177SOPE  H11X20204   2.381   3.039   9.297  1.5986  1.9675 -0.0180
  177SOPE  H11Y20205   2.333   3.190   9.339  0.3405 -0.5069 -0.8676
  177SOPE  C31220206   2.162   3.065   9.313  0.8857  0.5069  0.9007
  177SOPE  H12X20207   2.105   3.151   9.354  0.4997  0.4005  0.5872
  177SOPE  H12Y20208   2.138   2.964   9.354 -1.4875  0.4918 -0.3583
  177SOPE  C31320209   2.135   3.055   9.164  0.0912 -0.2456 -0.0510
  177SOPE  H13X20210   2.108   3.156   9.127  0.4825 -0.7168 -1.7017
  177SOPE  H13Y20211   2.046   2.994   9.136 -0.0103  0.3836 -1.1539
  177SOPE  C31420212   2.256   3.007   9.075 -0.0805 -0.9753 -0.5267
  177SOPE  H14X20213   2.273   2.901   9.105  0.7522 -0.8768 -0.6219
  177SOPE  H14Y20214   2.345   3.071   9.096 -0.7157  0.7225 -2.6701
  177SOPE  C31520215   2.232   3.019   8.921 -0.0682  0.6021  0.3180
  177SOPE  H15X20216   2.129   2.985   8.898  0.8022  0.1326 -3.5284
  177SOPE  H15Y20217   2.298   2.945   8.871 -2.2231 -1.1200 -0.1570
  177SOPE  C31620218   2.254   3.157   8.861 -0.2417  0.5653  0.0539
  177SOPE  H16X20219   2.363   3.168   8.842  0.1152 -1.4947  0.6634
  177SOPE  H16Y20220   2.243   3.240   8.934  0.4446  0.3043  0.4682
  177SOPE  C31720221   2.171   3.178   8.734  0.1098 -1.1243 -0.3834
  177SOPE  H17X20222   2.061   3.177   8.749  0.1357  0.4381  0.0115
  177SOPE  H17Y20223   2.193   3.094   8.665  1.5382 -0.8000 -0.3640
  177SOPE  C31820224   2.208   3.306   8.654  0.2697  1.0066 -0.1012
  177SOPE  H18X20225   2.156   3.303   8.555 -1.1402 -1.1124  0.6188
  177SOPE  H18Y20226   2.318   3.319   8.650  0.3823  0.0609 -0.3528
  177SOPE  H18Z20227   2.155   3.384   8.713 -1.2750 -0.5677  0.6770
  178SOPE     N20228   0.261   0.142  10.704  0.6998 -0.7272 -0.3588
  178SOPE   HN120229   0.341   0.101  10.652  0.4996  0.2748 -1.4973
  178SOPE   HN220230   0.208   0.076  10.764 -1.6976  0.4882 -1.0301
  178SOPE   HN320231   0.203   0.186  10.630  1.8522  3.3188  0.8359
  178SOPE   C1220232   0.318   0.246  10.792  0.2835 -0.8401 -0.1379
  178SOPE  H12A20233   0.310   0.336  10.727 -0.6317 -0.6763  0.1920
  178SOPE  H12B20234   0.427   0.228  10.806  0.3726  0.7520  1.6517
  178SOPE   C1120235   0.235   0.259  10.920 -0.3996  0.2166  0.1495
  178SOPE  H11A20236   0.292   0.326  10.988  1.6569 -0.4111 -0.8795
  178SOPE  H11B20237   0.240   0.164  10.977  1.8135  0.3315  0.2544
  178SOPE     P20238   0.015   0.381  10.990  0.2022 -0.1559  0.3774
  178SOPE   O1320239   0.062   0.348  11.125 -0.5290  0.3228 -0.0759
  178SOPE   O1420240  -0.130   0.340  10.974 -0.0820 -0.4473  0.5832
  178SOPE   O1220241   0.102   0.302  10.891  0.1619 -0.3237  0.1494
  178SOPE   O1120242   0.028   0.529  10.951  1.0350 -0.8805 -0.0957
  178SOPE    C120243   0.099   0.577  10.834 -0.5693 -0.0510  0.2814
  178SOPE    HA20244   0.203   0.540  10.839 -0.9890 -1.1407  1.3090
  178SOPE    HB20245   0.116   0.687  10.840 -0.6122 -0.0686  0.7746
  178SOPE    C220246   0.026   0.561  10.696 -0.0869  0.0255  0.1933
  178SOPE    HS20247   0.026   0.451  10.683  0.3136  0.2155 -1.6127
  178SOPE   O2120248   0.095   0.640  10.596 -0.4667 -0.1118  0.1017
  178SOPE   C2120249   0.196   0.575  10.539  0.1335 -0.0558  0.6605
  178SOPE   O2220250   0.222   0.456  10.547  0.3073 -0.8068  0.0901
  178SOPE   C2220251   0.264   0.661  10.435 -0.0658 -1.2090 -0.4560
  178SOPE   H2R20252   0.313   0.743  10.493 -0.5837 -1.5394  0.4749
  178SOPE   H2S20253   0.196   0.711  10.363  0.3361 -0.0902 -0.0896
  178SOPE    C320254  -0.118   0.608  10.700  0.3134 -0.3004 -0.1003
  178SOPE    HX20255  -0.112   0.715  10.727  1.9824 -0.0473 -1.3243
  178SOPE    HY20256  -0.172   0.559  10.784 -0.0926  1.4827  0.7155
  178SOPE   O3120257  -0.190   0.593  10.576 -0.8208 -0.0955 -0.0366
  178SOPE   C3120258  -0.244   0.473  10.539 -0.7276 -0.1537 -0.9661
  178SOPE   O3220259  -0.250   0.372  10.607  0.0736  0.4068 -0.0066
  178SOPE   C3220260  -0.296   0.501  10.399  1.0150 -0.1908  0.5280
  178SOPE   H2X20261  -0.326   0.608  10.393  2.6459  0.3084  0.9455
  178SOPE   H2Y20262  -0.387   0.441  10.376 -0.5893  1.2894  2.5934
  178SOPE   C2320263   0.367   0.585  10.340 -0.6210 -0.0055  0.3502
  178SOPE   H3R20264   0.430   0.516  10.401  1.2988  0.0869 -1.4017
  178SOPE   H3S20265   0.438   0.660  10.300 -1.1963  0.4488  0.1869
  178SOPE   C2420266   0.303   0.503  10.231  0.2060 -0.3862 -0.6362
  178SOPE   H4R20267   0.224   0.438  10.275  0.5070 -1.7790 -2.0359
  178SOPE   H4S20268   0.244   0.569  10.165  1.1021 -0.4635 -1.5360
  178SOPE   C2520269   0.400   0.416  10.152 -0.2571  0.6029  0.1352
  178SOPE   H5R20270   0.469   0.482  10.096 -0.9038  0.5068 -0.8109
  178SOPE   H5S20271   0.444   0.345  10.224 -3.7725 -1.4371  0.4974
  178SOPE   C2620272   0.338   0.322  10.053  0.8193 -0.5313  0.2225
  178SOPE   H6R20273   0.407   0.240  10.025  0.0180 -1.1660  0.0858
  178SOPE   H6S20274   0.255   0.268  10.103  0.0646 -2.3993 -2.7671
  178SOPE   C2720275   0.284   0.397   9.927  0.1880  0.3205  0.7174
  178SOPE   H7R20276   0.173   0.391   9.922  0.2550  0.1480 -1.6721
  178SOPE   H7S20277   0.319   0.502   9.926  2.3532 -0.3719  0.2388
  178SOPE   C2820278   0.329   0.334   9.792 -0.4622  0.3547  0.0230
  178SOPE   H8R20279   0.311   0.224   9.798 -0.2065  0.2118 -1.3790
  178SOPE   H8S20280   0.245   0.352   9.721 -1.6267  1.6241  1.6363
  178SOPE   C2920281   0.464   0.348   9.737 -0.8248  0.4886  0.0975
  178SOPE   H9120282   0.538   0.305   9.807 -0.6249 -1.6681 -1.3400
  178SOPE  C21020283   0.504   0.366   9.607  0.3804  0.4745  0.0918
  178SOPE  H10120284   0.611   0.378   9.584  0.2955  1.3375  0.1129
  178SOPE  C21120285   0.420   0.380   9.483 -0.1119 -0.6416 -0.5932
  178SOPE  H11R20286   0.393   0.486   9.461  2.1028  0.2959  0.8795
  178SOPE  H11S20287   0.323   0.325   9.482  0.8226 -2.3542 -0.0027
  178SOPE  C21220288   0.497   0.328   9.360 -0.6351 -0.0055  0.2397
  178SOPE  H12R20289   0.513   0.222   9.388 -0.4974 -0.3824 -1.2346
  178SOPE  H12S20290   0.602   0.365   9.363 -0.9325  0.8384  0.9496
  178SOPE  C21320291   0.417   0.354   9.234  0.4851  0.1689 -0.3123
  178SOPE  H13R20292   0.401   0.464   9.227  0.3546  0.1161 -0.8661
  178SOPE  H13S20293   0.314   0.312   9.235  0.6980 -0.4479 -1.9250
  178SOPE  C21420294   0.506   0.303   9.123 -0.2786 -0.7998 -0.2271
  178SOPE  H14R20295   0.517   0.193   9.111 -1.4842 -0.8515 -1.1525
  178SOPE  H14S20296   0.607   0.346   9.138 -0.6452 -0.3205  0.9608
  178SOPE  C21520297   0.459   0.359   8.987 -0.6385  0.1738  0.4760
  178SOPE  H15R20298   0.469   0.469   8.983 -0.8898  0.1984  0.4557
  178SOPE  H15S20299   0.351   0.333   8.979 -0.5638 -0.0307  0.1335
  178SOPE  C21620300   0.535   0.297   8.867  0.1379 -0.1304  0.3665
  178SOPE  H16R20301   0.494   0.338   8.772  1.4501  0.3720 -0.0098
  178SOPE  H16S20302   0.517   0.188   8.873  0.7048 -0.1288  2.9669
  178SOPE  C21720303   0.688   0.310   8.859  0.2263 -0.2085  0.3584
  178SOPE  H17R20304   0.713   0.242   8.775  0.2152  1.5443 -1.1214
  178SOPE  H17S20305   0.735   0.278   8.954  1.7860  0.4789 -0.1533
  178SOPE  C21820306   0.740   0.447   8.814 -0.0865 -0.2268 -0.4682
  178SOPE  H18R20307   0.687   0.466   8.718  2.6127 -1.5135 -2.3133
  178SOPE  H18S20308   0.850   0.449   8.799  0.6047 -0.2620  3.5508
  178SOPE  H18T20309   0.711   0.532   8.880 -0.5801 -0.1414 -0.7880
  178SOPE   C3320310  -0.194   0.474  10.282  0.7151 -0.4764  0.0213
  178SOPE   H3X20311  -0.174   0.365  10.278 -0.4791 -0.6881 -0.6277
  178SOPE   H3Y20312  -0.096   0.521  10.303  0.1161  0.3974  0.9529
  178SOPE   C3420313  -0.247   0.507  10.138 -0.5426  0.1359  0.0576
  178SOPE   H4X20314  -0.315   0.595  10.135 -2.7311 -1.4525 -2.4556
  178SOPE   H4Y20315  -0.306   0.421  10.098  1.1968 -0.9553 -0.2944
  178SOPE   C3520316  -0.131   0.540  10.044 -0.4868  0.0924 -0.1647
  178SOPE   H5X20317  -0.057   0.459  10.065 -0.8618 -0.3095 -0.3550
  178SOPE   H5Y20318  -0.095   0.641  10.069 -1.5000  0.0893  1.4491
  178SOPE   C3620319  -0.175   0.546   9.896  0.3273  0.3193  0.9999
  178SOPE   H6X20320  -0.250   0.627   9.882  0.2361  0.1910  0.7410
  178SOPE   H6Y20321  -0.215   0.445   9.873  1.6880  0.2587 -1.5954
  178SOPE   C3720322  -0.059   0.566   9.792  0.0021  0.3904 -0.0939
  178SOPE   H7X20323   0.010   0.482   9.813  0.0191  0.9205  2.2010
  178SOPE   H7Y20324  -0.018   0.666   9.819  1.2545 -0.4588  1.2760
  178SOPE   C3820325  -0.115   0.545   9.651 -0.7275 -0.1069 -0.2017
  178SOPE   H8X20326  -0.183   0.631   9.630  0.9280  0.8472 -1.9482
  178SOPE   H8Y20327  -0.166   0.447   9.651 -0.3932 -0.4001  2.9483
  178SOPE   C3920328  -0.011   0.545   9.539 -1.1390  0.3662 -0.4085
  178SOPE   H9X20329   0.061   0.462   9.551 -0.6727  0.7817 -0.2889
  178SOPE   H9Y20330   0.059   0.632   9.539  1.2089 -1.4164 -0.8872
  178SOPE  C31020331  -0.072   0.548   9.396 -0.6875  0.4719  0.1757
  178SOPE  H10X20332  -0.148   0.627   9.381 -1.8523 -0.6027  0.2683
  178SOPE  H10Y20333  -0.107   0.447   9.369  1.2264 -0.0216 -0.6242
  178SOPE  C31120334   0.027   0.578   9.277 -0.2419 -0.2081 -0.3353
  178SOPE  H11X20335   0.133   0.550   9.295 -0.1425 -1.8908 -2.9646
  178SOPE  H11Y20336   0.032   0.688   9.260 -0.5139 -0.4657 -2.2624
  178SOPE  C31220337  -0.027   0.502   9.160 -0.4066  0.2175 -0.2623
  178SOPE  H12X20338  -0.134   0.533   9.155 -0.2045  1.9258  3.1552
  178SOPE  H12Y20339  -0.015   0.394   9.182  0.8397  0.4172  0.1260
  178SOPE  C31320340   0.043   0.561   9.034 -0.2243 -0.3514 -0.1343
  178SOPE  H13X20341   0.154   0.550   9.044 -0.2613  0.5115  1.5387
  178SOPE  H13Y20342   0.023   0.669   9.049 -2.4344 -0.6862 -0.4283
  178SOPE  C31420343  -0.021   0.512   8.902  0.2483  0.3138  0.2840
  178SOPE  H14X20344  -0.132   0.506   8.904  0.3160 -1.2262  0.7153
  178SOPE  H14Y20345   0.024   0.416   8.871  0.5437  0.7378 -0.6635
  178SOPE  C31520346   0.000   0.626   8.794  0.0126 -0.0431 -0.1115
  178SOPE  H15X20347   0.103   0.666   8.810  0.7294 -2.1738  1.1395
  178SOPE  H15Y20348  -0.075   0.701   8.828 -1.9780 -2.4645  1.1690
  178SOPE  C31620349  -0.020   0.577   8.648 -0.1193 -0.3392 -0.3557
  178SOPE  H16X20350  -0.120   0.529   8.651 -1.2668  1.8840  2.9222
  178SOPE  H16Y20351   0.053   0.493   8.646 -0.3696 -0.7079  2.1165
  178SOPE  C31720352  -0.007   0.681   8.536 -0.1932 -0.1386  0.3167
  178SOPE  H17X20353   0.101   0.708   8.536  0.0731 -1.0435 -1.0921
  178SOPE  H17Y20354  -0.063   0.772   8.566  0.2951  0.2087  0.1873
  178SOPE  C31820355  -0.054   0.633   8.400 -0.1227  0.5501  0.4903
  178SOPE  H18X20356  -0.061   0.711   8.321 -0.3490  1.4174  1.3435
  178SOPE  H18Y20357  -0.160   0.601   8.413 -0.3047  0.8198 -0.2538
  178SOPE  H18Z20358   0.016   0.563   8.351  0.4430  1.3062  0.2044
  179SOPE     N20359   1.667   2.735   6.392  0.5124  0.5516 -0.3033
  179SOPE   HN120360   1.744   2.756   6.326 -1.0449  1.5947 -1.8943
  179SOPE   HN220361   1.623   2.825   6.422  0.6645 -0.2460  2.7130
  179SOPE   HN320362   1.710   2.716   6.485  0.5631  0.5009 -0.3373
  179SOPE   C1220363   1.552   2.643   6.346  0.0490 -0.5956  0.3284
  179SOPE  H12A20364   1.602   2.545   6.336  0.6586 -0.1060 -2.4411
  179SOPE  H12B20365   1.519   2.680   6.246 -1.0584  1.8532  1.5152
  179SOPE   C1120366   1.429   2.649   6.441  0.7310 -0.6100 -0.0716
  179SOPE  H11A20367   1.364   2.564   6.411  0.7776 -0.6799  0.0249
  179SOPE  H11B20368   1.376   2.742   6.411  1.4791 -1.1507 -3.4970
  179SOPE     P20369   1.427   2.753   6.682  0.4054 -0.0681 -0.0395
  179SOPE   O1320370   1.481   2.869   6.613 -0.1008  0.4553  0.6495
  179SOPE   O1420371   1.485   2.716   6.816 -0.7690  0.0715 -0.1218
  179SOPE   O1220372   1.469   2.642   6.580  0.3413 -0.2359 -0.1095
  179SOPE   O1120373   1.266   2.749   6.674  0.2634  0.2865  0.4725
  179SOPE    C120374   1.211   2.627   6.729  0.4706 -0.1862  0.3136
  179SOPE    HA20375   1.282   2.542   6.737  2.0072  1.0052 -0.1344
  179SOPE    HB20376   1.118   2.604   6.674  0.4397  2.7091 -1.0222
  179SOPE    C220377   1.160   2.661   6.877 -0.3839  0.3081 -0.1185
  179SOPE    HS20378   1.120   2.764   6.870  0.8721  0.8054 -0.2636
  179SOPE   O2120379   1.274   2.648   6.968 -0.5096 -0.0858  0.0960
  179SOPE   C2120380   1.289   2.753   7.041 -0.8202 -0.4268 -0.7703
  179SOPE   O2220381   1.253   2.869   7.015  0.4139 -0.5296  0.1159
  179SOPE   C2220382   1.348   2.720   7.176 -0.5102 -0.1602 -0.1373
  179SOPE   H2R20383   1.455   2.695   7.158 -0.8921 -0.4719 -2.1886
  179SOPE   H2S20384   1.295   2.626   7.203 -1.0944  0.2356  0.1098
  179SOPE    C320385   1.054   2.571   6.933  0.1361  0.4977 -0.1562
  179SOPE    HX20386   1.087   2.465   6.935  0.1634  0.5150  0.7370
  179SOPE    HY20387   0.978   2.562   6.852  1.6285  0.1969 -1.5760
  179SOPE   O3120388   0.998   2.595   7.067 -0.0236 -0.5431 -0.3204
  179SOPE   C3120389   0.893   2.676   7.071  0.0180  0.0739 -0.2611
  179SOPE   O3220390   0.851   2.727   6.971 -0.3464  0.6696 -0.2689
  179SOPE   C3220391   0.842   2.691   7.217 -0.3819  0.4165  0.4590
  179SOPE   H2X20392   0.898   2.769   7.273  0.1411  0.7650 -0.5416
  179SOPE   H2Y20393   0.864   2.595   7.268  1.9492 -0.1828 -1.5343
  179SOPE   C2320394   1.328   2.832   7.272  0.7934  0.2476 -0.6151
  179SOPE   H3R20395   1.223   2.865   7.267  1.0785  1.1605 -0.7728
  179SOPE   H3S20396   1.399   2.916   7.252 -0.4032  1.0044 -1.8660
  179SOPE   C2420397   1.356   2.781   7.418 -0.2524 -0.1869 -0.4144
  179SOPE   H4R20398   1.321   2.677   7.436  0.2713 -0.7326 -2.2847
  179SOPE   H4S20399   1.465   2.783   7.435 -0.2425 -1.1241 -0.3620
  179SOPE   C2520400   1.306   2.886   7.529 -1.0811  0.6118 -0.0107
  179SOPE   H5R20401   1.376   2.972   7.519  1.5164 -1.5810 -1.9320
  179SOPE   H5S20402   1.199   2.911   7.507 -0.9427  0.0245 -1.4792
  179SOPE   C2620403   1.332   2.821   7.666  0.8897 -0.9066  0.3810
  179SOPE   H6R20404   1.257   2.740   7.682 -0.4687  0.2863  0.2234
  179SOPE   H6S20405   1.431   2.771   7.659  0.9465 -0.5534 -2.4525
  179SOPE   C2720406   1.327   2.925   7.778  0.7794  0.0990 -0.9631
  179SOPE   H7R20407   1.426   2.976   7.778  1.8956 -1.9585 -1.1135
  179SOPE   H7S20408   1.244   2.995   7.755 -1.6857 -1.3526  2.6975
  179SOPE   C2820409   1.300   2.848   7.917  0.2328 -0.3863  0.4040
  179SOPE   H8R20410   1.210   2.784   7.902  0.1325 -0.1975  0.1909
  179SOPE   H8S20411   1.388   2.782   7.932 -1.2321 -3.4631 -3.0984
  179SOPE   C2920412   1.280   2.947   8.029 -0.3748  0.0420  0.1665
  179SOPE   H9120413   1.220   3.034   8.002 -1.8283 -1.5505 -2.0700
  179SOPE  C21020414   1.316   2.935   8.158  0.1389 -0.0585  0.5484
  179SOPE  H10120415   1.315   3.020   8.227 -1.1695 -0.5819  1.2117
  179SOPE  C21120416   1.388   2.804   8.198 -0.5786 -0.6124  0.1889
  179SOPE  H11R20417   1.496   2.797   8.174 -0.3480  2.3553 -0.0989
  179SOPE  H11S20418   1.334   2.718   8.153 -0.8303 -0.0935 -0.5178
  179SOPE  C21220419   1.379   2.781   8.348 -0.8637  0.6297 -1.0867
  179SOPE  H12R20420   1.439   2.854   8.406 -0.6955 -1.6514  1.8768
  179SOPE  H12S20421   1.430   2.684   8.369 -0.1168  1.1019 -0.7123
  179SOPE  C21320422   1.243   2.787   8.415  0.8205  0.8060  0.2109
  179SOPE  H13R20423   1.185   2.700   8.377  1.9991 -0.2896  0.8488
  179SOPE  H13S20424   1.182   2.876   8.384  0.4715  0.7048  0.6014
  179SOPE  C21420425   1.252   2.771   8.568 -0.3373 -0.5865 -0.2235
  179SOPE  H14R20426   1.302   2.865   8.600 -3.3001  1.2081 -0.5377
  179SOPE  H14S20427   1.313   2.681   8.593 -0.7946 -1.1500 -1.0909
  179SOPE  C21520428   1.110   2.768   8.621 -0.1826 -0.5981 -0.3770
  179SOPE  H15R20429   1.045   2.696   8.567 -1.3497 -0.8754  1.3083
  179SOPE  H15S20430   1.068   2.871   8.619  2.2619  0.5620  1.9399
  179SOPE  C21620431   1.090   2.744   8.769  0.6435 -0.5700 -0.4420
  179SOPE  H16R20432   1.158   2.805   8.832  0.7062 -1.8556  0.7917
  179SOPE  H16S20433   1.121   2.637   8.779 -1.1577 -1.0591  0.3687
  179SOPE  C21720434   0.936   2.753   8.800  0.1515  0.0535 -0.2159
  179SOPE  H17R20435   0.887   2.699   8.717  1.1279 -0.4692 -0.4742
  179SOPE  H17S20436   0.921   2.860   8.773 -1.1805  0.2892  1.3281
  179SOPE  C21820437   0.907   2.702   8.941 -0.5223 -0.4756  0.3408
  179SOPE  H18R20438   0.985   2.735   9.013 -1.3306  1.5251  0.3862
  179SOPE  H18S20439   0.897   2.592   8.943 -1.1836 -0.4468  3.3308
  179SOPE  H18T20440   0.804   2.732   8.970 -0.3753 -0.8330  1.2693
  179SOPE   C3320441   0.690   2.716   7.236 -0.1808  0.0575  0.1928
  179SOPE   H3X20442   0.655   2.659   7.148  0.9540 -1.1079  0.4694
  179SOPE   H3Y20443   0.649   2.819   7.223  1.5694  0.7217 -0.3885
  179SOPE   C3420444   0.625   2.652   7.358  0.3479 -0.3727 -0.3072
  179SOPE   H4X20445   0.667   2.552   7.385 -0.3322 -0.2854  1.1782
  179SOPE   H4Y20446   0.517   2.638   7.336 -0.0303  1.0817  0.4890
  179SOPE   C3520447   0.619   2.751   7.477 -0.5752  0.5036 -0.4321
  179SOPE   H5X20448   0.561   2.839   7.441 -0.4493  0.6754 -0.2149
  179SOPE   H5Y20449   0.723   2.785   7.498 -0.1096 -0.7009 -0.7079
  179SOPE   C3620450   0.555   2.679   7.592  0.4373 -0.3208 -0.3725
  179SOPE   H6X20451   0.622   2.599   7.629 -0.9007 -0.7981  1.0969
  179SOPE   H6Y20452   0.471   2.614   7.558  0.0796 -0.4625  0.7457
  179SOPE   C3720453   0.525   2.765   7.711 -0.5138  0.0533 -0.3950
  179SOPE   H7X20454   0.438   2.828   7.680 -1.1767  0.4952  2.1853
  179SOPE   H7Y20455   0.606   2.834   7.742  1.2969 -1.9889 -0.4393
  179SOPE   C3820456   0.478   2.673   7.834 -1.1778  0.1534  0.4804
  179SOPE   H8X20457   0.558   2.596   7.844  0.0163  1.0973 -1.2572
  179SOPE   H8Y20458   0.385   2.627   7.794 -0.8412  0.7085 -1.0320
  179SOPE   C3920459   0.478   2.754   7.964  0.5144  0.1112  0.4091
  179SOPE   H9X20460   0.403   2.834   7.948 -1.4371 -1.8056 -0.5735
  179SOPE   H9Y20461   0.576   2.806   7.963 -0.0741  1.3362 -2.6575
  179SOPE  C31020462   0.466   2.690   8.101 -0.5779  0.2894  0.0052
  179SOPE  H10X20463   0.557   2.628   8.112  1.5030  3.1375 -0.3504
  179SOPE  H10Y20464   0.376   2.625   8.114 -0.0548 -0.2725  0.9632
  179SOPE  C31120465   0.467   2.785   8.221 -0.4834  1.0818 -0.3751
  179SOPE  H11X20466   0.370   2.838   8.212 -1.2318 -0.1567  0.1568
  179SOPE  H11Y20467   0.551   2.857   8.214  0.5014  0.0212  0.2696
  179SOPE  C31220468   0.476   2.705   8.350 -0.2490 -0.2495  0.3674
  179SOPE  H12X20469   0.577   2.663   8.372 -0.6872 -0.6257  1.7814
  179SOPE  H12Y20470   0.403   2.621   8.343 -0.5677  0.0955 -0.5624
  179SOPE  C31320471   0.440   2.797   8.462  0.7064  0.2791 -0.1907
  179SOPE  H13X20472   0.352   2.855   8.426  1.3236  1.2272 -0.1960
  179SOPE  H13Y20473   0.528   2.863   8.479  1.8920 -1.0577 -0.9174
  179SOPE  C31420474   0.388   2.720   8.585  1.2772  0.3170 -0.4918
  179SOPE  H14X20475   0.306   2.651   8.555  3.1697 -3.2157  1.6753
  179SOPE  H14Y20476   0.352   2.796   8.658  0.1942  0.5145 -1.2073
  179SOPE  C31520477   0.496   2.628   8.644 -0.1488 -0.1208  0.6822
  179SOPE  H15X20478   0.586   2.694   8.643  0.5316 -1.0328 -0.4297
  179SOPE  H15Y20479   0.527   2.545   8.577 -0.2272 -0.4031  0.9934
  179SOPE  C31620480   0.463   2.600   8.787 -0.5225 -0.0434 -0.0087
  179SOPE  H16X20481   0.361   2.560   8.806 -0.5816 -1.4583 -2.8097
  179SOPE  H16Y20482   0.454   2.696   8.841 -0.4113 -0.2070  0.3052
  179SOPE  C31720483   0.569   2.513   8.857  1.3784 -0.2011 -0.0046
  179SOPE  H17X20484   0.670   2.553   8.834  3.0921 -2.4982  2.8152
  179SOPE  H17Y20485   0.558   2.409   8.818 -0.0220 -0.6140  1.3815
  179SOPE  C31820486   0.549   2.502   9.009  0.1454  0.1450 -0.1516
  179SOPE  H18X20487   0.559   2.599   9.062 -2.2564  0.0170  0.6589
  179SOPE  H18Y20488   0.631   2.438   9.048 -0.6320 -1.0469 -0.4112
  179SOPE  H18Z20489   0.451   2.456   9.034 -0.8191  1.8225 -0.6361
  180SOPE     N20490   0.154   2.584   6.493 -0.0622  0.2250  0.1497
  180SOPE   HN120491   0.230   2.533   6.444 -1.5887 -1.3312 -0.7315
  180SOPE   HN220492   0.080   2.627   6.433  0.7829  0.7731 -0.5212
  180SOPE   HN320493   0.207   2.663   6.534  0.8188 -0.2131 -0.1206
  180SOPE   C1220494   0.090   2.502   6.602 -0.3976 -0.0625  0.4585
  180SOPE  H12A20495   0.046   2.576   6.671  0.3395  1.6845 -0.8617
  180SOPE  H12B20496   0.169   2.444   6.654  2.5941  0.5370 -2.9594
  180SOPE   C1120497  -0.011   2.408   6.547 -0.3200 -0.0607  0.6624
  180SOPE  H11A20498  -0.055   2.352   6.633 -0.1431 -0.0254  0.7768
  180SOPE  H11B20499   0.030   2.326   6.485  1.4427 -0.2929  2.0541
  180SOPE     P20500  -0.267   2.447   6.507  0.1661 -0.6286 -0.2950
  180SOPE   O1320501  -0.292   2.298   6.509 -0.7440 -0.1577  0.1490
  180SOPE   O1420502  -0.349   2.541   6.422 -0.2482  0.5386  0.3304
  180SOPE   O1220503  -0.117   2.477   6.477 -0.0195  0.2085 -0.8789
  180SOPE   O1120504  -0.291   2.481   6.663  0.0745 -0.1522  0.0303
  180SOPE    C120505  -0.295   2.621   6.707  0.6887  0.5408  0.7733
  180SOPE    HA20506  -0.378   2.675   6.658  1.0900 -0.8391 -1.5747
  180SOPE    HB20507  -0.208   2.685   6.683  0.7024 -0.0061 -0.7368
  180SOPE    C220508  -0.323   2.615   6.862 -0.4073  0.0495 -0.8949
  180SOPE    HS20509  -0.311   2.721   6.892  3.2581 -0.0638 -1.5120
  180SOPE   O2120510  -0.229   2.528   6.927 -0.1862 -0.2921 -0.3827
  180SOPE   C2120511  -0.102   2.576   6.930  0.0644  0.8155  0.2134
  180SOPE   O2220512  -0.066   2.683   6.894  0.0808  0.0323  0.1760
  180SOPE   C2220513   0.005   2.479   6.983  0.2025 -0.7684  0.7685
  180SOPE   H2R20514   0.088   2.533   7.034  1.6256 -0.9007 -1.2764
  180SOPE   H2S20515   0.035   2.416   6.897 -2.5859  1.2367 -1.9152
  180SOPE    C320516  -0.468   2.562   6.889 -1.0607 -0.1883 -0.2174
  180SOPE    HX20517  -0.478   2.467   6.832 -1.1462 -0.3021 -0.0133
  180SOPE    HY20518  -0.548   2.627   6.847 -3.0763 -1.7871  0.9113
  180SOPE   O3120519  -0.494   2.533   7.027 -0.7185 -0.2481  0.7949
  180SOPE   C3120520  -0.476   2.410   7.074 -0.7585  0.4137 -0.1208
  180SOPE   O3220521  -0.421   2.324   7.007 -0.0658  0.4551 -0.6831
  180SOPE   C3220522  -0.542   2.383   7.211  0.4733 -0.4526 -0.2979
  180SOPE   H2X20523  -0.454   2.370   7.277  1.1910  1.8512 -0.6889
  180SOPE   H2Y20524  -0.607   2.295   7.194 -1.3361  0.3519  1.9392
  180SOPE   C2320525  -0.054   2.385   7.086  0.2133  0.1869 -0.4321
  180SOPE   H3R20526   0.027   2.314   7.114 -1.1175 -1.3815 -0.4071
  180SOPE   H3S20527  -0.142   2.326   7.051  0.4355 -2.3139  2.7902
  180SOPE   C2420528  -0.096   2.453   7.219  0.5368 -0.1042  0.2946
  180SOPE   H4R20529  -0.001   2.497   7.256  0.9748 -1.0302  0.2855
  180SOPE   H4S20530  -0.173   2.531   7.200 -0.6075 -1.3115 -0.1728
  180SOPE   C2520531  -0.148   2.346   7.320 -0.3533 -0.1142 -0.0345
  180SOPE   H5R20532  -0.232   2.292   7.271 -0.1442  0.8774 -1.5292
  180SOPE   H5S20533  -0.070   2.273   7.352  0.4300  0.0197 -1.5588
  180SOPE   C2620534  -0.205   2.420   7.441 -0.5945  0.7047  0.1981
  180SOPE   H6R20535  -0.125   2.457   7.509  1.6098 -1.9441 -0.7767
  180SOPE   H6S20536  -0.259   2.514   7.418  0.8834  1.8464  1.1594
  180SOPE   C2720537  -0.298   2.326   7.520 -0.0621  0.2712 -0.9388
  180SOPE   H7R20538  -0.381   2.277   7.465  1.4812 -1.8042 -1.5323
  180SOPE   H7S20539  -0.236   2.252   7.574  2.4950  3.3287  0.6613
  180SOPE   C2820540  -0.355   2.413   7.636 -0.5932 -0.3611 -0.1007
  180SOPE   H8R20541  -0.264   2.457   7.683 -1.0213  0.0772  0.3403
  180SOPE   H8S20542  -0.423   2.490   7.592  0.9820  1.3013  0.2397
  180SOPE   C2920543  -0.431   2.322   7.726 -0.0882  0.4312 -0.0408
  180SOPE   H9120544  -0.537   2.309   7.699  0.0611 -0.6010 -0.1661
  180SOPE  C21020545  -0.397   2.273   7.843  0.4788  0.8862  0.3392
  180SOPE  H10120546  -0.470   2.205   7.888 -0.9959  1.3042 -1.2944
  180SOPE  C21120547  -0.265   2.293   7.918  0.3897 -0.5679  0.2820
  180SOPE  H11R20548  -0.256   2.401   7.944  2.1442 -0.1724 -1.7235
  180SOPE  H11S20549  -0.177   2.261   7.859  0.4788 -0.9971  0.6433
  180SOPE  C21220550  -0.257   2.203   8.044  1.2289 -0.7830 -0.3866
  180SOPE  H12R20551  -0.244   2.101   8.002 -0.3879 -1.4054  0.5265
  180SOPE  H12S20552  -0.346   2.195   8.111  0.7468 -1.1950 -1.0641
  180SOPE  C21320553  -0.133   2.238   8.115 -0.1296 -0.0213 -0.6087
  180SOPE  H13R20554  -0.139   2.345   8.144  2.5219 -0.1142  0.5758
  180SOPE  H13S20555  -0.055   2.206   8.043 -2.0565 -1.4364 -2.2053
  180SOPE  C21420556  -0.104   2.167   8.250 -0.5486  0.5603  0.1600
  180SOPE  H14R20557  -0.192   2.153   8.315  0.7988  1.1454  2.2153
  180SOPE  H14S20558  -0.024   2.222   8.304 -1.7478  0.7868  1.7690
  180SOPE  C21520559  -0.046   2.026   8.221 -0.2651  0.3919  0.3373
  180SOPE  H15R20560   0.049   2.049   8.168 -1.1331 -0.6958 -1.7969
  180SOPE  H15S20561  -0.106   1.969   8.148  0.5808 -1.4707  1.0401
  180SOPE  C21620562  -0.033   1.947   8.351 -0.6123  0.0511  0.2469
  180SOPE  H16R20563  -0.132   1.907   8.382 -0.0303  1.6251  4.9847
  180SOPE  H16S20564  -0.004   1.999   8.445  1.8062  0.6391 -0.7373
  180SOPE  C21720565   0.068   1.829   8.335 -0.6821  0.3728 -0.3659
  180SOPE  H17R20566   0.027   1.756   8.261  1.2154 -1.6903  0.4915
  180SOPE  H17S20567   0.081   1.766   8.426  2.4392  0.3688 -0.7195
  180SOPE  C21820568   0.205   1.874   8.286 -0.8486 -0.2461 -0.2932
  180SOPE  H18R20569   0.233   1.965   8.343 -2.8661  0.3032 -0.0902
  180SOPE  H18S20570   0.203   1.901   8.178  1.2094 -1.4588 -0.6879
  180SOPE  H18T20571   0.288   1.804   8.310 -0.6248  0.6451  1.7602
  180SOPE   C3320572  -0.621   2.499   7.278  0.4016  0.3431 -0.1641
  180SOPE   H3X20573  -0.700   2.531   7.207  0.8899 -0.6958 -1.2026
  180SOPE   H3Y20574  -0.543   2.577   7.292  1.4894 -0.6587 -0.4920
  180SOPE   C3420575  -0.687   2.453   7.412  0.4944  0.0025  0.2308
  180SOPE   H4X20576  -0.614   2.391   7.467  0.4103  0.2914  0.6716
  180SOPE   H4Y20577  -0.782   2.399   7.392 -0.7657  1.7600  1.1817
  180SOPE   C3520578  -0.721   2.573   7.499 -0.2085 -0.1898 -0.3299
  180SOPE   H5X20579  -0.799   2.629   7.444 -0.0094  0.6561  0.2234
  180SOPE   H5Y20580  -0.631   2.637   7.498 -0.2464 -0.1325 -0.0649
  180SOPE   C3620581  -0.777   2.544   7.644  0.4315 -0.2739 -0.6476
  180SOPE   H6X20582  -0.704   2.475   7.690  0.1907 -0.0739  0.0488
  180SOPE   H6Y20583  -0.876   2.493   7.641 -0.8126  1.9174  0.1594
  180SOPE   C3720584  -0.785   2.660   7.733  0.6682 -0.8266 -0.1038
  180SOPE   H7X20585  -0.890   2.696   7.720  1.6724  2.5727  0.3491
  180SOPE   H7Y20586  -0.730   2.739   7.679  1.3217 -2.1277 -1.4096
  180SOPE   C3820587  -0.746   2.636   7.876  0.1771  0.2141  0.0253
  180SOPE   H8X20588  -0.649   2.582   7.885 -0.3290 -0.9507 -1.1133
  180SOPE   H8Y20589  -0.814   2.554   7.907  0.5696 -0.2441 -0.3038
  180SOPE   C3920590  -0.756   2.756   7.969 -0.7316 -0.3299 -0.5003
  180SOPE   H9X20591  -0.855   2.803   7.950 -0.2904  0.4808 -0.8308
  180SOPE   H9Y20592  -0.676   2.826   7.938 -0.2322 -0.5207  0.3312
  180SOPE  C31020593  -0.740   2.706   8.119  0.3285 -0.5772  0.0702
  180SOPE  H10X20594  -0.636   2.667   8.116  0.7152  0.2111  2.0253
  180SOPE  H10Y20595  -0.801   2.615   8.139  0.5057 -0.3461  1.7404
  180SOPE  C31120596  -0.775   2.829   8.200 -0.5715  0.2276  0.3783
  180SOPE  H11X20597  -0.880   2.864   8.186 -0.3584 -0.3347 -4.7019
  180SOPE  H11Y20598  -0.698   2.905   8.174 -0.6042 -0.6548 -2.7793
  180SOPE  C31220599  -0.749   2.813   8.350  0.5064  0.1156 -0.4452
  180SOPE  H12X20600  -0.720   2.911   8.394  0.4269 -0.5636  1.1871
  180SOPE  H12Y20601  -0.659   2.749   8.360  1.4031  1.0214 -2.3009
  180SOPE  C31320602  -0.876   2.776   8.437  0.8505  1.1284 -0.1647
  180SOPE  H13X20603  -0.842   2.749   8.539  0.0516  1.5954  0.2294
  180SOPE  H13Y20604  -0.922   2.688   8.386 -2.2253  1.6453  1.5164
  180SOPE  C31420605  -0.978   2.879   8.454  0.6224  0.3510  0.0532
  180SOPE  H14X20606  -1.042   2.861   8.364 -0.6539 -0.0216  1.0103
  180SOPE  H14Y20607  -0.930   2.979   8.454 -1.4999  1.4367 -1.1545
  180SOPE  C31520608  -1.080   2.863   8.564  0.3850  0.9639  0.4584
  180SOPE  H15X20609  -1.030   2.883   8.661  2.1721 -3.2070  0.6137
  180SOPE  H15Y20610  -1.130   2.764   8.558 -0.3736  1.2455  1.7009
  180SOPE  C31620611  -1.184   2.973   8.547 -0.0111  0.4907 -0.0124
  180SOPE  H16X20612  -1.223   2.977   8.443 -1.1201 -0.7871  0.3205
  180SOPE  H16Y20613  -1.139   3.070   8.578  2.2791 -0.0088 -1.5412
  180SOPE  C31720614  -1.309   2.955   8.640  0.4831 -0.3660  0.1323
  180SOPE  H17X20615  -1.272   2.971   8.743  3.4980  2.4965 -1.1969
  180SOPE  H17Y20616  -1.349   2.852   8.625 -1.3053  0.4878 -1.2692
  180SOPE  C31820617  -1.424   3.054   8.609  0.1384  0.2343 -0.2634
  180SOPE  H18X20618  -1.378   3.155   8.604 -0.9195  0.7860  0.7500
  180SOPE  H18Y20619  -1.511   3.048   8.678 -0.6437 -0.6534 -1.3144
  180SOPE  H18Z20620  -1.463   3.034   8.508 -1.5264 -1.0236  0.5870
  181SOPE     N20621   6.523   5.402   6.034 -0.3014  0.1895  0.7924
  181SOPE   HN120622   6.488   5.469   6.106  0.8214  2.5409 -0.7018
  181SOPE   HN220623   6.591   5.445   5.967 -0.8101 -0.7171 -0.3317
  181SOPE   HN320624   6.449   5.369   5.969 -0.3831 -0.9483  1.4322
  181SOPE   C1220625   6.592   5.289   6.103  0.6932  0.0253  0.4210
  181SOPE  H12A20626   6.686   5.332   6.143 -0.3201  1.7801  0.9806
  181SOPE  H12B20627   6.627   5.219   6.024  2.2420  2.7100 -1.4259
  181SOPE   C1120628   6.502   5.225   6.210 -0.1314 -0.3271 -0.6708
  181SOPE  H11A20629   6.503   5.293   6.298  2.3015  0.2198 -1.0558
  181SOPE  H11B20630   6.557   5.134   6.242  0.1844  0.4074  1.0090
  181SOPE     P20631   6.303   5.065   6.191  0.0072  0.0499  0.1438
  181SOPE   O1320632   6.327   5.021   6.331  0.4596  0.2489 -0.0477
  181SOPE   O1420633   6.342   4.971   6.082  0.4863  0.5557  0.2751
  181SOPE   O1220634   6.370   5.206   6.165 -0.5619  0.8804  0.1969
  181SOPE   O1120635   6.148   5.085   6.173  1.4203 -0.1158 -0.1834
  181SOPE    C120636   6.081   5.212   6.208  0.4863  0.7233  0.6278
  181SOPE    HA20637   5.991   5.214   6.143  1.2245 -3.8657 -0.9529
  181SOPE    HB20638   6.138   5.306   6.191  2.9856 -1.0333 -1.4894
  181SOPE    C220639   6.029   5.208   6.357  0.3727  0.7251  0.8211
  181SOPE    HS20640   5.961   5.295   6.364  0.7691  1.0199  1.0790
  181SOPE   O2120641   6.142   5.232   6.441  0.1460  0.1574  0.5633
  181SOPE   C2120642   6.204   5.349   6.432 -0.8743 -0.0819 -0.9320
  181SOPE   O2220643   6.163   5.445   6.371  0.4503 -0.2637  0.0851
  181SOPE   C2220644   6.340   5.343   6.513  0.4281 -1.4301 -0.7502
  181SOPE   H2R20645   6.388   5.441   6.493 -0.1714 -0.7292  1.0593
  181SOPE   H2S20646   6.399   5.261   6.469  2.0115 -0.2945 -0.8259
  181SOPE    C320647   5.965   5.074   6.386  0.5186  0.6450 -0.2172
  181SOPE    HX20648   6.041   4.996   6.407 -0.0464  0.7763  2.5946
  181SOPE    HY20649   5.910   5.037   6.297 -1.1498 -0.4248  1.1918
  181SOPE   O3120650   5.867   5.085   6.491  0.4792  0.3379 -0.3622
  181SOPE   C3120651   5.907   5.036   6.610 -0.6779 -0.1984  1.0557
  181SOPE   O3220652   6.017   4.991   6.634  0.0231 -0.1636 -0.5108
  181SOPE   C3220653   5.807   5.057   6.717  0.1424  0.0571 -0.4635
  181SOPE   H2X20654   5.712   5.103   6.683 -0.5318 -0.2718  0.8827
  181SOPE   H2Y20655   5.863   5.121   6.789 -1.2656 -1.3787  2.0705
  181SOPE   C2320656   6.326   5.346   6.668  0.6136 -0.1012  0.6502
  181SOPE   H3R20657   6.429   5.341   6.711 -0.2224 -0.2028  2.7634
  181SOPE   H3S20658   6.280   5.254   6.710 -0.8998  0.5521  0.4896
  181SOPE   C2420659   6.255   5.464   6.723 -0.4164 -0.2399 -0.0667
  181SOPE   H4R20660   6.325   5.550   6.716 -0.4128 -0.2473 -0.1212
  181SOPE   H4S20661   6.167   5.497   6.664  0.6166  3.1626  0.0796
  181SOPE   C2520662   6.216   5.442   6.869  0.3064 -0.1012  0.4218
  181SOPE   H5R20663   6.177   5.536   6.914 -2.8135 -1.1388  0.0989
  181SOPE   H5S20664   6.137   5.364   6.872  0.1097 -0.1174 -2.5520
  181SOPE   C2620665   6.312   5.389   6.983  0.4032 -0.0232 -0.0843
  181SOPE   H6R20666   6.336   5.285   6.951  2.1673 -0.0076  1.0312
  181SOPE   H6S20667   6.414   5.433   6.985 -0.6408  2.5067  0.0034
  181SOPE   C2720668   6.259   5.412   7.126 -0.5332  0.4214  0.2156
  181SOPE   H7R20669   6.267   5.517   7.161  1.0105 -0.3524  2.3894
  181SOPE   H7S20670   6.151   5.387   7.130 -0.3740 -0.6061 -1.1918
  181SOPE   C2820671   6.346   5.325   7.224  0.6617  0.1046  0.6969
  181SOPE   H8R20672   6.295   5.308   7.321  0.8012  0.4802  0.8369
  181SOPE   H8S20673   6.342   5.220   7.186 -0.3208 -0.6062  2.6152
  181SOPE   C2920674   6.485   5.383   7.242 -0.2587  0.0585 -0.2918
  181SOPE   H9120675   6.567   5.361   7.172  0.2959  0.4355  0.2306
  181SOPE  C21020676   6.519   5.460   7.349 -0.4901 -0.1201 -0.3489
  181SOPE  H10120677   6.628   5.478   7.345 -0.6811  0.9394 -1.7098
  181SOPE  C21120678   6.442   5.512   7.467 -1.0289 -0.0642  0.7037
  181SOPE  H11R20679   6.332   5.495   7.459 -0.9018  0.0261 -2.0474
  181SOPE  H11S20680   6.455   5.621   7.485  1.6493 -0.6590  3.1348
  181SOPE  C21220681   6.493   5.444   7.599  0.0378 -0.1002  0.0309
  181SOPE  H12R20682   6.461   5.507   7.685  1.1037  0.5437 -0.0309
  181SOPE  H12S20683   6.604   5.435   7.597  0.1988  1.6579 -1.4363
  181SOPE  C21320684   6.430   5.309   7.614  0.2156  0.3070 -0.2773
  181SOPE  H13R20685   6.482   5.226   7.561  1.0759 -0.5602  1.8055
  181SOPE  H13S20686   6.323   5.318   7.584 -0.1417  0.4602  0.9697
  181SOPE  C21420687   6.424   5.272   7.764  0.2243 -0.2464 -0.0030
  181SOPE  H14R20688   6.390   5.358   7.826 -1.6431 -0.1911 -1.0509
  181SOPE  H14S20689   6.528   5.240   7.786  1.1830 -0.2110 -3.8728
  181SOPE  C21520690   6.345   5.142   7.777  0.0597 -0.4490 -0.1160
  181SOPE  H15R20691   6.399   5.074   7.708  0.3082 -1.7471  1.3213
  181SOPE  H15S20692   6.241   5.145   7.737 -0.4843  0.0883  1.2701
  181SOPE  C21620693   6.356   5.061   7.911 -0.2815 -0.6773  0.4121
  181SOPE  H16R20694   6.465   5.046   7.929  0.3118  2.2593 -0.1271
  181SOPE  H16S20695   6.307   4.964   7.891  0.7213 -1.3004  0.9169
  181SOPE  C21720696   6.295   5.132   8.037  0.0647 -0.0508  1.0584
  181SOPE  H17R20697   6.189   5.158   8.014  0.3913 -1.0464 -1.9018
  181SOPE  H17S20698   6.348   5.229   8.042  3.8172 -1.5070 -3.6212
  181SOPE  C21820699   6.311   5.064   8.170  0.0689 -0.0778 -0.2658
  181SOPE  H18R20700   6.278   5.131   8.252  3.5261  0.0525  1.2073
  181SOPE  H18S20701   6.419   5.040   8.185  0.0230  0.2865  0.6695
  181SOPE  H18T20702   6.256   4.968   8.182  0.6482 -0.5092 -0.9004
  181SOPE   C3320703   5.772   4.914   6.762  0.6813 -0.1274 -0.4336
  181SOPE   H3X20704   5.858   4.866   6.812  0.1549 -0.7052 -0.0610
  181SOPE   H3Y20705   5.751   4.841   6.681  2.8473  0.3136 -1.4734
  181SOPE   C3420706   5.651   4.908   6.865  0.0855 -0.1498  0.5449
  181SOPE   H4X20707   5.555   4.906   6.808 -0.7291 -1.8906  1.9031
  181SOPE   H4Y20708   5.653   5.003   6.922  1.8561  0.7487 -0.9180
  181SOPE   C3520709   5.672   4.789   6.954  0.4224  0.0650  0.5310
  181SOPE   H5X20710   5.776   4.804   6.990  0.4457  2.8460 -0.4486
  181SOPE   H5Y20711   5.671   4.702   6.885  1.6033  2.0015 -2.0781
  181SOPE   C3620712   5.577   4.769   7.071 -0.7615  0.6237 -1.1119
  181SOPE   H6X20713   5.476   4.736   7.039  0.1064 -1.8248 -1.5588
  181SOPE   H6Y20714   5.563   4.865   7.126  0.3055 -0.4447  1.1608
  181SOPE   C3720715   5.611   4.660   7.174  0.0400 -0.9149  0.9881
  181SOPE   H7X20716   5.613   4.568   7.111  2.1959 -0.6697  0.5977
  181SOPE   H7Y20717   5.535   4.648   7.254 -0.0371  0.0087  1.0595
  181SOPE   C3820718   5.755   4.667   7.243 -0.6232  0.2689  0.2470
  181SOPE   H8X20719   5.764   4.769   7.286 -0.6828  0.0026  0.9022
  181SOPE   H8Y20720   5.835   4.648   7.168 -0.4022  0.4438  0.4393
  181SOPE   C3920721   5.773   4.562   7.350 -0.8387  0.3584 -0.2378
  181SOPE   H9X20722   5.717   4.468   7.327  0.5676 -0.4738 -0.3798
  181SOPE   H9Y20723   5.734   4.604   7.445  1.9189 -1.0731  1.6464
  181SOPE  C31020724   5.920   4.526   7.377  0.4482 -0.6883  0.0692
  181SOPE  H10X20725   5.971   4.624   7.365  0.1346 -0.6611 -1.1667
  181SOPE  H10Y20726   5.962   4.464   7.295  0.8602  1.7822 -1.6915
  181SOPE  C31120727   5.931   4.461   7.517  0.2871 -0.4142  0.0073
  181SOPE  H11X20728   6.022   4.397   7.527  0.9441  0.5564  0.3169
  181SOPE  H11Y20729   5.840   4.403   7.545 -0.3820  0.6091 -0.0162
  181SOPE  C31220730   5.957   4.560   7.629 -0.9920  0.8170 -0.3580
  181SOPE  H12X20731   5.887   4.646   7.621 -1.3882  0.5022 -0.2811
  181SOPE  H12Y20732   6.061   4.599   7.621 -0.1472 -1.4809 -1.6226
  181SOPE  C31320733   5.917   4.509   7.766  0.7622  0.2361 -0.4753
  181SOPE  H13X20734   5.967   4.571   7.843 -1.4675  1.5572 -0.0042
  181SOPE  H13Y20735   5.954   4.405   7.774 -0.3292 -0.1027  0.3032
  181SOPE  C31420736   5.761   4.511   7.800 -0.2085  0.1683  0.2395
  181SOPE  H14X20737   5.708   4.442   7.731  0.9549  0.6308 -1.1731
  181SOPE  H14Y20738   5.748   4.619   7.776 -2.0013 -0.0811 -0.0373
  181SOPE  C31520739   5.759   4.474   7.952  0.6845 -0.7280  0.4671
  181SOPE  H15X20740   5.655   4.498   7.983 -0.6243 -3.8843 -1.0363
  181SOPE  H15Y20741   5.834   4.533   8.008 -1.9432  0.3195  3.1210
  181SOPE  C31620742   5.790   4.323   7.960 -0.9971  0.1540  0.1767
  181SOPE  H16X20743   5.893   4.299   7.923 -0.9424  1.2867 -0.4642
  181SOPE  H16Y20744   5.720   4.267   7.895 -0.1894 -0.0244 -0.5699
  181SOPE  C31720745   5.780   4.288   8.102 -0.6193  0.4922 -0.3989
  181SOPE  H17X20746   5.671   4.300   8.115 -0.6942 -1.1045  0.5658
  181SOPE  H17Y20747   5.824   4.366   8.169 -0.1331 -0.1158 -0.0065
  181SOPE  C31820748   5.845   4.154   8.148  0.3739 -0.0137 -0.1382
  181SOPE  H18X20749   5.821   4.078   8.071  2.5560  0.2416 -1.1158
  181SOPE  H18Y20750   5.793   4.124   8.242  3.0724 -1.6880  0.9225
  181SOPE  H18Z20751   5.954   4.158   8.169  0.7699  0.9370 -2.1524
  182SOPE     N20752   0.561   1.980   6.470 -0.2974  0.1672 -0.8521
  182SOPE   HN120753   0.559   2.026   6.376 -1.2164 -2.1235 -2.0504
  182SOPE   HN220754   0.641   1.914   6.459  0.8904  1.0840  1.5740
  182SOPE   HN320755   0.469   1.935   6.491 -0.0159  0.1487  0.4179
  182SOPE   C1220756   0.606   2.078   6.581  0.7539  0.6582 -0.2352
  182SOPE  H12A20757   0.596   2.024   6.677  0.1398 -1.2109 -1.2964
  182SOPE  H12B20758   0.523   2.153   6.583 -0.7110 -0.9166  0.5301
  182SOPE   C1120759   0.738   2.146   6.566  0.0403 -0.3670 -0.1515
  182SOPE  H11A20760   0.829   2.082   6.560  1.2812  1.3462 -0.3972
  182SOPE  H11B20761   0.752   2.202   6.660 -1.4595 -1.6249  0.8621
  182SOPE     P20762   0.723   2.379   6.442 -0.2962  0.3385  0.0028
  182SOPE   O1320763   0.649   2.428   6.326 -0.2913  0.0806 -0.1828
  182SOPE   O1420764   0.857   2.437   6.470  0.1510 -0.2577  0.0744
  182SOPE   O1220765   0.741   2.223   6.441  0.4312 -0.5034  0.3458
  182SOPE   O1120766   0.640   2.400   6.571  0.1045 -0.2021 -0.0614
  182SOPE    C120767   0.626   2.530   6.625  0.0940  0.3696  0.4317
  182SOPE    HA20768   0.555   2.590   6.565  1.5542  0.6711 -1.1029
  182SOPE    HB20769   0.722   2.585   6.631  1.0184 -0.9247 -1.4140
  182SOPE    C220770   0.573   2.521   6.772  0.2742  0.1949 -0.4682
  182SOPE    HS20771   0.487   2.452   6.762  0.2322  0.0555  0.7432
  182SOPE   O2120772   0.530   2.646   6.823 -0.3703 -1.0172  0.5659
  182SOPE   C2120773   0.404   2.687   6.795 -0.6878 -0.3240  0.5031
  182SOPE   O2220774   0.322   2.622   6.732 -0.2649 -0.4712 -0.8337
  182SOPE   C2220775   0.384   2.835   6.838  0.4405 -0.0296  0.6138
  182SOPE   H2R20776   0.374   2.883   6.739 -0.1660 -2.7611 -0.7391
  182SOPE   H2S20777   0.477   2.859   6.895  1.9242 -0.0707 -1.6534
  182SOPE    C320778   0.680   2.456   6.859  0.2114 -0.1405  0.3369
  182SOPE    HX20779   0.777   2.510   6.849  0.3722 -0.5920 -0.6386
  182SOPE    HY20780   0.718   2.360   6.818 -0.0459 -0.4561  0.8405
  182SOPE   O3120781   0.638   2.444   6.995  0.1323  0.0587  0.0439
  182SOPE   C3120782   0.568   2.331   7.021 -1.1397  0.0864  0.4103
  182SOPE   O3220783   0.570   2.236   6.941  0.3662  0.5588  0.3624
  182SOPE   C3220784   0.517   2.330   7.159 -0.0354 -0.6598  0.8363
  182SOPE   H2X20785   0.591   2.378   7.227  0.4803  1.1970 -0.9358
  182SOPE   H2Y20786   0.493   2.225   7.188 -0.4024 -0.4438  1.3364
  182SOPE   C2320787   0.255   2.848   6.925  0.8797 -0.1852 -0.1060
  182SOPE   H3R20788   0.170   2.801   6.870  0.4728 -1.6344  1.6848
  182SOPE   H3S20789   0.237   2.957   6.935  0.6333 -0.0546 -1.7190
  182SOPE   C2420790   0.282   2.789   7.063 -0.0144  0.3775 -0.1212
  182SOPE   H4R20791   0.282   2.678   7.060  0.2376  0.3453  0.8204
  182SOPE   H4S20792   0.383   2.807   7.105  0.1091  0.2063 -0.3397
  182SOPE   C2520793   0.185   2.831   7.171  0.2803  0.4213 -1.0548
  182SOPE   H5R20794   0.194   2.939   7.192  0.5124  0.0093  1.2103
  182SOPE   H5S20795   0.085   2.794   7.139  0.0619 -0.8831  0.9424
  182SOPE   C2620796   0.216   2.741   7.297  0.0379 -0.4765 -0.6307
  182SOPE   H6R20797   0.218   2.631   7.282 -2.1382 -0.4847 -1.1769
  182SOPE   H6S20798   0.315   2.770   7.339 -0.7068  0.2386  0.7187
  182SOPE   C2720799   0.111   2.770   7.401 -0.5444  0.3124 -0.1795
  182SOPE   H7R20800   0.085   2.877   7.390  0.0668  0.5408  0.5213
  182SOPE   H7S20801   0.023   2.702   7.397 -1.7258  1.6822  1.3923
  182SOPE   C2820802   0.180   2.760   7.547  0.6096 -0.0517 -0.4630
  182SOPE   H8R20803   0.219   2.657   7.563  1.6401  0.4835  0.5531
  182SOPE   H8S20804   0.262   2.835   7.547  0.0517  0.5675  0.0113
  182SOPE   C2920805   0.080   2.787   7.661 -0.0351 -1.3249  0.1731
  182SOPE   H9120806   0.043   2.888   7.643  0.8200 -1.1689 -0.8165
  182SOPE  C21020807   0.034   2.702   7.751  0.1732 -0.0097 -0.5403
  182SOPE  H10120808  -0.037   2.744   7.823 -1.5758  0.4216 -2.4274
  182SOPE  C21120809   0.086   2.564   7.780  0.3810 -0.8818  0.7848
  182SOPE  H11R20810   0.166   2.535   7.709 -0.0899  0.4001 -0.3039
  182SOPE  H11S20811   0.010   2.488   7.752  0.8710 -0.3651 -2.2511
  182SOPE  C21220812   0.132   2.538   7.916  0.4201  0.4311  0.8606
  182SOPE  H12R20813   0.222   2.600   7.939 -0.0897  2.1352 -1.4091
  182SOPE  H12S20814   0.161   2.434   7.943 -0.4467 -0.0697 -0.0879
  182SOPE  C21320815   0.029   2.577   8.027  0.3547 -0.4048 -0.0408
  182SOPE  H13R20816  -0.067   2.521   8.020  1.1265 -1.5852 -2.1903
  182SOPE  H13S20817   0.006   2.685   8.020 -0.4528 -0.4893  0.9999
  182SOPE  C21420818   0.091   2.555   8.167  0.1054 -0.3219 -0.0778
  182SOPE  H14R20819   0.161   2.641   8.174 -1.6681  1.2244 -0.4296
  182SOPE  H14S20820   0.149   2.460   8.168  0.6260 -0.0223 -0.6962
  182SOPE  C21520821  -0.005   2.549   8.287 -0.7392 -0.8660 -0.1610
  182SOPE  H15R20822  -0.064   2.457   8.268  0.5893 -1.5003 -1.4963
  182SOPE  H15S20823  -0.061   2.643   8.301 -0.9134 -0.6106 -2.1832
  182SOPE  C21620824   0.069   2.527   8.420  0.0634  0.1448  0.0311
  182SOPE  H16R20825   0.130   2.618   8.437  0.9977 -0.5308  0.4034
  182SOPE  H16S20826   0.136   2.438   8.417  0.5508  0.4122  1.6502
  182SOPE  C21720827  -0.028   2.491   8.541 -0.0627 -0.3700  0.4688
  182SOPE  H17R20828   0.037   2.478   8.630  1.4184 -0.1369 -0.5386
  182SOPE  H17S20829  -0.066   2.388   8.523  1.3803 -0.7036 -0.9078
  182SOPE  C21820830  -0.157   2.577   8.554 -1.0239  0.8509 -0.5350
  182SOPE  H18R20831  -0.129   2.681   8.581 -0.6575  0.2673  1.5163
  182SOPE  H18S20832  -0.217   2.525   8.632  0.9173  2.9000  2.5528
  182SOPE  H18T20833  -0.202   2.586   8.453 -2.4229  1.2210  0.1010
  182SOPE   C3320834   0.378   2.401   7.171  0.0457 -0.4181  0.2714
  182SOPE   H3X20835   0.318   2.371   7.083  2.0141 -0.0204 -1.2996
  182SOPE   H3Y20836   0.381   2.512   7.169  2.4955 -0.4219 -1.5438
  182SOPE   C3420837   0.315   2.347   7.293  0.7335 -0.2479 -0.0509
  182SOPE   H4X20838   0.300   2.237   7.292 -1.8228  0.0242  1.1181
  182SOPE   H4Y20839   0.212   2.386   7.281  1.0180  0.4188 -0.3739
  182SOPE   C3520840   0.374   2.383   7.430 -0.3408 -0.2641  0.5644
  182SOPE   H5X20841   0.339   2.483   7.463  0.5119  0.3304 -0.2947
  182SOPE   H5Y20842   0.485   2.388   7.424 -0.3883  0.7652  0.4606
  182SOPE   C3620843   0.331   2.285   7.531  0.0166  0.6761 -0.7711
  182SOPE   H6X20844   0.374   2.316   7.629  0.5935  0.4497 -0.9527
  182SOPE   H6Y20845   0.363   2.181   7.507 -2.4356  0.2467 -2.5152
  182SOPE   C3720846   0.169   2.276   7.540 -0.0223  0.5970  0.6253
  182SOPE   H7X20847   0.123   2.272   7.439  0.9514  1.6440  0.1109
  182SOPE   H7Y20848   0.135   2.373   7.583 -0.1741  0.7582  0.1505
  182SOPE   C3820849   0.118   2.155   7.607 -0.3984 -0.0766  0.2188
  182SOPE   H8X20850   0.158   2.068   7.550  0.2072  0.4320 -0.1375
  182SOPE   H8Y20851   0.008   2.165   7.608 -0.2307  2.5541 -0.5748
  182SOPE   C3920852   0.161   2.148   7.756 -0.3749 -0.2738  0.3761
  182SOPE   H9X20853   0.150   2.247   7.805 -0.6682 -0.6693  1.1194
  182SOPE   H9Y20854   0.269   2.122   7.758 -0.2380  0.2359 -0.0764
  182SOPE  C31020855   0.099   2.037   7.845  0.3640  0.1019 -0.1694
  182SOPE  H10X20856  -0.012   2.048   7.852  0.5908  3.0818 -0.2957
  182SOPE  H10Y20857   0.145   2.062   7.943 -0.0726 -0.2568  0.1331
  182SOPE  C31120858   0.118   1.893   7.798  0.8980 -0.1763 -0.3085
  182SOPE  H11X20859   0.172   1.893   7.701 -2.2515  0.5166 -2.1877
  182SOPE  H11Y20860   0.016   1.855   7.777  0.3863  0.9099  0.1400
  182SOPE  C31220861   0.175   1.804   7.910  0.0507  0.0703  1.1829
  182SOPE  H12X20862   0.162   1.697   7.883  0.9278  0.1992  0.1524
  182SOPE  H12Y20863   0.125   1.829   8.006  0.5524  1.0227  1.2073
  182SOPE  C31320864   0.325   1.825   7.915 -0.0401  0.6663 -0.0882
  182SOPE  H13X20865   0.360   1.922   7.955  1.6106  0.3033 -0.5913
  182SOPE  H13Y20866   0.366   1.817   7.812  1.4203  0.4342  0.4884
  182SOPE  C31420867   0.385   1.706   7.986 -0.7007 -0.1050  0.9474
  182SOPE  H14X20868   0.384   1.620   7.915 -1.4719  1.5498 -1.1663
  182SOPE  H14Y20869   0.320   1.672   8.069 -0.4711 -2.0101  0.3967
  182SOPE  C31520870   0.533   1.712   8.042 -0.4941 -0.4541 -0.0058
  182SOPE  H15X20871   0.617   1.736   7.973 -0.3894  1.3521  0.6812
  182SOPE  H15Y20872   0.554   1.609   8.079  0.1808  0.5508  2.6795
  182SOPE  C31620873   0.568   1.809   8.161  0.4993 -0.2772 -0.1839
  182SOPE  H16X20874   0.517   1.767   8.251  1.1134  2.1692  1.4223
  182SOPE  H16Y20875   0.533   1.913   8.145 -0.0213 -0.6097 -1.2962
  182SOPE  C31720876   0.723   1.815   8.195  0.3089  0.1462 -0.3477
  182SOPE  H17X20877   0.780   1.858   8.111  3.3538 -2.6630  0.1130
  182SOPE  H17Y20878   0.747   1.707   8.198  0.3655  0.1707  0.2473
  182SOPE  C31820879   0.748   1.879   8.330 -0.2212 -0.5583 -0.1948
  182SOPE  H18X20880   0.852   1.871   8.367  0.7727  1.7782 -2.1497
  182SOPE  H18Y20881   0.676   1.836   8.402 -0.3731 -0.4502 -0.2800
  182SOPE  H18Z20882   0.718   1.986   8.325  2.7779  0.3982  0.5717
  183SOPE     N20883   2.422   5.592   6.330  0.0137  0.4152  0.0025
  183SOPE   HN120884   2.449   5.500   6.290  0.6157  0.6966 -0.2573
  183SOPE   HN220885   2.329   5.628   6.299  0.5970  2.8493  0.8407
  183SOPE   HN320886   2.495   5.663   6.307  0.5783  0.2067  1.1130
  183SOPE   C1220887   2.424   5.573   6.479  0.3680 -0.7461  0.1555
  183SOPE  H12A20888   2.342   5.504   6.506 -0.9198  0.9024  0.6181
  183SOPE  H12B20889   2.412   5.677   6.516 -1.0789 -0.5259 -0.8642
  183SOPE   C1120890   2.556   5.516   6.530 -0.1367  0.7239 -0.3836
  183SOPE  H11A20891   2.540   5.509   6.640 -0.6185 -2.4067 -0.5546
  183SOPE  H11B20892   2.637   5.586   6.499  1.9820 -1.9115 -1.2546
  183SOPE     P20893   2.716   5.325   6.477 -0.0797  0.4758  0.0825
  183SOPE   O1320894   2.813   5.405   6.403  0.5019 -0.3451  0.1117
  183SOPE   O1420895   2.727   5.175   6.459  0.3151 -0.3978 -0.0082
  183SOPE   O1220896   2.574   5.388   6.472  0.3073 -0.0204 -0.0665
  183SOPE   O1120897   2.751   5.351   6.630 -0.2731 -0.2917  0.1550
  183SOPE    C120898   2.716   5.260   6.736 -0.3162  0.4032 -0.3580
  183SOPE    HA20899   2.809   5.228   6.788 -0.1982  1.2388 -0.0352
  183SOPE    HB20900   2.659   5.169   6.708 -1.3748  1.4834 -1.8243
  183SOPE    C220901   2.647   5.334   6.856  0.3255 -0.0568 -0.5380
  183SOPE    HS20902   2.548   5.360   6.812 -1.9161 -3.1118  2.2086
  183SOPE   O2120903   2.729   5.444   6.900 -0.5570 -0.1037  0.3994
  183SOPE   C2120904   2.652   5.544   6.942 -0.5694 -0.7912  0.3499
  183SOPE   O2220905   2.531   5.554   6.924 -0.5633  0.0727  0.2414
  183SOPE   C2220906   2.735   5.645   7.018 -0.7078  0.0960  0.3485
  183SOPE   H2R20907   2.724   5.736   6.955 -1.5024  0.7280  1.3689
  183SOPE   H2S20908   2.844   5.621   7.019 -0.3389  1.4856  3.2251
  183SOPE    C320909   2.628   5.235   6.968  0.0142  0.1454  0.7480
  183SOPE    HX20910   2.730   5.203   6.999  1.4176  1.7621 -1.7901
  183SOPE    HY20911   2.574   5.144   6.937  0.7179  0.2531 -0.9157
  183SOPE   O3120912   2.570   5.297   7.084  0.1164  0.4040  0.0327
  183SOPE   C3120913   2.444   5.310   7.086  0.3824  0.1483 -1.1371
  183SOPE   O3220914   2.363   5.278   6.999 -0.1899 -0.2006  0.1376
  183SOPE   C3220915   2.400   5.376   7.221 -0.2013  0.5687  0.8709
  183SOPE   H2X20916   2.432   5.482   7.206 -0.0955  0.1392 -2.5311
  183SOPE   H2Y20917   2.456   5.323   7.301 -0.6589  0.6964  1.2843
  183SOPE   C2320918   2.693   5.665   7.170 -0.5688 -0.1996  0.0748
  183SOPE   H3R20919   2.583   5.675   7.166 -0.3815  2.6069 -0.0160
  183SOPE   H3S20920   2.719   5.761   7.220  2.3309 -1.1728  0.6196
  183SOPE   C2420921   2.740   5.552   7.260  0.3882 -0.6246 -0.4022
  183SOPE   H4R20922   2.731   5.450   7.217  0.7999 -0.7078 -0.2953
  183SOPE   H4S20923   2.850   5.558   7.278  0.2261  0.4523  0.3204
  183SOPE   C2520924   2.669   5.560   7.399  0.2037  0.1648  0.2438
  183SOPE   H5R20925   2.677   5.662   7.444 -0.3259  2.0385 -3.5052
  183SOPE   H5S20926   2.561   5.536   7.386 -0.0747  0.9966  0.8944
  183SOPE   C2620927   2.729   5.460   7.498 -0.0410 -1.2945  0.4717
  183SOPE   H6R20928   2.692   5.359   7.470 -1.8346 -0.5461  0.0283
  183SOPE   H6S20929   2.837   5.487   7.510 -0.3327 -0.1815  0.7018
  183SOPE   C2720930   2.669   5.473   7.640 -0.5092 -0.1034  0.5782
  183SOPE   H7R20931   2.692   5.564   7.699 -1.0038  0.3995  0.0027
  183SOPE   H7S20932   2.560   5.465   7.625 -0.6389 -0.2036  1.5364
  183SOPE   C2820933   2.703   5.349   7.729  0.0432  0.3829  0.1310
  183SOPE   H8R20934   2.625   5.358   7.807  2.5793  2.4793  2.7030
  183SOPE   H8S20935   2.687   5.254   7.675 -0.1835  1.1032 -1.0962
  183SOPE   C2920936   2.849   5.353   7.779  1.0717 -0.0527  0.3576
  183SOPE   H9120937   2.927   5.362   7.702  0.7187 -1.3958 -0.1889
  183SOPE  C21020938   2.888   5.358   7.905 -0.7960 -0.7220  0.0939
  183SOPE  H10120939   2.994   5.359   7.932 -0.4511  1.3406 -1.0955
  183SOPE  C21120940   2.801   5.362   8.021  0.5635 -0.3123 -0.1720
  183SOPE  H11R20941   2.765   5.261   8.049  3.4609 -0.6875  2.8703
  183SOPE  H11S20942   2.713   5.426   7.998  0.0472 -1.0476 -0.2858
  183SOPE  C21220943   2.866   5.425   8.144 -0.1392 -0.0938 -0.2234
  183SOPE  H12R20944   2.935   5.510   8.123  0.8122 -0.4336  1.3798
  183SOPE  H12S20945   2.927   5.354   8.203 -2.4240 -2.5611 -0.6067
  183SOPE  C21320946   2.759   5.469   8.250  0.1475 -0.3573 -0.2648
  183SOPE  H13R20947   2.676   5.529   8.206 -0.5486  0.7806  2.4188
  183SOPE  H13S20948   2.797   5.541   8.325 -1.6000  0.5032 -0.1489
  183SOPE  C21420949   2.704   5.347   8.328  0.5791 -0.6138  0.0138
  183SOPE  H14R20950   2.790   5.298   8.379  1.3716 -1.0827 -1.6968
  183SOPE  H14S20951   2.648   5.284   8.255  0.3625  1.1147 -1.3797
  183SOPE  C21520952   2.612   5.398   8.441 -0.7051  0.9666  0.0799
  183SOPE  H15R20953   2.541   5.471   8.399 -0.0496  0.3498 -2.2197
  183SOPE  H15S20954   2.671   5.454   8.516 -0.2130  1.2740 -0.5296
  183SOPE  C21620955   2.541   5.278   8.508  0.1464  0.0021  0.3046
  183SOPE  H16R20956   2.470   5.229   8.438  0.6017 -0.5285  0.2042
  183SOPE  H16S20957   2.491   5.319   8.599 -0.9661  1.1594 -0.7827
  183SOPE  C21720958   2.649   5.176   8.551 -1.1371  0.3171  0.5273
  183SOPE  H17R20959   2.729   5.227   8.608 -1.4285  1.4370 -0.0371
  183SOPE  H17S20960   2.687   5.126   8.459 -3.0365 -1.0309  0.4065
  183SOPE  C21820961   2.604   5.054   8.630 -0.3642  0.1830  0.1909
  183SOPE  H18R20962   2.567   5.078   8.732 -1.8179 -1.2400  0.0485
  183SOPE  H18S20963   2.681   4.976   8.647 -1.4499 -1.5064 -2.1732
  183SOPE  H18T20964   2.519   5.009   8.575 -1.8946  0.0897  2.4781
  183SOPE   C3320965   2.252   5.386   7.252 -0.1904 -0.4301  0.1116
  183SOPE   H3X20966   2.205   5.285   7.247 -0.6945 -0.2089  0.2409
  183SOPE   H3Y20967   2.212   5.454   7.175  0.4893  0.7923  0.8164
  183SOPE   C3420968   2.212   5.436   7.393 -0.0500  0.5252 -1.3217
  183SOPE   H4X20969   2.102   5.433   7.411 -0.0239  1.7371 -0.9044
  183SOPE   H4Y20970   2.245   5.540   7.412  0.6171  0.0481  0.2360
  183SOPE   C3520971   2.290   5.347   7.509  0.5801 -0.1241  0.8127
  183SOPE   H5X20972   2.398   5.365   7.490 -0.0980  2.0632 -1.6522
  183SOPE   H5Y20973   2.263   5.243   7.484  0.3468  0.5014 -1.7894
  183SOPE   C3620974   2.240   5.386   7.644 -0.3520 -0.1882 -0.5175
  183SOPE   H6X20975   2.133   5.355   7.652 -0.7687  1.6551  2.3668
  183SOPE   H6Y20976   2.248   5.494   7.666  2.2737 -0.5873  0.8137
  183SOPE   C3720977   2.318   5.315   7.751 -0.1219  0.1654  0.0152
  183SOPE   H7X20978   2.429   5.312   7.747 -0.1449 -3.0876 -1.1127
  183SOPE   H7Y20979   2.297   5.206   7.753 -0.0292  0.1101  2.7360
  183SOPE   C3820980   2.294   5.380   7.889 -0.6449 -0.1489 -0.2514
  183SOPE   H8X20981   2.186   5.398   7.901 -0.7179 -1.7588  2.0965
  183SOPE   H8Y20982   2.346   5.478   7.883  0.9531 -0.9334 -0.0088
  183SOPE   C3920983   2.360   5.294   8.005 -0.4596  0.5649 -0.3443
  183SOPE   H9X20984   2.469   5.282   7.988 -0.0941  0.1144  1.9623
  183SOPE   H9Y20985   2.320   5.191   7.994 -0.0471  0.4543 -0.8172
  183SOPE  C31020986   2.349   5.351   8.149  0.3123  0.7550  0.3726
  183SOPE  H10X20987   2.386   5.455   8.145 -0.0647  0.8894  0.3341
  183SOPE  H10Y20988   2.427   5.297   8.208  2.1636  3.5855  0.6811
  183SOPE  C31120989   2.207   5.343   8.200  0.5196 -0.3486 -0.5742
  183SOPE  H11X20990   2.146   5.400   8.126  0.1545  0.7084  0.5168
  183SOPE  H11Y20991   2.200   5.421   8.278 -1.5468 -0.8776 -0.1844
  183SOPE  C31220992   2.147   5.201   8.223  0.0866  0.7497 -0.4197
  183SOPE  H12X20993   2.210   5.141   8.155  0.1707 -0.7294  0.9020
  183SOPE  H12Y20994   2.048   5.195   8.173 -0.1435  0.3021  0.0839
  183SOPE  C31320995   2.155   5.140   8.367  0.0804  0.3806 -0.4897
  183SOPE  H13X20996   2.052   5.117   8.403 -0.4192  0.3905 -1.8355
  183SOPE  H13Y20997   2.190   5.214   8.442 -1.4444 -0.4862  1.1592
  183SOPE  C31420998   2.230   5.006   8.375 -0.1157  1.2223 -0.5376
  183SOPE  H14X20999   2.337   5.012   8.345 -0.1253 -0.2295 -0.9435
  183SOPE  H14Y21000   2.183   4.939   8.301 -2.7761  1.7388  0.5866
  183SOPE  C31521001   2.225   4.940   8.514  0.3295  0.2294  0.0955
  183SOPE  H15X21002   2.121   4.919   8.547  0.3992  0.8246  0.7065
  183SOPE  H15Y21003   2.262   5.018   8.584  1.5008 -1.1285  1.0634
  183SOPE  C31621004   2.312   4.818   8.534  0.2281 -0.1033 -0.2869
  183SOPE  H16X21005   2.420   4.837   8.514  0.3652 -1.0697 -0.4956
  183SOPE  H16Y21006   2.278   4.740   8.463 -0.3287 -0.5648  0.4779
  183SOPE  C31721007   2.293   4.750   8.678  0.1860 -0.0156 -0.4372
  183SOPE  H17X21008   2.335   4.648   8.688 -2.2090 -1.1184 -1.0074
  183SOPE  H17Y21009   2.184   4.748   8.699  0.5589  4.0855  3.4732
  183SOPE  C31821010   2.347   4.829   8.800 -0.6225  0.0989 -0.5619
  183SOPE  H18X21011   2.457   4.845   8.796 -0.7683  0.8884 -2.3727
  183SOPE  H18Y21012   2.305   4.789   8.895 -0.0358 -0.4641 -0.5350
  183SOPE  H18Z21013   2.306   4.932   8.791 -0.4832  0.2370  0.2407
  184SOPE     N21014   1.814   5.688   6.016  0.8200  0.4198  0.1972
  184SOPE   HN121015   1.765   5.634   5.942 -0.0447 -0.7834  1.5832
  184SOPE   HN221016   1.858   5.614   6.073  0.0726 -1.6942 -1.8040
  184SOPE   HN321017   1.737   5.722   6.077 -0.0038 -2.9979  1.2714
  184SOPE   C1221018   1.916   5.783   5.961 -0.0304 -0.7848  1.0065
  184SOPE  H12A21019   1.870   5.872   5.914  1.8323  1.0800  2.5419
  184SOPE  H12B21020   1.990   5.728   5.899  2.2586 -0.0850  3.0095
  184SOPE   C1121021   1.988   5.843   6.081  0.2650 -0.8282 -0.9537
  184SOPE  H11A21022   2.069   5.910   6.045 -0.5246 -0.4197 -2.0376
  184SOPE  H11B21023   2.041   5.758   6.128  0.6626 -0.7375 -1.2372
  184SOPE     P21024   1.877   6.042   6.210 -0.0832 -0.1716 -0.1561
  184SOPE   O1321025   1.752   6.048   6.287  0.1513  0.2460  0.4005
  184SOPE   O1421026   1.886   6.129   6.095 -0.1539  0.7843  0.1591
  184SOPE   O1221027   1.892   5.887   6.179 -0.4129 -0.3095  1.1640
  184SOPE   O1121028   1.993   6.073   6.305 -0.3920 -0.1824 -0.7031
  184SOPE    C121029   2.010   5.985   6.424  0.1445  0.5304  0.4413
  184SOPE    HA21030   2.117   5.996   6.451  0.6787 -0.6788 -1.0268
  184SOPE    HB21031   2.005   5.878   6.393  0.3335  0.3064  1.1733
  184SOPE    C221032   1.932   6.043   6.546 -0.2784  0.1184 -0.1348
  184SOPE    HS21033   1.831   6.071   6.507 -0.5809 -1.2524 -0.3997
  184SOPE   O2121034   2.014   6.152   6.599 -0.0500  0.1066 -0.2492
  184SOPE   C2121035   1.941   6.258   6.631  0.4534 -0.2923  0.1259
  184SOPE   O2221036   1.827   6.278   6.596  0.7532 -0.2532  0.1238
  184SOPE   C2221037   2.033   6.350   6.715  0.2277  1.1345  0.9537
  184SOPE   H2R21038   2.078   6.433   6.657 -3.4280  3.0297  0.5160
  184SOPE   H2S21039   2.122   6.297   6.755  0.1905  0.7119  0.4915
  184SOPE    C321040   1.895   5.950   6.664  0.6659 -0.8064 -0.5397
  184SOPE    HX21041   1.991   5.915   6.708 -1.1706 -2.7926  2.2054
  184SOPE    HY21042   1.842   5.857   6.634 -0.1244 -0.2809 -0.8040
  184SOPE   O3121043   1.822   6.029   6.773 -0.6907  0.3791 -0.1029
  184SOPE   C3121044   1.692   6.023   6.761  0.0530  0.3786  0.2457
  184SOPE   O3221045   1.631   5.963   6.674  0.4614 -0.4210  0.6820
  184SOPE   C3221046   1.619   6.105   6.870 -0.2835  0.1664 -0.8367
  184SOPE   H2X21047   1.649   6.212   6.865  1.7340 -0.4174 -2.1169
  184SOPE   H2Y21048   1.650   6.050   6.962  2.1755  1.4674 -0.8214
  184SOPE   C2321049   1.962   6.409   6.830  0.9767 -0.1530  0.4374
  184SOPE   H3R21050   1.905   6.330   6.882 -0.3378 -2.9205 -4.6242
  184SOPE   H3S21051   1.891   6.485   6.791  0.5296 -0.3916  0.7737
  184SOPE   C2421052   2.060   6.478   6.926  0.7257  0.1009  0.1167
  184SOPE   H4R21053   2.145   6.408   6.943 -0.7195 -1.6168  0.5177
  184SOPE   H4S21054   2.094   6.577   6.889  2.2169 -0.2812  0.3872
  184SOPE   C2521055   1.994   6.497   7.064 -0.4411  1.0743 -0.3462
  184SOPE   H5R21056   2.050   6.564   7.133  0.5645 -1.6114  1.6178
  184SOPE   H5S21057   1.892   6.533   7.042 -0.4802  1.4631  0.4347
  184SOPE   C2621058   1.978   6.365   7.142 -0.0328  0.1699  0.1577
  184SOPE   H6R21059   1.913   6.287   7.097 -1.7620  2.5795 -1.7402
  184SOPE   H6S21060   2.076   6.313   7.150 -1.1894 -1.8417  3.7530
  184SOPE   C2721061   1.907   6.403   7.271 -0.4465 -0.0523  0.3177
  184SOPE   H7R21062   1.979   6.461   7.332  1.0603  0.2057 -1.5970
  184SOPE   H7S21063   1.815   6.461   7.245 -0.5591  0.2969  1.4648
  184SOPE   C2821064   1.849   6.283   7.350  0.0035 -0.1442 -0.1178
  184SOPE   H8R21065   1.785   6.217   7.288  0.8397  0.0697 -1.2396
  184SOPE   H8S21066   1.939   6.225   7.382 -0.2471  0.6822  2.3517
  184SOPE   C2921067   1.779   6.319   7.484  0.2605 -0.1475  0.0736
  184SOPE   H9121068   1.670   6.308   7.483  0.1079  0.2997  3.0879
  184SOPE  C21021069   1.843   6.359   7.596  0.1060 -0.4169 -0.0090
  184SOPE  H10121070   1.785   6.381   7.688  1.7537  2.2068  0.5254
  184SOPE  C21121071   1.995   6.361   7.627 -0.2971  0.3939  0.3581
  184SOPE  H11R21072   2.062   6.323   7.547  1.0151  3.7223 -0.2909
  184SOPE  H11S21073   2.016   6.287   7.707  2.7785  0.8649  0.0988
  184SOPE  C21221074   2.056   6.499   7.674 -0.2959 -0.4216 -0.2610
  184SOPE  H12R21075   2.010   6.532   7.770  0.5798  2.2057 -0.6435
  184SOPE  H12S21076   2.042   6.580   7.599  0.6636  1.4048  1.4396
  184SOPE  C21321077   2.205   6.475   7.694 -0.5825  0.7156  0.5065
  184SOPE  H13R21078   2.245   6.421   7.606 -2.7775 -1.6903  0.8521
  184SOPE  H13S21079   2.216   6.398   7.773  2.0291  0.9401  0.4331
  184SOPE  C21421080   2.268   6.614   7.729 -0.5697  0.6028  0.1749
  184SOPE  H14R21081   2.207   6.694   7.682 -1.0401 -0.0564 -0.3467
  184SOPE  H14S21082   2.371   6.621   7.690  0.5911  0.1967  2.9102
  184SOPE  C21521083   2.290   6.618   7.881  0.6491 -0.4911 -0.0401
  184SOPE  H15R21084   2.352   6.535   7.921  1.4062  0.2535  0.3574
  184SOPE  H15S21085   2.184   6.610   7.913 -0.1475  0.2222 -2.3216
  184SOPE  C21621086   2.342   6.758   7.931  0.3542 -0.1626 -0.0482
  184SOPE  H16R21087   2.278   6.843   7.897 -0.0282 -0.0902  0.8375
  184SOPE  H16S21088   2.439   6.773   7.880  0.0261  1.7506 -0.2033
  184SOPE  C21721089   2.378   6.755   8.077  0.4851 -0.6774  0.5862
  184SOPE  H17R21090   2.457   6.679   8.094  0.6380 -0.5624  0.3987
  184SOPE  H17S21091   2.292   6.714   8.133 -0.5237  0.2462 -0.2532
  184SOPE  C21821092   2.428   6.890   8.119  0.7797  0.0022  0.1109
  184SOPE  H18R21093   2.534   6.908   8.091  0.1797  1.1811 -1.5611
  184SOPE  H18S21094   2.420   6.898   8.230  3.0240  1.5420  0.2438
  184SOPE  H18T21095   2.366   6.968   8.071 -0.8378 -0.6595  1.0454
  184SOPE   C3321096   1.466   6.095   6.846 -0.1900 -0.4998  0.5672
  184SOPE   H3X21097   1.423   5.994   6.866  0.6982 -1.1855 -0.8304
  184SOPE   H3Y21098   1.445   6.128   6.742  2.3946 -0.2752  0.0481
  184SOPE   C3421099   1.388   6.195   6.933  0.0444 -0.4101 -0.3374
  184SOPE   H4X21100   1.280   6.174   6.916 -0.9470  2.2100  1.9512
  184SOPE   H4Y21101   1.398   6.297   6.889 -0.8234 -0.2759 -0.2428
  184SOPE   C3521102   1.413   6.177   7.091 -0.2148  0.0724  0.1456
  184SOPE   H5X21103   1.342   6.255   7.128 -0.3296  1.0506 -1.9842
  184SOPE   H5Y21104   1.517   6.205   7.119 -1.0570  1.1936  2.5072
  184SOPE   C3621105   1.390   6.040   7.140 -0.2879 -0.5818 -0.1753
  184SOPE   H6X21106   1.439   5.973   7.067  0.8664  0.5714 -0.5056
  184SOPE   H6Y21107   1.290   6.013   7.101  0.2086  1.4232 -3.1562
  184SOPE   C3721108   1.404   6.017   7.291 -0.5071  0.1388  0.2286
  184SOPE   H7X21109   1.507   6.030   7.329  0.5042 -1.8655 -1.6098
  184SOPE   H7Y21110   1.378   5.910   7.311 -0.2253  0.1268  0.5350
  184SOPE   C3821111   1.300   6.097   7.389 -0.0818  0.6700 -0.1447
  184SOPE   H8X21112   1.193   6.081   7.362  0.3196 -1.4278 -0.6959
  184SOPE   H8Y21113   1.325   6.203   7.367  2.9740  0.4973  1.8358
  184SOPE   C3921114   1.328   6.077   7.536 -0.4915  0.5667 -0.6692
  184SOPE   H9X21115   1.317   5.969   7.559 -1.7637  1.2218  2.3712
  184SOPE   H9Y21116   1.250   6.135   7.591 -2.0911  1.8063 -3.9836
  184SOPE  C31021117   1.455   6.132   7.607 -0.3457  0.1676 -0.4536
  184SOPE  H10X21118   1.465   6.243   7.609  0.2546  0.1556 -1.6973
  184SOPE  H10Y21119   1.534   6.079   7.549 -0.2113 -0.4148  0.2548
  184SOPE  C31121120   1.469   6.097   7.752  0.1779 -0.1485 -0.8550
  184SOPE  H11X21121   1.456   5.986   7.757  3.4544 -0.6571 -1.4690
  184SOPE  H11Y21122   1.390   6.147   7.812  1.3450 -0.5827  1.1262
  184SOPE  C31221123   1.610   6.133   7.814 -0.1766  0.4640 -0.0870
  184SOPE  H12X21124   1.617   6.244   7.827 -0.1775  0.3590  0.8791
  184SOPE  H12Y21125   1.686   6.102   7.739 -1.0839 -0.2012 -0.7464
  184SOPE  C31321126   1.636   6.051   7.937 -0.1655  0.1371 -0.6373
  184SOPE  H13X21127   1.621   5.945   7.908 -1.7556  0.7205 -2.1702
  184SOPE  H13Y21128   1.562   6.082   8.014  0.9107  0.1836  0.3900
  184SOPE  C31421129   1.783   6.062   7.984  0.2595 -0.4117  0.1243
  184SOPE  H14X21130   1.853   6.031   7.904 -0.5697 -1.0217 -0.3887
  184SOPE  H14Y21131   1.796   5.988   8.066 -0.3164  0.7409  1.3063
  184SOPE  C31521132   1.803   6.202   8.035 -0.2353  0.1263 -0.5256
  184SOPE  H15X21133   1.710   6.232   8.089  0.6589 -1.0000  1.7924
  184SOPE  H15Y21134   1.808   6.273   7.950  2.9221  1.2181  0.4420
  184SOPE  C31621135   1.926   6.227   8.127  0.1909  0.0607 -0.0554
  184SOPE  H16X21136   2.016   6.175   8.087  0.0360 -0.8450  0.7164
  184SOPE  H16Y21137   1.915   6.176   8.226  0.4303  1.8563  0.9429
  184SOPE  C31721138   1.960   6.381   8.137  0.1409 -0.1530  0.2056
  184SOPE  H17X21139   1.869   6.431   8.176  2.0273  0.4790  4.3646
  184SOPE  H17Y21140   1.983   6.411   8.032  2.2211 -2.5901 -0.1179
  184SOPE  C31821141   2.074   6.409   8.219 -0.0027  0.1184  0.1208
  184SOPE  H18X21142   2.050   6.440   8.323  1.1325 -1.1802  0.8111
  184SOPE  H18Y21143   2.138   6.489   8.175 -0.4622  1.0134  1.0405
  184SOPE  H18Z21144   2.142   6.321   8.227 -2.4876 -2.0103 -0.8489
  185SAPI   C1221145   2.785   4.769  10.862  0.0747 -0.0321 -0.4870
  185SAPI    H221146   2.847   4.752  10.771  4.2173 -2.6598  2.4632
  185SAPI    O221147   2.663   4.840  10.829  0.5152  0.4629  0.4909
  185SAPI   HO221148   2.606   4.785  10.775  1.7461  0.0628 -0.4498
  185SAPI   C1321149   2.751   4.631  10.925  0.0382  0.0404 -0.2919
  185SAPI    H321150   2.854   4.591  10.934  0.7588  1.8121 -0.1776
  185SAPI    O321151   2.688   4.540  10.826  0.3431 -0.2914 -0.8567
  185SAPI   HO321152   2.624   4.590  10.776  1.7863  0.9816 -1.5266
  185SAPI   C1421153   2.681   4.655  11.054  0.0801 -0.0159  0.3375
  185SAPI    H421154   2.588   4.713  11.037 -0.2200 -0.1376  1.4564
  185SAPI    O421155   2.637   4.529  11.107 -0.2083 -0.0628 -0.0344
  185SAPI   HO421156   2.548   4.512  11.075  0.6765 -2.3125 -1.5402
  185SAPI   C1521157   2.770   4.732  11.151  0.2473 -0.0642 -0.2538
  185SAPI    H521158   2.858   4.669  11.176  2.1063  2.5227  0.1017
  185SAPI    O521159   2.708   4.750  11.278  0.1305  0.0983  0.4208
  185SAPI   HO521160   2.691   4.664  11.316  0.1791 -1.5180 -2.7957
  185SAPI   C1621161   2.819   4.859  11.088  0.1597  0.0251 -0.3769
  185SAPI    H621162   2.731   4.926  11.076  0.9277  1.1585  0.1579
  185SAPI    O621163   2.912   4.925  11.175 -1.0300 -0.2768  0.1235
  185SAPI   HO621164   2.995   4.881  11.157 -1.0554 -1.2715  2.1127
  185SAPI   C1121165   2.876   4.841  10.951 -0.4402 -1.0003 -0.3798
  185SAPI    H121166   2.970   4.782  10.960  0.5373  0.6841  1.1217
  185SAPI     P21167   3.053   4.985  10.793 -0.4723  0.1142 -0.1776
  185SAPI   O1321168   3.177   4.944  10.869 -0.2551 -0.6115  0.5616
  185SAPI   O1421169   3.055   5.119  10.727 -0.2799 -0.2896  0.0256
  185SAPI   O1221170   2.915   4.971  10.893 -0.4961  0.2872 -0.4933
  185SAPI   O1121171   3.032   4.870  10.685  0.0742  0.0485  0.9070
  185SAPI    C121172   3.121   4.764  10.663  0.3202  0.5314  0.8194
  185SAPI    HA21173   3.228   4.795  10.670  0.2091  1.3402 -0.6410
  185SAPI    HB21174   3.112   4.693  10.748  0.5625  0.5155  0.8330
  185SAPI    C221175   3.080   4.685  10.536  0.4098 -0.1543 -0.7417
  185SAPI    HS21176   3.176   4.641  10.502  1.0207  0.8174 -0.3021
  185SAPI   O2121177   3.029   4.779  10.436  0.1251  0.4747  0.7413
  185SAPI   C2121178   3.130   4.858  10.385  0.0463  0.6904 -0.4458
  185SAPI   O2221179   3.243   4.871  10.433  0.2063 -0.0455 -0.1264
  185SAPI   C2221180   3.088   4.920  10.253  0.4500  0.0997 -0.0027
  185SAPI   H2R21181   3.177   4.898  10.191  0.0391 -0.8337 -0.2883
  185SAPI   H2S21182   2.999   4.877  10.201 -1.0523 -0.1536  2.5868
  185SAPI    C321183   2.965   4.578  10.568 -0.2604 -0.2109  0.3129
  185SAPI    HX21184   2.865   4.628  10.569 -0.5901 -0.8589  0.6172
  185SAPI    HY21185   2.980   4.553  10.675 -1.1836  2.2779  1.1007
  185SAPI   O3121186   2.961   4.474  10.470  0.3631 -0.3315 -0.2948
  185SAPI   C3121187   3.046   4.369  10.483  0.5197  0.0005  0.0763
  185SAPI   O3221188   3.147   4.375  10.551 -0.1015 -0.1713 -0.0652
  185SAPI   C3221189   2.996   4.251  10.396  0.5348 -0.0031  0.6493
  185SAPI   H2X21190   2.888   4.231  10.415 -0.6693  2.1017 -2.9170
  185SAPI   H2Y21191   3.050   4.158  10.422  1.7904  0.9297  1.5313
  185SAPI   C2321192   3.085   5.076  10.254 -1.0183  0.3028  0.3588
  185SAPI   H3R21193   3.169   5.120  10.310 -0.5832  0.4078 -0.3580
  185SAPI   H3S21194   2.989   5.111  10.298 -2.1472 -2.4311  0.2915
  185SAPI   C2421195   3.075   5.134  10.111  0.1385 -0.4626  0.5380
  185SAPI   H4R21196   3.164   5.119  10.047  0.1381  1.1269  0.1339
  185SAPI   H4S21197   3.077   5.244  10.125  1.4167 -0.5465  1.1692
  185SAPI   C2521198   2.953   5.102  10.023  0.5688 -0.4165 -0.4728
  185SAPI   H5R21199   2.856   5.108  10.074  0.7031  0.7158 -0.3224
  185SAPI   C2621200   2.951   5.048   9.901 -0.6982 -0.1788 -0.0094
  185SAPI   H6R21201   2.856   5.025   9.850 -0.9319  1.4521 -0.3507
  185SAPI   C2721202   3.072   5.014   9.822  0.2804 -0.3641 -0.2900
  185SAPI   H7R21203   3.072   4.915   9.772  0.3295 -0.6535  0.2699
  185SAPI   H7S21204   3.163   5.002   9.885 -0.1240 -0.2010  0.3406
  185SAPI   C2821205   3.098   5.137   9.728 -0.2968  0.3221 -0.2401
  185SAPI   H8R21206   3.158   5.216   9.774  0.8582 -0.7927  0.2044
  185SAPI   C2921207   3.056   5.160   9.603  0.8525 -0.6978  0.4097
  185SAPI   H9R21208   3.112   5.234   9.544 -0.1348  0.8294  1.3299
  185SAPI  C21021209   2.973   5.066   9.516  0.0304 -0.3065 -0.1460
  185SAPI  H10R21210   2.912   5.136   9.454  3.0234  2.3451 -0.3897
  185SAPI  H10S21211   2.903   5.000   9.571  0.1849  0.0856  0.5205
  185SAPI  C21121212   3.059   4.987   9.424 -0.1699  0.9364  0.4700
  185SAPI  H11R21213   3.093   4.892   9.467 -3.8359 -1.2454 -0.9434
  185SAPI  C21221214   3.112   5.021   9.300 -0.4494  0.7531 -0.4330
  185SAPI  H12R21215   3.160   4.939   9.244 -0.7854  0.2830 -0.0380
  185SAPI  C21321216   3.090   5.155   9.233  0.2684  0.0324 -0.7327
  185SAPI  H13R21217   3.054   5.223   9.312  0.2401 -2.2490  1.3323
  185SAPI  H13S21218   3.010   5.145   9.156  0.1660 -1.4101 -0.4734
  185SAPI  C21421219   3.206   5.219   9.167 -0.4247  0.0041  0.5312
  185SAPI  H14R21220   3.273   5.267   9.240  0.5366  1.0158 -0.9447
  185SAPI  C21521221   3.231   5.252   9.039 -0.5942  0.1441 -0.2607
  185SAPI  H15R21222   3.327   5.291   9.003  0.3522 -1.1995  0.7503
  185SAPI  C21621223   3.137   5.227   8.918 -0.8224 -0.0289  0.1266
  185SAPI  H16R21224   3.043   5.280   8.944 -0.0814  0.5853  1.7516
  185SAPI  H16S21225   3.116   5.120   8.901 -2.5305 -0.5014  4.1188
  185SAPI  C21721226   3.159   5.298   8.782 -0.1839  0.0323 -0.5910
  185SAPI  H17R21227   3.255   5.277   8.730 -1.0849  0.2918 -2.4360
  185SAPI  H17S21228   3.159   5.408   8.795  0.9370  0.0270 -0.4359
  185SAPI  C21821229   3.046   5.250   8.687  0.5912 -0.5438 -0.3630
  185SAPI  H18R21230   2.954   5.307   8.711  0.8386  0.2579 -1.2748
  185SAPI  H18S21231   3.021   5.145   8.715 -2.2615  0.5065  1.4346
  185SAPI  C21921232   3.062   5.270   8.538  0.7514 -0.1109 -0.2473
  185SAPI  H19R21233   2.978   5.227   8.479 -0.4990  0.1715  1.2641
  185SAPI  H19S21234   3.148   5.205   8.511  0.8887  0.0855 -0.2805
  185SAPI  C22021235   3.070   5.415   8.487 -1.0314 -0.2115 -0.2005
  185SAPI  H20R21236   3.150   5.472   8.538 -1.1000 -0.1744 -0.1349
  185SAPI  H20S21237   2.972   5.466   8.490  0.3886  2.6315  2.0558
  185SAPI  H20T21238   3.101   5.406   8.380  2.9272  0.2056  0.7865
  185SAPI   C3321239   3.007   4.282  10.243 -0.2327  0.1234  0.3095
  185SAPI   H3X21240   3.110   4.323  10.236 -0.8216  1.3780 -2.1421
  185SAPI   H3Y21241   2.937   4.362  10.208 -0.7795 -0.1172  0.8411
  185SAPI   C3421242   3.004   4.157  10.160 -0.0382  1.1823 -0.4595
  185SAPI   H4X21243   2.902   4.118  10.179  0.2529 -1.0616 -2.8458
  185SAPI   H4Y21244   3.082   4.084  10.191 -1.1895  0.1207  0.0118
  185SAPI   C3521245   3.027   4.171  10.013  0.2283 -0.5317  0.2847
  185SAPI   H5X21246   3.113   4.240  10.000 -0.2713  0.0756  0.1262
  185SAPI   H5Y21247   2.940   4.220   9.964  0.4700 -0.2257  0.1616
  185SAPI   C3621248   3.050   4.040   9.940 -0.1664  0.2394  0.0323
  185SAPI   H6X21249   2.968   3.974   9.976  0.2304 -0.2527  0.0603
  185SAPI   H6Y21250   3.136   3.992   9.991  0.0238 -0.0281 -0.5251
  185SAPI   C3721251   3.057   4.047   9.785  0.4086  0.6088  0.8222
  185SAPI   H7X21252   2.959   4.076   9.741 -0.9310 -0.2570  3.0857
  185SAPI   H7Y21253   3.086   3.943   9.759  1.1365  0.5724  1.7387
  185SAPI   C3821254   3.167   4.141   9.731  0.2552  0.1439  0.3597
  185SAPI   H8X21255   3.263   4.125   9.785 -0.4787 -1.8201  1.1949
  185SAPI   H8Y21256   3.148   4.247   9.754 -1.1638 -0.3157  1.3821
  185SAPI   C3921257   3.179   4.122   9.579 -0.0064 -0.6453 -0.1908
  185SAPI   H9X21258   3.177   4.015   9.552 -0.3746 -0.3467 -1.4056
  185SAPI   H9Y21259   3.277   4.158   9.541  0.1145  0.1902  0.8419
  185SAPI  C31021260   3.081   4.206   9.502  0.3002  0.1888  0.5800
  185SAPI  H10X21261   3.137   4.299   9.479  0.2261 -0.1699 -1.1784
  185SAPI  H10Y21262   2.981   4.217   9.550 -0.4517  0.8297 -1.0561
  185SAPI  C31121263   3.063   4.141   9.361 -0.0890  0.5071 -0.2961
  185SAPI  H11X21264   3.159   4.098   9.325  0.3353 -1.0100  2.3963
  185SAPI  H11Y21265   3.023   4.208   9.282  0.4541 -1.4048 -2.2922
  185SAPI  C31221266   2.966   4.018   9.372 -0.2799  0.1124 -0.6484
  185SAPI  H12X21267   2.864   4.051   9.400 -1.4861  0.3832 -4.6618
  185SAPI  H12Y21268   3.003   3.939   9.441  1.1366 -1.1981 -2.7857
  185SAPI  C31321269   2.945   3.960   9.229 -0.1395  0.4283  0.3523
  185SAPI  H13X21270   3.029   3.900   9.188 -0.3589 -0.7500  1.5728
  185SAPI  H13Y21271   2.930   4.050   9.165  2.5523 -0.4291 -1.7264
  185SAPI  C31421272   2.830   3.867   9.221  0.7835  0.2451  0.6912
  185SAPI  H14X21273   2.740   3.920   9.259 -1.1643 -1.5154 -1.2155
  185SAPI  H14Y21274   2.841   3.786   9.297  0.1643 -0.7436 -0.2335
  185SAPI  C31521275   2.797   3.808   9.078  0.6231 -0.1733 -0.1718
  185SAPI  H15X21276   2.782   3.891   9.005  0.5818 -1.3150 -1.4952
  185SAPI  H15Y21277   2.699   3.756   9.086 -0.0676  1.3120  2.7920
  185SAPI  C31621278   2.907   3.717   9.021 -0.5414 -0.5238  0.3195
  185SAPI  H16X21279   2.904   3.614   9.062  1.1414 -0.2981  1.0814
  185SAPI  H16Y21280   3.006   3.765   9.039  0.3892 -2.3012  0.1795
  185SAPI  C31721281   2.898   3.705   8.865 -0.7175 -0.5341  0.4024
  185SAPI  H17X21282   2.877   3.804   8.821  2.0358  0.6426  1.5277
  185SAPI  H17Y21283   2.814   3.639   8.833 -1.6048  1.4328 -1.6129
  185SAPI  C31821284   3.036   3.660   8.804  0.3917  0.5074 -0.1050
  185SAPI  H18X21285   3.047   3.665   8.693 -0.7157 -2.0676 -0.4177
  185SAPI  H18Y21286   3.064   3.555   8.829  3.2336  1.2187  0.0567
  185SAPI  H18Z21287   3.118   3.722   8.847  1.5985  0.1564 -1.7920
  186SAPI   C1221288   2.752   1.852  10.960 -0.4337 -0.1300  0.0542
  186SAPI    H221289   2.826   1.803  10.893 -1.6172 -2.4381  0.3323
  186SAPI    O221290   2.624   1.824  10.902  0.0731  0.0660  0.3049
  186SAPI   HO221291   2.636   1.844  10.809  1.8141  1.4307  0.7562
  186SAPI   C1321292   2.771   1.783  11.100  0.7388 -0.0274  0.4391
  186SAPI    H321293   2.875   1.817  11.121  0.5546  0.4602  0.5598
  186SAPI    O321294   2.763   1.635  11.099  0.0210  0.1959 -0.0783
  186SAPI   HO321295   2.672   1.609  11.085 -0.0797 -0.5476  1.6723
  186SAPI   C1421296   2.675   1.845  11.198  0.0692  0.4564 -0.5167
  186SAPI    H421297   2.576   1.824  11.150 -0.4642  1.5317  0.0768
  186SAPI    O421298   2.695   1.781  11.329 -0.0496 -0.7594 -0.1226
  186SAPI   HO421299   2.719   1.850  11.391 -2.0256  1.1155 -1.3012
  186SAPI   C1521300   2.681   1.994  11.210 -0.4081 -0.7833 -0.1237
  186SAPI    H521301   2.782   2.025  11.242 -1.1581  6.5001 -2.8256
  186SAPI    O521302   2.592   2.055  11.298 -0.3442 -0.3835 -0.2428
  186SAPI   HO521303   2.552   1.986  11.350 -0.9330  0.3063  0.2444
  186SAPI   C1621304   2.675   2.060  11.070  0.0279 -0.8163  0.0527
  186SAPI    H621305   2.570   2.056  11.034  0.2590  1.1989 -0.9551
  186SAPI    O621306   2.695   2.206  11.077 -0.9233  0.1182 -0.9280
  186SAPI   HO621307   2.638   2.235  11.149 -0.9804  1.0618 -1.3453
  186SAPI   C1121308   2.776   2.000  10.976 -0.7490 -0.0032  0.9971
  186SAPI    H121309   2.880   2.008  11.014 -0.4150  1.5190 -0.1409
  186SAPI     P21310   2.900   2.105  10.768 -0.1481 -0.3875  0.4496
  186SAPI   O1321311   3.014   2.093  10.857 -0.3904 -0.1383  0.1331
  186SAPI   O1421312   2.872   2.237  10.706 -0.3887  0.1989  0.2373
  186SAPI   O1221313   2.760   2.064  10.845  0.0871 -0.3796 -0.5195
  186SAPI   O1121314   2.912   1.997  10.650 -0.1427  0.1859 -0.3536
  186SAPI    C121315   2.798   1.976  10.566  0.1752 -0.0672 -0.1014
  186SAPI    HA21316   2.733   1.897  10.609  0.5716  0.5125  1.6380
  186SAPI    HB21317   2.740   2.070  10.558 -2.1641 -1.3311  1.0255
  186SAPI    C221318   2.839   1.944  10.421 -0.5237  0.2236 -0.0651
  186SAPI    HS21319   2.862   1.835  10.428  1.5615  0.6216 -0.0068
  186SAPI   O2121320   2.958   2.017  10.385 -0.0574 -0.1987  0.6257
  186SAPI   C2121321   3.059   1.946  10.339  0.5341 -0.0033 -0.1092
  186SAPI   O2221322   3.057   1.829  10.312 -0.1960  0.1155 -0.0992
  186SAPI   C2221323   3.172   2.052  10.324 -0.1186  0.1017  0.1907
  186SAPI   H2R21324   3.143   2.121  10.241 -2.5952 -1.0005  0.0494
  186SAPI   H2S21325   3.170   2.111  10.418  0.8353 -0.9037  0.8605
  186SAPI    C321326   2.719   1.967  10.319  0.0113  0.2324 -0.9664
  186SAPI    HX21327   2.704   2.076  10.335  1.6447  0.2798  0.5247
  186SAPI    HY21328   2.638   1.897  10.349 -0.8783  0.4701 -2.6919
  186SAPI   O3121329   2.771   1.939  10.192  0.0363  0.3858 -0.2885
  186SAPI   C3121330   2.698   1.970  10.087 -0.1182 -0.7943  0.4410
  186SAPI   O3221331   2.598   2.039  10.081  0.1007  0.7150  0.5102
  186SAPI   C3221332   2.763   1.894   9.970 -0.0742 -0.9096 -0.3137
  186SAPI   H2X21333   2.752   1.784   9.985  0.5633 -1.2336 -1.9682
  186SAPI   H2Y21334   2.870   1.920   9.979  0.0956 -1.4143 -0.7713
  186SAPI   C2321335   3.324   2.005  10.318  0.2737 -0.2496  0.7465
  186SAPI   H3R21336   3.332   1.911  10.377 -0.9737  0.2720  1.8084
  186SAPI   H3S21337   3.387   2.078  10.373  0.7921 -0.9520  1.1018
  186SAPI   C2421338   3.392   1.982  10.183 -0.3537  0.6150  1.0867
  186SAPI   H4R21339   3.493   1.945  10.209  0.3650  2.4983  1.1069
  186SAPI   H4S21340   3.411   2.067  10.115 -0.9739 -0.8087 -0.9806
  186SAPI   C2521341   3.329   1.870  10.103 -0.9652 -0.4643 -0.6475
  186SAPI   H5R21342   3.319   1.778  10.162 -0.4455  0.5767  1.1351
  186SAPI   C2621343   3.282   1.873   9.972 -0.4963  0.5504 -0.7419
  186SAPI   H6R21344   3.261   1.774   9.930 -1.3304  0.2697  0.2707
  186SAPI   C2721345   3.289   1.983   9.872  0.7375 -0.1045 -0.5093
  186SAPI   H7R21346   3.352   1.953   9.785 -0.4615 -0.8180 -1.1627
  186SAPI   H7S21347   3.353   2.063   9.915 -0.4604  0.8569 -0.4428
  186SAPI   C2821348   3.145   2.032   9.854  0.2800 -0.0003  0.3803
  186SAPI   H8R21349   3.113   2.082   9.947  0.3902  1.3796 -0.2994
  186SAPI   C2921350   3.064   2.014   9.752 -0.3537  0.5020  1.0031
  186SAPI   H9R21351   2.962   2.055   9.753 -1.4040 -1.1246 -4.1479
  186SAPI  C21021352   3.106   1.943   9.625 -0.4369 -0.5478 -0.6933
  186SAPI  H10R21353   3.010   1.907   9.583  0.2738 -0.4024 -2.5141
  186SAPI  H10S21354   3.172   1.856   9.642 -0.1743 -0.1918  0.1742
  186SAPI  C21121355   3.184   2.020   9.519  0.5451  0.0532  0.6258
  186SAPI  H11R21356   3.248   2.100   9.560  2.7385 -1.1199 -0.3332
  186SAPI  C21221357   3.191   1.988   9.389  0.3101 -0.2103  0.3548
  186SAPI  H12R21358   3.237   2.054   9.313 -0.3550 -1.2971 -1.0414
  186SAPI  C21321359   3.111   1.874   9.320  0.3306  0.2847  0.1918
  186SAPI  H13R21360   3.023   1.848   9.383 -1.1939  2.6158 -0.8148
  186SAPI  H13S21361   3.166   1.781   9.296  1.0742  1.0100 -0.9969
  186SAPI  C21421362   3.052   1.912   9.186  0.1022  0.1307  0.4673
  186SAPI  H14R21363   2.942   1.905   9.180  0.2377 -3.4311  0.4920
  186SAPI  C21521364   3.107   1.949   9.065  0.1959  0.4492 -0.2727
  186SAPI  H15R21365   3.036   1.969   8.984  0.4523 -0.8419 -0.8296
  186SAPI  C21621366   3.250   1.953   9.018  0.1544  0.7939 -0.3929
  186SAPI  H16R21367   3.317   1.908   9.094  0.6464 -0.2227 -1.4032
  186SAPI  H16S21368   3.281   2.057   8.992  0.3120  0.7222 -0.4892
  186SAPI  C21721369   3.285   1.869   8.889  0.1279  0.3360 -0.0680
  186SAPI  H17R21370   3.393   1.875   8.864  0.1134 -0.9672 -0.5005
  186SAPI  H17S21371   3.230   1.926   8.811  0.1327  3.6143  2.1169
  186SAPI  C21821372   3.257   1.718   8.893  0.2956 -0.3775 -0.5091
  186SAPI  H18R21373   3.147   1.702   8.901  0.0445  1.2068 -0.5152
  186SAPI  H18S21374   3.301   1.662   8.979 -1.4165  0.2799  0.8460
  186SAPI  C21921375   3.302   1.653   8.759 -0.1470  0.1608 -0.3664
  186SAPI  H19R21376   3.409   1.627   8.765 -0.4739 -0.8739  1.6177
  186SAPI  H19S21377   3.290   1.716   8.668  0.2339  1.7178  0.6295
  186SAPI  C22021378   3.233   1.522   8.740 -0.2947  0.0188  0.5218
  186SAPI  H20R21379   3.276   1.473   8.650 -1.1911 -0.6298  0.4248
  186SAPI  H20S21380   3.123   1.535   8.729 -0.2859 -0.1971  0.1491
  186SAPI  H20T21381   3.258   1.452   8.822 -0.4803 -1.1256 -0.3750
  186SAPI   C3321382   2.710   1.927   9.830 -0.6788  0.3411  0.0858
  186SAPI   H3X21383   2.781   1.881   9.758  0.9625  0.4640  1.5556
  186SAPI   H3Y21384   2.696   2.036   9.813 -1.1347  0.2792  0.0443
  186SAPI   C3421385   2.574   1.860   9.806 -0.4844  0.2054 -0.1938
  186SAPI   H4X21386   2.504   1.929   9.858 -1.2010 -1.0975  0.6077
  186SAPI   H4Y21387   2.575   1.759   9.853  0.1694 -0.0232 -0.6787
  186SAPI   C3521388   2.536   1.837   9.664 -0.2953 -0.3646 -0.1944
  186SAPI   H5X21389   2.450   1.767   9.674 -2.4601  2.0797 -0.7423
  186SAPI   H5Y21390   2.619   1.789   9.607  0.6816 -0.2531  1.0799
  186SAPI   C3621391   2.489   1.954   9.580 -0.0679 -0.0031 -0.0952
  186SAPI   H6X21392   2.567   2.033   9.583  0.6678 -0.7432  0.7110
  186SAPI   H6Y21393   2.399   2.001   9.625  1.0927  1.9284  0.3184
  186SAPI   C3721394   2.444   1.911   9.444  0.9516 -0.0433 -0.0099
  186SAPI   H7X21395   2.359   1.973   9.407  1.6162  0.7360 -0.2517
  186SAPI   H7Y21396   2.411   1.805   9.441  3.4762 -0.9525  1.1356
  186SAPI   C3821397   2.561   1.919   9.352 -0.0608  0.1298 -0.2307
  186SAPI   H8X21398   2.642   1.849   9.382 -0.0069 -0.8179 -2.4272
  186SAPI   H8Y21399   2.601   2.022   9.346 -1.4383  0.8258  1.6494
  186SAPI   C3921400   2.528   1.882   9.204  0.0410 -0.0197  0.5991
  186SAPI   H9X21401   2.438   1.938   9.170 -0.4293  0.3450  2.3736
  186SAPI   H9Y21402   2.502   1.774   9.209  0.6230 -0.2951 -1.3170
  186SAPI  C31021403   2.638   1.885   9.096 -0.5684  0.7295 -0.4965
  186SAPI  H10X21404   2.610   1.820   9.011  0.2033 -0.7814  0.3598
  186SAPI  H10Y21405   2.724   1.832   9.144 -0.8525 -0.8425 -1.6425
  186SAPI  C31121406   2.675   2.022   9.035  0.3900  0.2487  0.1657
  186SAPI  H11X21407   2.738   1.993   8.948 -0.9391 -0.8150 -0.4826
  186SAPI  H11Y21408   2.729   2.083   9.111 -0.5457  4.2711 -2.0754
  186SAPI  C31221409   2.557   2.112   8.988 -0.6600  0.0242  0.6104
  186SAPI  H12X21410   2.613   2.200   8.950  2.2368 -2.2280 -0.8019
  186SAPI  H12Y21411   2.491   2.134   9.075  0.0347 -1.1299  1.4627
  186SAPI  C31321412   2.483   2.041   8.874 -0.5313 -0.2046 -0.5375
  186SAPI  H13X21413   2.427   1.952   8.907 -3.5421  1.8867  0.4077
  186SAPI  H13Y21414   2.564   2.000   8.810 -0.5601  0.8618 -1.2797
  186SAPI  C31421415   2.397   2.133   8.789 -0.1440 -0.4628  0.6770
  186SAPI  H14X21416   2.361   2.078   8.699  0.7978 -3.1737  1.8497
  186SAPI  H14Y21417   2.460   2.219   8.757  0.8868 -1.3916  0.1556
  186SAPI  C31521418   2.282   2.202   8.853  0.6325 -1.4799 -0.5681
  186SAPI  H15X21419   2.238   2.280   8.788  0.9636 -1.2841 -0.5569
  186SAPI  H15Y21420   2.313   2.263   8.940 -3.1323  1.2682 -0.8631
  186SAPI  C31621421   2.163   2.116   8.895 -0.1733  0.2032  0.0222
  186SAPI  H16X21422   2.203   2.068   8.987  1.5944  0.8207 -0.3950
  186SAPI  H16Y21423   2.140   2.036   8.821 -0.1261 -0.4128  0.6601
  186SAPI  C31721424   2.049   2.207   8.934  1.0257  0.0121 -0.2276
  186SAPI  H17X21425   2.003   2.270   8.854 -1.8821  1.2293  2.2117
  186SAPI  H17Y21426   2.088   2.288   8.999  1.4560  0.1708 -0.6752
  186SAPI  C31821427   1.934   2.128   9.003  0.0870 -0.1189 -0.3829
  186SAPI  H18X21428   1.924   2.026   8.960  2.4335 -0.0689 -1.2199
  186SAPI  H18Y21429   1.834   2.176   9.002 -0.7921 -1.8743 -0.1400
  186SAPI  H18Z21430   1.950   2.131   9.113  1.1041  1.4010 -0.5452
  187SAPI   C1221431   2.253   1.413   6.569  0.0903 -0.3361  0.5183
  187SAPI    H221432   2.232   1.458   6.668  2.3170  0.1948  0.8202
  187SAPI    O221433   2.343   1.310   6.604  0.0147 -0.4078 -0.0400
  187SAPI   HO221434   2.410   1.356   6.655  0.0471 -0.1524 -0.3065
  187SAPI   C1321435   2.120   1.364   6.516 -0.4858 -0.0561  0.1683
  187SAPI    H321436   2.054   1.450   6.493 -1.5987 -1.3837 -1.9707
  187SAPI    O321437   2.064   1.272   6.612 -0.1583 -0.3219  0.1696
  187SAPI   HO321438   2.128   1.202   6.623  0.9842  0.6613 -0.0514
  187SAPI   C1421439   2.150   1.303   6.379  0.4477 -0.1086  0.5345
  187SAPI    H421440   2.215   1.214   6.394  2.0258  0.3542 -2.6883
  187SAPI    O421441   2.032   1.245   6.327  0.0795 -0.7959  0.0768
  187SAPI   HO421442   1.981   1.310   6.278 -0.8374 -0.4967  1.3681
  187SAPI   C1521443   2.216   1.400   6.286  1.1884 -0.0086 -0.2063
  187SAPI    H521444   2.146   1.486   6.278  0.3612 -0.7417 -0.9066
  187SAPI    O521445   2.247   1.344   6.160 -0.1652  0.2745 -0.0979
  187SAPI   HO521446   2.320   1.390   6.120 -0.9777  1.7173  0.0339
  187SAPI   C1621447   2.343   1.468   6.347  0.2326 -0.2064 -0.6830
  187SAPI    H621448   2.415   1.384   6.353 -0.1869 -0.6355 -1.5790
  187SAPI    O621449   2.392   1.570   6.264  0.4463  0.2019  0.4736
  187SAPI   HO621450   2.422   1.653   6.303  1.1527  0.2750 -0.2124
  187SAPI   C1121451   2.309   1.519   6.484  0.0409  0.3661  0.4059
  187SAPI    H121452   2.225   1.592   6.483 -0.4153 -0.1151  1.7206
  187SAPI     P21453   2.457   1.730   6.554  0.0306 -0.4291  0.3045
  187SAPI   O1321454   2.420   1.787   6.422 -0.0954  0.4577 -0.1641
  187SAPI   O1421455   2.588   1.751   6.604 -0.7538  0.1033  0.0143
  187SAPI   O1221456   2.426   1.571   6.544 -0.6026  0.9738 -0.1813
  187SAPI   O1121457   2.357   1.769   6.666  0.8732 -0.5693 -0.2218
  187SAPI    C121458   2.404   1.790   6.798  0.1869  0.4403 -0.1978
  187SAPI    HA21459   2.494   1.852   6.817  0.5820 -0.3076  0.4448
  187SAPI    HB21460   2.323   1.834   6.859  0.8721  0.1249  0.9797
  187SAPI    C221461   2.433   1.648   6.859  0.3698  0.5729 -0.1293
  187SAPI    HS21462   2.486   1.583   6.786 -1.2475  0.8445 -1.6103
  187SAPI   O2121463   2.310   1.579   6.884 -0.1936 -0.5778  0.0772
  187SAPI   C2121464   2.319   1.449   6.908  0.2388  0.3605  0.6034
  187SAPI   O2221465   2.412   1.375   6.889 -0.1120 -0.7198  0.1904
  187SAPI   C2221466   2.193   1.408   6.980  0.1656 -0.5599  0.2577
  187SAPI   H2R21467   2.177   1.482   7.062  0.1542 -1.2560  0.8912
  187SAPI   H2S21468   2.114   1.418   6.902  2.4219  0.0998 -2.1066
  187SAPI    C321469   2.515   1.651   6.994 -0.3733 -0.0937 -1.4206
  187SAPI    HX21470   2.607   1.713   6.988 -0.2358 -0.1530 -0.1759
  187SAPI    HY21471   2.545   1.550   7.028 -1.3305  0.2521  0.5623
  187SAPI   O3121472   2.429   1.720   7.088 -0.4679  0.2818  0.1380
  187SAPI   C3121473   2.378   1.642   7.183 -0.3793  0.2421 -0.4196
  187SAPI   O3221474   2.379   1.522   7.187 -0.0347 -0.0940 -0.1600
  187SAPI   C3221475   2.286   1.727   7.271 -0.5443 -0.5502  0.2836
  187SAPI   H2X21476   2.225   1.788   7.201  0.6453  1.0231  0.5638
  187SAPI   H2Y21477   2.342   1.800   7.333 -0.0023 -0.3716 -0.4102
  187SAPI   C2321478   2.187   1.259   7.022 -0.1356  0.5884  0.0849
  187SAPI   H3R21479   2.231   1.189   6.948 -1.0260 -0.7684  0.7859
  187SAPI   H3S21480   2.082   1.220   7.026  1.4171 -4.2206  1.3351
  187SAPI   C2421481   2.239   1.244   7.169 -0.4681 -0.1134 -0.0652
  187SAPI   H4R21482   2.186   1.325   7.224  0.5691  0.7862 -0.3537
  187SAPI   H4S21483   2.344   1.280   7.164 -0.0766 -1.1179  0.6295
  187SAPI   C2521484   2.238   1.112   7.236  0.1345 -0.3861 -0.2467
  187SAPI   H5R21485   2.320   1.046   7.203  2.1931  1.4884  0.8456
  187SAPI   C2621486   2.153   1.072   7.333 -0.0914  0.0290  0.1186
  187SAPI   H6R21487   2.176   0.979   7.387 -0.4027  0.1732  0.5080
  187SAPI   C2721488   2.032   1.152   7.391 -0.2869  0.3784  1.0296
  187SAPI   H7R21489   1.967   1.064   7.409  1.1511 -0.9965 -0.2105
  187SAPI   H7S21490   1.975   1.225   7.330  0.0490 -0.4243 -0.2764
  187SAPI   C2821491   2.084   1.235   7.510 -0.1848  0.5501  0.2328
  187SAPI   H8R21492   2.189   1.266   7.497  0.0224 -0.4698 -0.7575
  187SAPI   C2921493   2.009   1.261   7.612 -0.1587  0.6305  0.5008
  187SAPI   H9R21494   2.051   1.322   7.694 -1.1205  1.6899  0.2237
  187SAPI  C21021495   1.866   1.224   7.627 -0.4464 -0.0184 -0.9191
  187SAPI  H10R21496   1.831   1.172   7.536  1.1907  1.5958 -2.5621
  187SAPI  H10S21497   1.811   1.316   7.656  0.7140 -0.0989  1.9275
  187SAPI  C21121498   1.862   1.119   7.734  0.1926 -0.2754  0.3227
  187SAPI  H11R21499   1.936   1.038   7.738  0.5783  0.0433 -0.2706
  187SAPI  C21221500   1.772   1.104   7.831 -0.2807  0.4340  0.4956
  187SAPI  H12R21501   1.789   1.026   7.906  1.7691 -0.4853 -0.8239
  187SAPI  C21321502   1.661   1.196   7.876 -0.1026 -0.0107 -0.0552
  187SAPI  H13R21503   1.667   1.287   7.813 -1.2194 -1.5314 -2.4998
  187SAPI  H13S21504   1.692   1.230   7.978 -1.9388 -0.1179  0.5716
  187SAPI  C21421505   1.522   1.142   7.866  0.9558  0.2590 -0.4342
  187SAPI  H14R21506   1.486   1.132   7.762 -1.5098 -0.0818  0.3801
  187SAPI  C21521507   1.433   1.116   7.962 -0.9764  0.7017 -0.9006
  187SAPI  H15R21508   1.337   1.069   7.933 -1.0251  0.3939 -0.2502
  187SAPI  C21621509   1.453   1.128   8.114  0.1873  0.0304  0.6495
  187SAPI  H16R21510   1.364   1.183   8.151 -0.5062  0.1237 -1.0563
  187SAPI  H16S21511   1.546   1.186   8.130 -0.2241  1.3468 -1.3393
  187SAPI  C21721512   1.474   1.003   8.191  0.0347 -0.4386  0.2909
  187SAPI  H17R21513   1.566   0.953   8.155  1.2487  2.5437 -0.9781
  187SAPI  H17S21514   1.398   0.921   8.191  0.6227 -0.9947  0.9978
  187SAPI  C21821515   1.492   1.028   8.338  0.2235  0.5361 -0.3375
  187SAPI  H18R21516   1.555   1.120   8.344  0.4717  0.5042 -2.0679
  187SAPI  H18S21517   1.555   0.942   8.370  1.0445  0.6941 -1.4709
  187SAPI  C21921518   1.358   1.047   8.411 -1.4084 -0.4152  0.3343
  187SAPI  H19R21519   1.293   0.957   8.397 -0.8227 -0.7233 -0.4485
  187SAPI  H19S21520   1.313   1.141   8.373  0.7754 -0.0394 -1.4930
  187SAPI  C22021521   1.384   1.058   8.561  0.1681  0.7787  0.6412
  187SAPI  H20R21522   1.465   1.125   8.597 -0.0470  0.3331  2.0437
  187SAPI  H20S21523   1.413   0.956   8.595  0.0666 -0.5534 -2.8736
  187SAPI  H20T21524   1.283   1.078   8.604 -0.8658 -1.1567 -0.7301
  187SAPI   C3321525   2.190   1.637   7.361 -0.1541 -0.7620  0.2695
  187SAPI   H3X21526   2.260   1.558   7.395 -0.2034 -0.6997  0.5215
  187SAPI   H3Y21527   2.104   1.589   7.309  1.1448 -1.9760 -0.8405
  187SAPI   C3421528   2.136   1.709   7.488 -0.9081 -0.5176  0.4285
  187SAPI   H4X21529   2.074   1.795   7.453  1.0631  1.1791  0.9256
  187SAPI   H4Y21530   2.219   1.752   7.548  0.4990 -2.0966 -0.3046
  187SAPI   C3521531   2.067   1.621   7.585 -0.1285  0.2102 -0.4209
  187SAPI   H5X21532   2.127   1.532   7.616 -0.7552  0.1395  0.6268
  187SAPI   H5Y21533   1.977   1.586   7.530 -1.0706  2.5212 -0.4678
  187SAPI   C3621534   2.028   1.697   7.718 -0.2146 -0.0175 -0.3033
  187SAPI   H6X21535   1.974   1.793   7.701 -2.4915 -0.9484  1.1432
  187SAPI   H6Y21536   2.119   1.731   7.771 -1.4671  1.5055  0.9978
  187SAPI   C3721537   1.952   1.606   7.814  0.0488  0.7364 -0.3163
  187SAPI   H7X21538   2.001   1.510   7.839 -2.7860 -0.6612  0.2213
  187SAPI   H7Y21539   1.856   1.586   7.761  0.1627 -2.1365  0.4358
  187SAPI   C3821540   1.924   1.664   7.953 -0.5847  0.6952 -0.1996
  187SAPI   H8X21541   1.877   1.763   7.938 -1.9954 -0.0469 -0.9050
  187SAPI   H8Y21542   2.022   1.674   8.004  0.0338 -2.0735 -0.6688
  187SAPI   C3921543   1.838   1.567   8.033 -0.1700 -0.2414 -0.2591
  187SAPI   H9X21544   1.900   1.477   8.052 -0.0675  0.1069  1.1729
  187SAPI   H9Y21545   1.759   1.540   7.959  1.0758 -1.7424 -1.1002
  187SAPI  C31021546   1.776   1.621   8.160 -0.0623 -0.4256  0.8846
  187SAPI  H10X21547   1.720   1.714   8.138  0.1048 -0.8887 -1.8464
  187SAPI  H10Y21548   1.854   1.644   8.235  0.1826 -0.9515  0.7977
  187SAPI  C31121549   1.676   1.514   8.227  0.2869  0.1753 -0.2642
  187SAPI  H11X21550   1.718   1.412   8.237  1.1499  0.5904  0.6085
  187SAPI  H11Y21551   1.586   1.504   8.164  0.2718 -0.3156 -0.1635
  187SAPI  C31221552   1.620   1.561   8.367 -1.0021  0.1372  0.3336
  187SAPI  H12X21553   1.558   1.647   8.333  1.2239  1.7828  0.1895
  187SAPI  H12Y21554   1.714   1.596   8.415  0.2031 -0.1388 -1.6939
  187SAPI  C31321555   1.535   1.468   8.448  0.5006 -0.5808  0.1840
  187SAPI  H13X21556   1.518   1.513   8.548  3.6092 -0.5506  0.7955
  187SAPI  H13Y21557   1.585   1.372   8.472 -0.1917 -1.0180 -0.0583
  187SAPI  C31421558   1.395   1.435   8.388  0.6990  0.4858  0.5178
  187SAPI  H14X21559   1.368   1.348   8.452 -0.2975  0.7025  0.4016
  187SAPI  H14Y21560   1.402   1.398   8.284 -0.0833 -0.2705  0.7231
  187SAPI  C31521561   1.298   1.545   8.407 -0.4067  0.5109 -0.3761
  187SAPI  H15X21562   1.319   1.626   8.333  1.6257 -0.5357 -1.0395
  187SAPI  H15Y21563   1.307   1.580   8.512 -0.4838  0.1220 -0.2368
  187SAPI  C31621564   1.153   1.496   8.363  0.4076 -0.2701 -0.6346
  187SAPI  H16X21565   1.137   1.393   8.402 -0.7324 -0.2294 -0.9772
  187SAPI  H16Y21566   1.156   1.492   8.252 -0.1577 -2.3397 -0.6093
  187SAPI  C31721567   1.044   1.583   8.422  0.1327  0.1476  0.4004
  187SAPI  H17X21568   1.060   1.680   8.371  0.3690 -0.0505  0.0944
  187SAPI  H17Y21569   1.059   1.595   8.531  0.0804 -0.9813  0.5479
  187SAPI  C31821570   0.896   1.541   8.394 -0.1652  0.0647 -0.1519
  187SAPI  H18X21571   0.831   1.623   8.431  0.4573  0.3884  0.2491
  187SAPI  H18Y21572   0.875   1.449   8.453  1.9025  1.7821  3.5998
  187SAPI  H18Z21573   0.890   1.527   8.284 -0.4400 -0.1557 -0.1108
  188SAPI   C1221574   3.251   5.058   6.387  0.3448  0.0880 -0.5260
  188SAPI    H221575   3.285   5.071   6.493 -2.5047  1.1379  0.3407
  188SAPI    O221576   3.351   5.004   6.308  0.1239 -0.4028 -0.5326
  188SAPI   HO221577   3.406   4.937   6.349  2.1180  0.5040 -1.5767
  188SAPI   C1321578   3.125   4.981   6.383 -0.0711 -0.9483 -0.3819
  188SAPI    H321579   3.064   5.035   6.458  1.5280  0.6957 -0.1933
  188SAPI    O321580   3.148   4.851   6.439 -0.1775  0.2368  0.2296
  188SAPI   HO321581   3.194   4.802   6.370  0.8711  0.8133  0.4954
  188SAPI   C1421582   3.055   4.985   6.254 -0.3991  0.3201  0.7411
  188SAPI    H421583   3.124   4.950   6.174  0.0495 -1.0358  1.6745
  188SAPI    O421584   2.948   4.886   6.250 -0.0076 -0.5148  0.2355
  188SAPI   HO421585   2.997   4.804   6.260 -0.6497 -0.7419  1.7773
  188SAPI   C1521586   3.032   5.127   6.214  0.2806 -0.4227  0.3515
  188SAPI    H521587   2.961   5.176   6.284  0.7278 -0.3554  0.7687
  188SAPI    O521588   2.968   5.123   6.086 -0.8031  0.0828 -0.1084
  188SAPI   HO521589   2.964   5.209   6.043 -1.4477 -0.9681 -2.2597
  188SAPI   C1621590   3.158   5.214   6.219 -0.2705 -0.1901 -0.7592
  188SAPI    H621591   3.240   5.185   6.151 -0.7433  0.3282 -1.5678
  188SAPI    O621592   3.121   5.352   6.193  0.1163  0.8122  0.8342
  188SAPI   HO621593   3.183   5.388   6.129  0.6944 -0.1286  0.8301
  188SAPI   C1121594   3.218   5.204   6.357  0.4270 -0.0733  0.2793
  188SAPI    H121595   3.139   5.234   6.428  0.7117 -1.3479  1.1837
  188SAPI     P21596   3.366   5.393   6.482  0.2008  0.3400 -0.0427
  188SAPI   O1321597   3.240   5.437   6.539  0.0120 -0.6156 -0.5691
  188SAPI   O1421598   3.453   5.499   6.416  0.0428 -0.5884 -0.1640
  188SAPI   O1221599   3.340   5.275   6.368  0.2442 -0.1375 -0.0109
  188SAPI   O1121600   3.446   5.328   6.597 -0.2496  0.0141 -1.0147
  188SAPI    C121601   3.570   5.261   6.576  0.2642 -0.1255 -0.0199
  188SAPI    HA21602   3.582   5.209   6.478  3.1578  2.3806 -1.1633
  188SAPI    HB21603   3.656   5.330   6.593 -0.1265 -0.0948  2.0481
  188SAPI    C221604   3.591   5.162   6.695  0.0109  0.3663  0.8120
  188SAPI    HS21605   3.497   5.105   6.709 -1.6454  2.2355 -1.7335
  188SAPI   O2121606   3.620   5.248   6.811  0.2742  0.1806  0.1523
  188SAPI   C2121607   3.575   5.205   6.930 -0.5164  0.1908 -0.1668
  188SAPI   O2221608   3.498   5.113   6.954  0.1792 -0.1059 -0.0441
  188SAPI   C2221609   3.634   5.297   7.028  0.1663 -0.3738 -0.4736
  188SAPI   H2R21610   3.678   5.384   6.974 -1.3407  1.4975  1.1536
  188SAPI   H2S21611   3.549   5.342   7.084 -1.1235 -1.2778 -1.6383
  188SAPI    C321612   3.709   5.053   6.678  0.3701  0.3804  0.8844
  188SAPI    HX21613   3.805   5.105   6.660 -0.4232  1.3527 -0.7294
  188SAPI    HY21614   3.677   4.980   6.602  0.1638  0.7677  0.5945
  188SAPI   O3121615   3.732   4.980   6.798  0.6563  0.5540 -0.3082
  188SAPI   C3121616   3.823   4.875   6.783  0.0417 -0.1040 -0.6841
  188SAPI   O3221617   3.874   4.851   6.675 -0.3057 -0.4089 -0.9307
  188SAPI   C3221618   3.823   4.785   6.909 -0.1440 -0.4451 -0.6701
  188SAPI   H2X21619   3.728   4.727   6.909  0.3839 -1.5004  2.7042
  188SAPI   H2Y21620   3.827   4.856   6.994 -0.3281  1.2632 -2.0379
  188SAPI   C2321621   3.742   5.237   7.125  0.2959 -0.0324 -0.6879
  188SAPI   H3R21622   3.798   5.317   7.177 -0.8801  0.0527  0.5048
  188SAPI   H3S21623   3.820   5.184   7.065  0.8002  0.4677 -0.4836
  188SAPI   C2421624   3.678   5.136   7.230 -0.0908  0.5039  0.4801
  188SAPI   H4R21625   3.759   5.088   7.289  0.3636  0.9764  0.2546
  188SAPI   H4S21626   3.634   5.049   7.177  2.3103 -1.5095  1.5362
  188SAPI   C2521627   3.577   5.198   7.326  0.0865  0.3286  0.4948
  188SAPI   H5R21628   3.493   5.230   7.263 -0.7598  1.5426  2.1468
  188SAPI   C2621629   3.561   5.194   7.466  0.4653 -0.3708  0.1110
  188SAPI   H6R21630   3.462   5.228   7.498 -1.1566 -1.8957 -2.8814
  188SAPI   C2721631   3.655   5.142   7.570  0.0247 -0.5273 -0.4093
  188SAPI   H7R21632   3.748   5.113   7.517  1.2321 -0.7905  1.7327
  188SAPI   H7S21633   3.616   5.049   7.616  0.2183  0.1873  1.2841
  188SAPI   C2821634   3.671   5.246   7.681 -0.3719 -0.2687 -0.2618
  188SAPI   H8R21635   3.634   5.347   7.654 -1.6175 -1.2718 -2.6400
  188SAPI   C2921636   3.709   5.221   7.810  0.2983 -0.1231 -0.0683
  188SAPI   H9R21637   3.714   5.302   7.884 -2.3253  1.2044 -1.2021
  188SAPI  C21021638   3.737   5.077   7.857 -0.3449 -0.6067  0.1186
  188SAPI  H10R21639   3.768   5.010   7.775  0.3979  1.3214 -1.2352
  188SAPI  H10S21640   3.644   5.033   7.900  0.3760  0.0947  2.5490
  188SAPI  C21121641   3.854   5.074   7.962  0.2618  1.1066 -0.1738
  188SAPI  H11R21642   3.939   5.018   7.919 -0.6683 -2.1547  1.8694
  188SAPI  C21221643   3.863   5.122   8.087  0.2277 -0.4742 -0.7001
  188SAPI  H12R21644   3.961   5.111   8.135 -0.4673 -2.0562  0.4461
  188SAPI  C21321645   3.760   5.203   8.158  0.0016 -0.4970 -0.5466
  188SAPI  H13R21646   3.662   5.195   8.106 -0.1952  0.6332 -0.3727
  188SAPI  H13S21647   3.792   5.308   8.173  0.5900 -0.7038 -0.3084
  188SAPI  C21421648   3.759   5.145   8.306 -0.0111  0.9498 -0.0346
  188SAPI  H14R21649   3.860   5.143   8.350 -1.0117  1.6914  2.4632
  188SAPI  C21521650   3.667   5.082   8.384  0.5326 -0.3529 -0.0269
  188SAPI  H15R21651   3.690   5.056   8.488 -0.0429  2.3130  0.8533
  188SAPI  C21621652   3.524   5.066   8.338 -0.6156 -0.5637 -0.2258
  188SAPI  H16R21653   3.499   4.959   8.322  2.0925 -1.3187  0.0940
  188SAPI  H16S21654   3.512   5.131   8.249  2.3426  0.7102  0.1714
  188SAPI  C21721655   3.422   5.121   8.442  0.5989 -0.1228 -0.1457
  188SAPI  H17R21656   3.327   5.097   8.391  0.2838 -1.8783  1.1637
  188SAPI  H17S21657   3.435   5.230   8.459 -1.4559  0.0464  0.6725
  188SAPI  C21821658   3.418   5.054   8.580 -0.0426  0.2879 -0.6689
  188SAPI  H18R21659   3.326   5.091   8.630 -0.3882  1.6638 -2.2202
  188SAPI  H18S21660   3.506   5.088   8.638 -0.1944 -0.2361 -0.1248
  188SAPI  C21921661   3.406   4.900   8.574  0.1666  0.3402  0.1252
  188SAPI  H19R21662   3.487   4.868   8.505  0.4426  2.4572 -0.6002
  188SAPI  H19S21663   3.311   4.876   8.523 -0.6243  0.5188  1.4471
  188SAPI  C22021664   3.397   4.841   8.716  0.6024  0.2989  1.1578
  188SAPI  H20R21665   3.298   4.862   8.760  0.0233  0.8219 -0.3369
  188SAPI  H20S21666   3.472   4.887   8.783  0.4211  1.7716  0.3820
  188SAPI  H20T21667   3.412   4.731   8.724  2.8992 -0.0975 -4.2529
  188SAPI   C3321668   3.944   4.687   6.936 -0.3501 -0.3801  0.3443
  188SAPI   H3X21669   4.037   4.749   6.935 -1.5628  1.6714 -3.1592
  188SAPI   H3Y21670   3.938   4.609   6.858 -0.4200 -0.9752  0.9347
  188SAPI   C3421671   3.935   4.616   7.073 -0.3605  0.6224  0.2079
  188SAPI   H4X21672   4.019   4.545   7.076 -1.5028 -0.7557  0.7629
  188SAPI   H4Y21673   3.844   4.553   7.081 -0.7505  1.0222 -0.8855
  188SAPI   C3521674   3.936   4.710   7.186  0.3422 -0.1011 -0.7874
  188SAPI   H5X21675   3.856   4.787   7.189  1.6191  1.2331  0.9459
  188SAPI   H5Y21676   4.023   4.778   7.193  0.4912 -0.3415 -0.2856
  188SAPI   C3621677   3.930   4.631   7.327 -0.0653 -0.4333 -0.1395
  188SAPI   H6X21678   4.010   4.556   7.339  1.8934  1.7009  0.8264
  188SAPI   H6Y21679   3.828   4.587   7.315 -0.4881  0.9723 -2.0561
  188SAPI   C3721680   3.935   4.725   7.444 -0.0096  0.4965  0.1181
  188SAPI   H7X21681   3.870   4.815   7.437  1.2544  1.4009 -0.2891
  188SAPI   H7Y21682   4.039   4.764   7.445 -0.2360  1.1245  0.8311
  188SAPI   C3821683   3.902   4.654   7.574 -0.6571  0.1139  0.9635
  188SAPI   H8X21684   3.976   4.572   7.580 -1.5342 -0.8103 -0.3148
  188SAPI   H8Y21685   3.796   4.621   7.566 -0.2115 -1.4975  1.3500
  188SAPI   C3921686   3.917   4.743   7.698 -0.1309  0.9346 -0.0665
  188SAPI   H9X21687   3.820   4.789   7.725 -0.1017  1.9245 -1.5363
  188SAPI   H9Y21688   3.996   4.815   7.666 -0.5074  0.8060 -1.3568
  188SAPI  C31021689   3.964   4.654   7.815  0.0398 -0.7330 -0.5894
  188SAPI  H10X21690   4.066   4.617   7.790  1.8673  3.4366 -0.3206
  188SAPI  H10Y21691   3.895   4.570   7.837 -0.7859  0.4250  1.5072
  188SAPI  C31121692   4.004   4.742   7.938 -0.1975  0.0009 -0.0437
  188SAPI  H11X21693   3.914   4.796   7.972 -0.6715  0.3837 -1.7958
  188SAPI  H11Y21694   4.079   4.820   7.914  0.4276 -1.0402 -1.6696
  188SAPI  C31221695   4.058   4.660   8.059  0.1399 -0.6289 -0.2295
  188SAPI  H12X21696   4.156   4.622   8.025  0.3289 -0.1323 -0.2510
  188SAPI  H12Y21697   3.978   4.583   8.064 -1.0244  0.4412 -1.4363
  188SAPI  C31321698   4.077   4.739   8.191  0.1138  0.9341  0.5005
  188SAPI  H13X21699   4.124   4.837   8.169  0.6842  0.7643  0.9275
  188SAPI  H13Y21700   4.150   4.686   8.257 -0.0465 -0.2208 -0.2129
  188SAPI  C31421701   3.942   4.751   8.276 -0.0757  0.1005  0.6081
  188SAPI  H14X21702   3.883   4.657   8.280 -0.0827  0.1106  0.7420
  188SAPI  H14Y21703   3.886   4.830   8.221 -0.3302  0.2776  1.1146
  188SAPI  C31521704   3.952   4.811   8.419 -0.1052 -0.5937 -0.0510
  188SAPI  H15X21705   3.854   4.820   8.470  0.6344 -1.4910  1.5760
  188SAPI  H15Y21706   3.989   4.915   8.406 -0.1910 -0.6722 -0.9875
  188SAPI  C31621707   4.063   4.751   8.513  0.9689 -0.1605 -0.1565
  188SAPI  H16X21708   4.159   4.737   8.459 -0.6810  0.6238 -3.5685
  188SAPI  H16Y21709   4.027   4.655   8.555 -0.6629  0.2279 -0.6000
  188SAPI  C31721710   4.086   4.845   8.632  0.1673  0.4059 -0.6083
  188SAPI  H17X21711   4.123   4.947   8.609 -0.9397  1.2340  1.1219
  188SAPI  H17Y21712   4.166   4.789   8.686 -1.8426 -0.8665  1.1756
  188SAPI  C31821713   3.965   4.861   8.722 -0.4154 -0.0891  0.4032
  188SAPI  H18X21714   3.983   4.927   8.810  0.4671 -0.2921  0.3854
  188SAPI  H18Y21715   3.931   4.763   8.761 -2.8250  1.5370  2.7922
  188SAPI  H18Z21716   3.883   4.915   8.670 -0.0028 -1.1224 -1.4111
  189POPC     N21717   2.424   1.480  11.330  0.2584  0.6236 -0.1946
  189POPC   C1221718   2.353   1.485  11.195  0.3625  0.6640  0.0450
  189POPC  H12A21719   2.261   1.540  11.209 -0.7918 -1.1281 -0.2184
  189POPC  H12B21720   2.342   1.382  11.164  2.5643 -0.5162  2.7001
  189POPC   C1321721   2.566   1.426  11.330  0.2954  0.2747  0.3542
  189POPC  H13A21722   2.610   1.420  11.428 -0.2451  1.2300  0.6686
  189POPC  H13B21723   2.568   1.328  11.284  1.1174  0.6216 -0.3785
  189POPC  H13C21724   2.626   1.488  11.265 -1.4647  1.7274  0.0457
  189POPC   C1421725   2.425   1.611  11.391 -0.1134 -0.1873  0.1589
  189POPC  H14A21726   2.471   1.610  11.489 -0.0862  0.6208  0.1575
  189POPC  H14B21727   2.474   1.681  11.326 -1.3557 -0.8525 -1.5873
  189POPC  H14C21728   2.322   1.634  11.416  1.0648  2.5646  3.1871
  189POPC   C1521729   2.342   1.384  11.409  0.6865  0.0583 -0.4217
  189POPC  H15A21730   2.244   1.429  11.409 -0.2843 -1.9483 -0.1790
  189POPC  H15B21731   2.385   1.372  11.507  0.2909  1.1467 -0.1059
  189POPC  H15C21732   2.318   1.289  11.364 -0.4325  0.4446 -0.6584
  189POPC   C1121733   2.429   1.551  11.069 -0.0718 -0.2958  0.1529
  189POPC  H11A21734   2.435   1.660  11.087  0.3594 -0.4278  0.8608
  189POPC  H11B21735   2.365   1.527  10.982 -2.5352  1.3536  1.3778
  189POPC     P21736   2.564   1.342  10.978  0.1310 -0.2802 -0.2856
  189POPC   O1321737   2.472   1.345  10.862 -1.1283 -0.0446  0.5250
  189POPC   O1421738   2.552   1.236  11.076 -0.0174 -0.5211 -0.3229
  189POPC   O1221739   2.554   1.485  11.052  0.5253  0.1044 -0.3136
  189POPC   O1121740   2.709   1.338  10.916  0.5295  0.1863  0.0585
  189POPC    C121741   2.764   1.448  10.837  0.6378 -0.4051 -0.1955
  189POPC    HA21742   2.874   1.456  10.851  0.8140 -0.0146 -1.6110
  189POPC    HB21743   2.722   1.548  10.862 -0.1596 -0.7329 -0.2017
  189POPC    C221744   2.753   1.437  10.684  0.0265  0.1667  0.1493
  189POPC    HS21745   2.647   1.459  10.659 -1.0745 -4.6701 -0.4530
  189POPC   O2121746   2.787   1.308  10.646 -0.3683  0.1052  0.2113
  189POPC   C2121747   2.736   1.262  10.533  0.0405  0.3521  0.1099
  189POPC   O2221748   2.658   1.323  10.466 -0.0999 -0.0892 -0.3924
  189POPC   C2221749   2.777   1.112  10.506  0.6437  0.5426  0.1519
  189POPC   H2R21750   2.749   1.065  10.602  0.4261  1.1954  0.4125
  189POPC   H2S21751   2.887   1.109  10.487  0.4393 -0.4039 -0.9875
  189POPC    C321752   2.849   1.550  10.627  1.0544 -0.2219 -0.3464
  189POPC    HX21753   2.949   1.533  10.673  1.1459  0.9500 -0.0756
  189POPC    HY21754   2.823   1.653  10.659  1.6530  0.6892 -2.6419
  189POPC   O3121755   2.862   1.553  10.487  0.0550  0.1730 -0.4268
  189POPC   C3121756   2.758   1.603  10.414 -0.3919 -0.1027  0.3408
  189POPC   O3221757   2.662   1.667  10.458  0.5319  0.7360  0.2795
  189POPC   C3221758   2.785   1.576  10.266  0.8795 -0.2750  0.5668
  189POPC   H2X21759   2.872   1.509  10.247  2.0778  1.6403 -1.1489
  189POPC   H2Y21760   2.814   1.674  10.222  1.6413 -0.2882  1.0238
  189POPC   C2321761   2.705   1.047  10.388 -0.0744 -0.1230 -0.6647
  189POPC   H3R21762   2.595   1.062  10.381 -0.2936 -1.4592 -0.2898
  189POPC   H3S21763   2.726   0.939  10.400  0.2360  0.1146  1.2713
  189POPC   C2421764   2.771   1.082  10.257 -0.1237 -0.1436 -0.3204
  189POPC   H4R21765   2.878   1.053  10.265 -0.2649 -0.9811 -1.2430
  189POPC   H4S21766   2.762   1.189  10.230 -1.9189  0.2123  1.5021
  189POPC   C2521767   2.722   1.002  10.132 -0.4030 -0.1011  0.0737
  189POPC   H5R21768   2.617   1.036  10.120 -0.6858 -1.5638 -2.1258
  189POPC   H5S21769   2.723   0.894  10.157  1.7497 -0.0356  0.4771
  189POPC   C2621770   2.793   1.028   9.998  0.2774 -0.2856 -0.1064
  189POPC   H6R21771   2.895   1.001  10.031 -0.1329 -0.5394  1.0075
  189POPC   H6S21772   2.792   1.131   9.957 -0.9581 -0.8801 -1.6896
  189POPC   C2721773   2.741   0.949   9.886  0.1475  0.2413  0.2197
  189POPC   H7R21774   2.631   0.961   9.881 -0.4474 -2.3192  3.3318
  189POPC   H7S21775   2.759   0.841   9.902 -0.8414  0.0707  0.1888
  189POPC   C2821776   2.802   0.984   9.747  0.0133 -0.1950  0.3231
  189POPC   H8R21777   2.908   0.997   9.778  0.6870  1.3497 -2.3211
  189POPC   H8S21778   2.757   1.082   9.721 -0.4766 -0.7351 -0.9632
  189POPC   C2921779   2.778   0.880   9.638 -0.0419 -0.0060 -0.5455
  189POPC   H9121780   2.683   0.824   9.640  0.9279 -1.7218  0.7638
  189POPC  C21021781   2.859   0.866   9.528 -0.8191  0.1253 -0.0581
  189POPC  H10121782   2.839   0.780   9.463 -1.0435  1.2895 -1.5814
  189POPC  C21121783   2.974   0.958   9.498 -0.3957 -0.1776  0.1860
  189POPC  H11R21784   3.051   0.954   9.577  3.0826  0.2056 -2.9092
  189POPC  H11S21785   2.931   1.060   9.487 -0.7137  0.0406  2.8931
  189POPC  C21221786   3.042   0.925   9.359  0.3346 -0.2892 -0.0109
  189POPC  H12R21787   3.067   0.817   9.359  0.4354 -0.2929  1.4436
  189POPC  H12S21788   3.137   0.979   9.379 -0.6799  1.6434 -0.2202
  189POPC  C21321789   2.971   0.964   9.227  0.4406 -0.0235  0.0804
  189POPC  H13R21790   2.898   1.044   9.252 -1.7227 -1.4448 -1.3914
  189POPC  H13S21791   2.899   0.884   9.202 -0.2598  1.1655 -1.9385
  189POPC  C21421792   3.071   1.004   9.124 -0.4692  0.1181  0.0267
  189POPC  H14R21793   3.137   0.914   9.121  0.1066  0.5431 -1.8537
  189POPC  H14S21794   3.133   1.092   9.151  1.0262 -0.3180 -1.7690
  189POPC  C21521795   3.011   1.038   8.981 -0.5757  0.0010 -0.0257
  189POPC  H15R21796   2.933   1.116   8.997  0.0581  0.1313  3.1297
  189POPC  H15S21797   2.967   0.942   8.948 -4.5130  2.3019 -2.2422
  189POPC  C21621798   3.110   1.096   8.879 -0.1869 -0.4665  0.1558
  189POPC  H16R21799   3.184   1.014   8.881  1.5371  1.0335  1.6340
  189POPC  H16S21800   3.168   1.185   8.910  2.8117 -2.1896 -0.1597
  189POPC  C21721801   3.058   1.122   8.731 -0.9017  0.7252  0.5429
  189POPC  H17R21802   3.007   1.028   8.699 -1.6370  0.9675  0.9985
  189POPC  H17S21803   3.144   1.140   8.662  0.9361  1.7726  2.9711
  189POPC  C21821804   2.963   1.235   8.726  0.3238  0.0546 -0.1914
  189POPC  H18R21805   3.012   1.327   8.763  3.5087 -2.2366  1.7270
  189POPC  H18S21806   2.869   1.210   8.780 -0.9342  1.6463 -1.5120
  189POPC  H18T21807   2.928   1.258   8.623 -0.9686  1.1275  0.4460
  189POPC   C3321808   2.665   1.527  10.187 -0.0309  0.4814 -0.4516
  189POPC   H3X21809   2.596   1.613  10.178  1.1681  1.5347  0.1160
  189POPC   H3Y21810   2.621   1.438  10.238  0.6142 -0.7691 -1.9721
  189POPC   C3421811   2.694   1.469  10.049 -0.1281  0.0738  0.2090
  189POPC   H4X21812   2.763   1.383  10.061 -1.3629 -0.6741  2.5706
  189POPC   H4Y21813   2.743   1.549   9.989  0.0781  1.1297  1.7201
  189POPC   C3521814   2.573   1.425   9.973 -0.3090  0.8708  0.3310
  189POPC   H5X21815   2.496   1.504   9.980  0.0559  1.1552  1.3293
  189POPC   H5Y21816   2.522   1.336  10.016 -3.1221  2.4416  0.4466
  189POPC   C3621817   2.601   1.418   9.821 -0.5308 -0.3516 -0.4771
  189POPC   H6X21818   2.697   1.364   9.807 -0.6454 -1.0361  1.1594
  189POPC   H6Y21819   2.629   1.520   9.785  0.9752 -1.4010 -2.4667
  189POPC   C3721820   2.482   1.365   9.737  0.0666 -0.4671 -0.3409
  189POPC   H7X21821   2.392   1.429   9.747  0.1543 -0.7014  3.1742
  189POPC   H7Y21822   2.466   1.257   9.759  0.0661 -1.1259 -3.1883
  189POPC   C3821823   2.520   1.370   9.589  0.7910  0.7573  0.3674
  189POPC   H8X21824   2.606   1.304   9.566 -0.1063  0.0651 -1.1480
  189POPC   H8Y21825   2.544   1.477   9.568  0.8017  0.4037 -1.6333
  189POPC   C3921826   2.410   1.329   9.496  1.4328  0.2748 -0.4250
  189POPC   H9X21827   2.318   1.389   9.511  1.0003 -0.9330  2.3757
  189POPC   H9Y21828   2.371   1.225   9.508  1.6394  0.1579 -0.7553
  189POPC  C31021829   2.454   1.340   9.350 -0.5503  0.1269 -0.2723
  189POPC  H10X21830   2.556   1.296   9.354  1.2163  3.8412 -0.5518
  189POPC  H10Y21831   2.457   1.447   9.319  0.1823  0.4280  0.7916
  189POPC  C31121832   2.365   1.254   9.258  0.4863 -0.1275  0.1507
  189POPC  H11X21833   2.274   1.317   9.242  0.1968 -0.5499  0.1226
  189POPC  H11Y21834   2.320   1.167   9.310 -0.1502 -0.1989 -0.5006
  189POPC  C31221835   2.433   1.221   9.125  0.0487  0.2452  0.3376
  189POPC  H12X21836   2.510   1.142   9.141 -1.8371 -1.0481  4.4894
  189POPC  H12Y21837   2.458   1.317   9.076  0.4883 -0.4231 -0.8013
  189POPC  C31321838   2.324   1.164   9.025  0.0823  0.0976  0.0990
  189POPC  H13X21839   2.227   1.215   9.012 -0.1086 -0.5078 -0.8599
  189POPC  H13Y21840   2.304   1.061   9.061  0.4239 -0.0510 -0.1315
  189POPC  C31421841   2.377   1.151   8.889  0.1995 -1.0248 -0.0496
  189POPC  H14X21842   2.482   1.114   8.877  0.8878  1.4971 -3.4816
  189POPC  H14Y21843   2.365   1.248   8.836 -2.2599 -0.5427  1.2653
  189POPC  C31521844   2.278   1.068   8.803  0.0503 -0.0388  0.8086
  189POPC  H15X21845   2.183   1.126   8.801 -0.4060 -0.7513  1.4433
  189POPC  H15Y21846   2.264   0.975   8.862 -1.6493 -1.1729 -1.2305
  189POPC  C31621847   2.309   1.035   8.654  0.0976 -0.2421 -0.0603
  189POPC  H16X21848   2.412   0.994   8.647  0.4783  0.6596  0.2053
  189POPC  H16Y21849   2.298   1.133   8.604 -0.0606 -0.6230 -0.7974
  189POPC  H16Z21850   2.233   0.967   8.609 -1.0684  0.0154  1.4326
  190POPC     N21851   3.267   4.230  11.251 -0.0671 -0.1768  0.1514
  190POPC   C1221852   3.329   4.085  11.242 -0.2684 -0.6271  1.0703
  190POPC  H12A21853   3.252   4.014  11.215 -0.7432 -0.0691  0.9287
  190POPC  H12B21854   3.364   4.047  11.337  2.5687 -0.1798  0.3065
  190POPC   C1321855   3.135   4.219  11.323 -0.6004 -0.0992  0.4978
  190POPC  H13A21856   3.142   4.158  11.412  0.3073 -0.9647 -0.1392
  190POPC  H13B21857   3.093   4.313  11.356  0.0340  0.4975 -0.3572
  190POPC  H13C21858   3.064   4.168  11.259 -0.1201 -1.0525  0.7164
  190POPC   C1421859   3.357   4.318  11.331 -0.2601 -0.0788  0.1355
  190POPC  H14A21860   3.315   4.415  11.352 -0.7472 -0.2227 -0.1591
  190POPC  H14B21861   3.405   4.284  11.422  3.5394  0.2518 -1.5215
  190POPC  H14C21862   3.439   4.329  11.261 -0.7534 -0.9753 -0.6064
  190POPC   C1521863   3.248   4.288  11.111  0.1245  0.0112 -0.0303
  190POPC  H15A21864   3.182   4.224  11.054 -0.7721 -0.0866  1.0754
  190POPC  H15B21865   3.339   4.305  11.055 -0.9214  1.2639 -1.4259
  190POPC  H15C21866   3.204   4.385  11.128 -0.1141 -0.0642 -0.2133
  190POPC   C1121867   3.446   4.056  11.142  0.1904  0.6340 -0.7795
  190POPC  H11A21868   3.421   4.095  11.041 -0.9155  1.9698 -0.0270
  190POPC  H11B21869   3.463   3.946  11.143 -1.3615  0.3666  0.4998
  190POPC     P21870   3.663   4.200  11.101 -0.1348 -0.6547  0.0062
  190POPC   O1321871   3.780   4.263  11.167  0.1079  0.1920 -0.4274
  190POPC   O1421872   3.574   4.301  11.038 -0.1007 -0.2871 -0.0784
  190POPC   O1221873   3.570   4.112  11.200 -0.2348  0.5166 -0.4433
  190POPC   O1121874   3.694   4.107  10.974 -0.2352  0.0431  0.0865
  190POPC    C121875   3.773   4.161  10.863  0.5926 -0.6441 -0.3115
  190POPC    HA21876   3.880   4.133  10.877  1.1128  1.4489  0.2809
  190POPC    HB21877   3.778   4.272  10.864  0.4142 -0.6252 -1.1292
  190POPC    C221878   3.705   4.130  10.734  0.4201 -0.3861  0.1947
  190POPC    HS21879   3.726   4.022  10.720 -0.4345 -0.6673  0.9646
  190POPC   O2121880   3.771   4.215  10.628  0.0417 -0.0932 -0.3900
  190POPC   C2121881   3.892   4.203  10.597  0.2376 -0.3327  0.0064
  190POPC   O2221882   3.969   4.124  10.646 -0.2611 -0.3641  0.2992
  190POPC   C2221883   3.911   4.308  10.497 -0.3357 -0.3586  0.7793
  190POPC   H2R21884   3.945   4.395  10.557  2.3903 -1.3847  0.8408
  190POPC   H2S21885   3.822   4.350  10.445  2.0089  3.5879 -0.5051
  190POPC    C321886   3.552   4.161  10.732  0.0549  0.4666 -0.7447
  190POPC    HX21887   3.521   4.258  10.776 -1.4936  0.7417 -2.2965
  190POPC    HY21888   3.510   4.086  10.802  1.9971  0.3918  0.4128
  190POPC   O3121889   3.498   4.160  10.602 -0.4128 -0.3747  0.1002
  190POPC   C3121890   3.505   4.049  10.534 -0.4651 -0.4133  0.2177
  190POPC   O3221891   3.549   3.938  10.564  0.2428  0.0408  0.4599
  190POPC   C3221892   3.419   4.057  10.409  0.3886 -0.2415 -0.1383
  190POPC   H2X21893   3.320   4.093  10.444  0.4663 -0.4920  0.3635
  190POPC   H2Y21894   3.398   3.952  10.379 -1.5894  0.0923 -0.0377
  190POPC   C2321895   4.017   4.282  10.389 -0.0890 -0.6528 -0.2623
  190POPC   H3R21896   4.105   4.236  10.440 -0.0130  2.8804  3.2246
  190POPC   H3S21897   4.054   4.380  10.351 -2.0948  1.7437  3.3938
  190POPC   C2421898   3.971   4.206  10.270  0.3232 -0.3337 -0.1914
  190POPC   H4R21899   3.916   4.114  10.300  0.3237 -1.1272 -2.4265
  190POPC   H4S21900   4.062   4.183  10.211 -1.3923 -1.7428 -2.4876
  190POPC   C2521901   3.872   4.295  10.184  0.3185  0.5050 -0.1235
  190POPC   H5R21902   3.898   4.403  10.188  1.2122  0.2745  0.3948
  190POPC   H5S21903   3.778   4.279  10.242  0.4648 -0.7640 -0.1997
  190POPC   C2621904   3.864   4.235  10.038  0.6228 -0.7617  0.5418
  190POPC   H6R21905   3.824   4.131  10.042  0.3584 -0.6128  3.5684
  190POPC   H6S21906   3.962   4.250   9.988  0.1137 -0.9208 -0.5388
  190POPC   C2721907   3.770   4.320   9.948 -0.6024  0.1484  0.2725
  190POPC   H7R21908   3.795   4.428   9.961 -2.1639  0.7676 -1.5123
  190POPC   H7S21909   3.666   4.285   9.962 -0.6118 -0.5598 -1.3773
  190POPC   C2821910   3.822   4.298   9.802  0.3883 -0.2144 -0.3788
  190POPC   H8R21911   3.930   4.325   9.804  0.7353 -1.5842  0.9944
  190POPC   H8S21912   3.792   4.384   9.738 -0.5409 -0.7432 -0.6742
  190POPC   C2921913   3.818   4.169   9.732  0.0976  0.2947 -0.5379
  190POPC   H9121914   3.831   4.087   9.804  0.9818  2.5194  2.0184
  190POPC  C21021915   3.799   4.140   9.604  0.3395  0.1305  0.7163
  190POPC  H10121916   3.797   4.036   9.569 -1.0452  0.7755 -1.2832
  190POPC  C21121917   3.775   4.245   9.499  0.2528 -0.0190  0.6059
  190POPC  H11R21918   3.861   4.238   9.428 -1.5751 -1.3817 -1.6323
  190POPC  H11S21919   3.791   4.347   9.538 -2.0095  0.5607  0.1624
  190POPC  C21221920   3.643   4.242   9.425  0.6791  0.6308  0.0915
  190POPC  H12R21921   3.563   4.265   9.500 -0.2528  1.9685 -1.2706
  190POPC  H12S21922   3.617   4.139   9.392  1.0743 -0.3503  2.5640
  190POPC  C21321923   3.633   4.350   9.314  0.2259  0.3763  0.2709
  190POPC  H13R21924   3.733   4.385   9.282  0.0245 -0.5270 -1.4925
  190POPC  H13S21925   3.569   4.434   9.347  0.6920  2.6666 -3.9074
  190POPC  C21421926   3.555   4.292   9.187 -0.4565 -0.0528  0.1831
  190POPC  H14R21927   3.445   4.285   9.198 -0.4336 -0.5650  0.1061
  190POPC  H14S21928   3.577   4.183   9.180  0.4983  0.2027 -1.1563
  190POPC  C21521929   3.589   4.363   9.055  1.1054  0.5714 -0.1248
  190POPC  H15R21930   3.700   4.358   9.044  1.5896  1.1702  3.3640
  190POPC  H15S21931   3.562   4.470   9.046  2.2847  0.8637 -0.4592
  190POPC  C21621932   3.532   4.288   8.929 -0.4026 -0.4784 -0.7167
  190POPC  H16R21933   3.422   4.283   8.943 -0.3919  2.1971  1.0108
  190POPC  H16S21934   3.575   4.185   8.935  0.6551 -0.2398 -2.8881
  190POPC  C21721935   3.580   4.345   8.797 -0.5395 -0.4741 -1.1550
  190POPC  H17R21936   3.688   4.368   8.802 -0.5601 -0.6885  1.2579
  190POPC  H17S21937   3.524   4.441   8.791  1.6994  1.1077  1.2137
  190POPC  C21821938   3.550   4.261   8.672 -0.0311 -0.3452 -0.1389
  190POPC  H18R21939   3.576   4.320   8.582  1.9359  1.8946  1.7768
  190POPC  H18S21940   3.439   4.257   8.664 -0.1750 -0.9402  1.6539
  190POPC  H18T21941   3.593   4.159   8.666 -1.3800 -1.0755  1.6637
  190POPC   C3321942   3.481   4.148  10.301 -0.0988  0.8070 -0.2371
  190POPC   H3X21943   3.515   4.240  10.354  0.6227 -0.1156  0.9575
  190POPC   H3Y21944   3.404   4.173  10.224 -0.4136 -0.5431 -0.3732
  190POPC   C3421945   3.602   4.082  10.233 -0.0529  0.3777 -0.0750
  190POPC   H4X21946   3.678   4.037  10.300  0.9377  0.5597 -1.0457
  190POPC   H4Y21947   3.646   4.169  10.180 -3.0120  1.1679 -1.4682
  190POPC   C3521948   3.551   3.982  10.125  0.1750  0.3428  0.2621
  190POPC   H5X21949   3.452   3.943  10.157  0.0350  0.2379 -0.2923
  190POPC   H5Y21950   3.625   3.898  10.123 -0.0456  0.1540 -0.0587
  190POPC   C3621951   3.555   4.024   9.980 -0.8079 -0.3904 -0.2829
  190POPC   H6X21952   3.660   4.049   9.954 -0.4452  1.4323  2.4771
  190POPC   H6Y21953   3.496   4.118   9.985  0.7268  0.5688  2.4889
  190POPC   C3721954   3.500   3.922   9.875  0.2588  0.0746 -0.8333
  190POPC   H7X21955   3.390   3.918   9.891  0.1026 -1.8759 -2.0714
  190POPC   H7Y21956   3.536   3.822   9.909 -1.4613 -0.3294 -0.0910
  190POPC   C3821957   3.534   3.942   9.726 -0.3144 -0.3477  0.6796
  190POPC   H8X21958   3.644   3.940   9.708  0.2016  1.3825  3.0692
  190POPC   H8Y21959   3.494   4.042   9.698  0.4251 -0.2410 -0.0393
  190POPC   C3921960   3.462   3.837   9.639 -0.2799 -0.1941 -0.4595
  190POPC   H9X21961   3.359   3.833   9.681  0.3065 -1.1437  0.9738
  190POPC   H9Y21962   3.520   3.747   9.669  1.9358  0.6494 -1.9384
  190POPC  C31021963   3.475   3.858   9.492  0.3414  0.0628  0.5540
  190POPC  H10X21964   3.585   3.853   9.476  0.3547 -2.3038  0.9848
  190POPC  H10Y21965   3.437   3.960   9.475  1.8846  0.4974 -0.4378
  190POPC  C31121966   3.396   3.763   9.404 -0.5584 -0.6269  0.5022
  190POPC  H11X21967   3.290   3.776   9.434 -0.6113  0.7029 -0.2149
  190POPC  H11Y21968   3.410   3.654   9.421 -2.5294 -1.4897 -2.6670
  190POPC  C31221969   3.416   3.781   9.251  0.4171 -0.4610 -0.9888
  190POPC  H12X21970   3.427   3.890   9.235  0.3898 -0.2808  0.1347
  190POPC  H12Y21971   3.324   3.736   9.207  0.2002  0.4302 -1.4552
  190POPC  C31321972   3.545   3.707   9.204  0.1077 -0.0276  0.6409
  190POPC  H13X21973   3.629   3.727   9.274  0.8168 -5.0698  1.6131
  190POPC  H13Y21974   3.583   3.749   9.108  0.8364  0.7627  1.2598
  190POPC  C31421975   3.534   3.555   9.185 -0.5500 -0.3791 -0.0715
  190POPC  H14X21976   3.455   3.528   9.111 -0.2316 -1.8225  0.0736
  190POPC  H14Y21977   3.494   3.512   9.280  2.0600 -2.2020  0.3147
  190POPC  C31521978   3.666   3.484   9.169 -0.4767 -0.7179  0.4417
  190POPC  H15X21979   3.662   3.375   9.189  2.6950 -0.7128  1.6312
  190POPC  H15Y21980   3.747   3.519   9.237 -0.9278  0.3282  0.4576
  190POPC  C31621981   3.717   3.514   9.027 -1.0449  0.2112 -0.1622
  190POPC  H16X21982   3.813   3.461   9.013 -0.6172  0.9250 -0.0025
  190POPC  H16Y21983   3.735   3.623   9.015  1.4846 -0.0506  0.6208
  190POPC  H16Z21984   3.659   3.485   8.937  0.5472  2.0849 -1.9058
  191POPC     N21985   0.118   3.819   6.388 -0.3529 -0.0803  0.5986
  191POPC   C1221986   0.264   3.830   6.419 -1.1634  0.0291  0.8935
  191POPC  H12A21987   0.310   3.734   6.400 -3.0016 -0.4184 -1.8299
  191POPC  H12B21988   0.281   3.856   6.522 -3.3891 -0.5546  1.4674
  191POPC   C1321989   0.060   3.722   6.491  0.2593 -0.3098  0.2058
  191POPC  H13A21990  -0.041   3.695   6.462  0.6745 -0.9598 -0.6735
  191POPC  H13B21991   0.112   3.629   6.507  0.1055 -0.3630  0.4055
  191POPC  H13C21992   0.041   3.777   6.582 -0.2312  1.0907 -0.7118
  191POPC   C1421993   0.048   3.949   6.400 -0.4672 -0.5158 -0.1051
  191POPC  H14A21994   0.084   4.014   6.321  0.3062 -1.4712 -0.5643
  191POPC  H14B21995  -0.059   3.947   6.388 -0.7149  1.1757  1.5026
  191POPC  H14C21996   0.072   4.001   6.491 -0.7389 -0.8588  0.1631
  191POPC   C1521997   0.100   3.764   6.249  0.1674  0.1004 -1.0175
  191POPC  H15A21998   0.145   3.666   6.254  0.3187  0.2429  0.8999
  191POPC  H15B21999   0.155   3.820   6.174  0.2405 -0.7826 -1.6404
  191POPC  H15C22000  -0.002   3.763   6.214  0.3294  1.1884 -1.5895
  191POPC   C1122001   0.353   3.920   6.335  0.2302 -0.4126 -0.5574
  191POPC  H11A22002   0.313   4.023   6.335  0.0181 -0.4944 -0.5906
  191POPC  H11B22003   0.369   3.879   6.233  3.1947 -0.9126  0.0092
  191POPC     P22004   0.523   4.024   6.507 -0.0763 -0.4751 -0.0213
  191POPC   O1322005   0.466   4.155   6.477 -0.0782  0.1204 -0.3930
  191POPC   O1422006   0.669   4.021   6.541 -0.2887  0.0442 -0.1750
  191POPC   O1222007   0.481   3.922   6.393  0.1760  0.3071 -0.3936
  191POPC   O1122008   0.439   3.960   6.623  0.4712  0.6550 -0.8291
  191POPC    C122009   0.483   3.844   6.695  0.0095  0.0593  0.0137
  191POPC    HA22010   0.575   3.869   6.752 -1.0601  3.0716  0.5464
  191POPC    HB22011   0.517   3.761   6.628  2.5277 -0.1006  1.3544
  191POPC    C222012   0.368   3.795   6.794  0.4121 -0.0438 -0.2800
  191POPC    HS22013   0.292   3.732   6.742 -2.1009  1.8793  0.8717
  191POPC   O2122014   0.314   3.908   6.869  0.0308 -0.3563  0.3718
  191POPC   C2122015   0.191   3.927   6.838 -0.1139 -0.2013  0.0569
  191POPC   O2222016   0.123   3.859   6.761 -0.0491 -0.3340  0.7252
  191POPC   C2222017   0.132   4.035   6.918  0.4121 -0.1096  0.0790
  191POPC   H2R22018   0.030   4.055   6.878  1.0163 -0.0548 -1.5231
  191POPC   H2S22019   0.202   4.116   6.890  0.4566  0.0864  0.7645
  191POPC    C322020   0.428   3.700   6.901  0.3913 -0.2614 -0.1165
  191POPC    HX22021   0.508   3.766   6.940 -0.8163  1.2150 -0.0178
  191POPC    HY22022   0.480   3.612   6.858  0.2079 -0.8416  0.8193
  191POPC   O3122023   0.337   3.671   7.006  0.3664  0.2260 -0.3083
  191POPC   C3122024   0.250   3.573   6.983 -0.4399  0.2376 -0.4529
  191POPC   O3222025   0.230   3.523   6.874  0.4432 -0.0084  0.2746
  191POPC   C3222026   0.173   3.539   7.106 -0.3599  0.1750  0.3323
  191POPC   H2X22027   0.169   3.429   7.094 -0.2284  0.3445 -1.5829
  191POPC   H2Y22028   0.072   3.581   7.088 -0.1631 -0.0501 -1.4513
  191POPC   C2322029   0.128   4.002   7.069 -0.7474 -0.4160  0.1517
  191POPC   H3R22030   0.118   4.095   7.129  1.4048 -0.6908  1.0592
  191POPC   H3S22031   0.227   3.959   7.098  0.1805  0.3863 -1.6271
  191POPC   C2422032   0.014   3.911   7.127 -0.4553 -0.6143  0.6561
  191POPC   H4R22033  -0.003   3.818   7.069 -2.2640 -0.5979  1.1282
  191POPC   H4S22034  -0.079   3.971   7.116  0.6588  1.0354 -0.2533
  191POPC   C2522035   0.029   3.881   7.273 -0.3416 -0.1014  0.2664
  191POPC   H5R22036   0.135   3.859   7.298  0.1684 -0.9212 -2.2997
  191POPC   H5S22037  -0.028   3.788   7.295 -1.0228  0.0224 -0.9021
  191POPC   C2622038  -0.036   3.986   7.362  0.2652  0.3254 -0.1723
  191POPC   H6R22039  -0.142   3.995   7.332  0.3037 -0.5334 -0.6139
  191POPC   H6S22040   0.014   4.085   7.351  0.5035  0.2209 -0.0472
  191POPC   C2722041  -0.018   3.945   7.514  0.9750  0.4891  0.6435
  191POPC   H7R22042   0.085   3.973   7.547  1.4174  0.4480 -0.6583
  191POPC   H7S22043  -0.033   3.835   7.513  1.1111  0.4697 -1.2396
  191POPC   C2822044  -0.132   4.000   7.605 -0.0949 -0.0001 -0.5765
  191POPC   H8R22045  -0.234   3.981   7.568 -1.5156 -0.8457  3.3109
  191POPC   H8S22046  -0.136   4.111   7.607  0.2725  0.0106  0.0932
  191POPC   C2922047  -0.098   3.948   7.743  0.5056  0.1932  0.1473
  191POPC   H9122048  -0.085   3.839   7.757  3.1177  0.6131  1.6558
  191POPC  C21022049  -0.046   4.022   7.845 -0.1228 -0.4154  0.7682
  191POPC  H10122050  -0.033   3.982   7.946 -0.2891  1.7753  1.7073
  191POPC  C21122051  -0.016   4.173   7.851  0.1987 -0.0416  0.5080
  191POPC  H11R22052  -0.115   4.221   7.835  0.2779 -0.4720 -1.5651
  191POPC  H11S22053   0.045   4.205   7.764 -1.0716  1.2731  0.0548
  191POPC  C21222054   0.031   4.225   7.987 -0.1759  0.1454 -0.7330
  191POPC  H12R22055   0.039   4.335   7.981 -1.8093  0.4738  1.7058
  191POPC  H12S22056   0.124   4.188   8.035 -0.9286  0.4508  1.0318
  191POPC  C21322057  -0.078   4.214   8.096 -0.3579  0.3520  0.2263
  191POPC  H13R22058  -0.086   4.109   8.130  1.5587  0.4921  1.2571
  191POPC  H13S22059  -0.173   4.251   8.052 -0.5779 -1.7937 -1.2877
  191POPC  C21422060  -0.036   4.290   8.226 -0.0135  0.0897 -0.0541
  191POPC  H14R22061  -0.124   4.298   8.294 -0.6299 -1.2547 -0.6417
  191POPC  H14S22062  -0.016   4.394   8.193 -3.2761  0.5769 -0.8492
  191POPC  C21522063   0.086   4.224   8.306  0.0673 -0.2046 -0.3119
  191POPC  H15R22064   0.176   4.256   8.250  0.6884  1.5877  1.5919
  191POPC  H15S22065   0.076   4.115   8.324  1.1572 -0.3386 -0.4586
  191POPC  C21622066   0.105   4.288   8.457  0.6276 -0.6640 -0.4516
  191POPC  H16R22067   0.173   4.219   8.512  0.8421 -0.5388 -0.5566
  191POPC  H16S22068   0.010   4.315   8.508  0.9548 -0.1266 -0.1221
  191POPC  C21722069   0.170   4.425   8.432 -0.5814 -0.0998 -0.1528
  191POPC  H17R22070   0.117   4.498   8.367  1.1775 -0.5494 -2.1808
  191POPC  H17S22071   0.266   4.406   8.381  0.0575  2.9357 -0.2916
  191POPC  C21822072   0.194   4.507   8.562 -0.2914  0.2860 -0.1893
  191POPC  H18R22073   0.278   4.577   8.547  0.5427 -0.6867 -0.1627
  191POPC  H18S22074   0.219   4.438   8.645 -0.0716 -1.3388 -1.5457
  191POPC  H18T22075   0.104   4.567   8.588 -0.3826  1.1002 -2.1641
  191POPC   C3322076   0.246   3.579   7.240  0.0622  0.8159  0.0113
  191POPC   H3X22077   0.252   3.690   7.243  1.3537  0.7382  1.0517
  191POPC   H3Y22078   0.348   3.537   7.255  0.6055  2.7056  2.1678
  191POPC   C3422079   0.164   3.529   7.364  1.1322 -0.9684 -0.4887
  191POPC   H4X22080   0.163   3.418   7.359  0.9712 -1.1723  2.3494
  191POPC   H4Y22081   0.060   3.566   7.354  0.4265 -3.1083 -1.7339
  191POPC   C3522082   0.220   3.580   7.496 -0.1651 -0.4674 -0.6945
  191POPC   H5X22083   0.245   3.688   7.501  0.6943 -0.6936  3.0101
  191POPC   H5Y22084   0.318   3.531   7.515 -0.8284 -0.7677  2.4127
  191POPC   C3622085   0.137   3.536   7.617  0.5006 -0.7000  0.1435
  191POPC   H6X22086   0.166   3.430   7.633  1.5664 -0.5859 -0.8738
  191POPC   H6Y22087   0.034   3.564   7.587  0.8034 -0.0711 -0.3186
  191POPC   C3722088   0.165   3.617   7.746 -0.0161  0.7079 -0.0795
  191POPC   H7X22089   0.183   3.726   7.736 -0.4716  0.8809  0.8707
  191POPC   H7Y22090   0.261   3.572   7.778  0.8476  0.8018 -2.3243
  191POPC   C3822091   0.062   3.593   7.855  0.3181  0.2176 -0.4181
  191POPC   H8X22092   0.046   3.483   7.859  1.7680 -0.0433 -1.0579
  191POPC   H8Y22093  -0.030   3.649   7.828 -0.0905 -0.5948 -0.7603
  191POPC   C3922094   0.106   3.632   8.000  0.9205 -0.3353  0.6639
  191POPC   H9X22095   0.130   3.740   7.994 -1.7512  0.2871 -0.0356
  191POPC   H9Y22096   0.187   3.563   8.034  0.4222 -2.5007 -2.1299
  191POPC  C31022097  -0.003   3.617   8.108 -0.0081  0.2602  0.1608
  191POPC  H10X22098  -0.050   3.516   8.103  2.6530 -1.0209 -3.5290
  191POPC  H10Y22099  -0.077   3.691   8.072  0.4995 -0.0107 -1.5247
  191POPC  C31122100   0.034   3.670   8.247 -0.1143 -0.0589  0.0249
  191POPC  H11X22101   0.116   3.745   8.240 -0.1362 -0.0621 -0.2947
  191POPC  H11Y22102   0.073   3.585   8.307  0.6806  0.6017  0.4665
  191POPC  C31222103  -0.074   3.740   8.327  0.1255 -0.5141 -0.2745
  191POPC  H12X22104  -0.150   3.668   8.364 -1.4611  1.1703 -0.1084
  191POPC  H12Y22105  -0.130   3.820   8.273 -1.0936 -0.9497  0.3229
  191POPC  C31322106  -0.003   3.813   8.450 -0.0192 -0.4816 -0.3314
  191POPC  H13X22107   0.043   3.903   8.404  0.6630 -0.4077  0.4663
  191POPC  H13Y22108   0.083   3.754   8.488  0.2394 -0.1481 -0.3955
  191POPC  C31422109  -0.093   3.853   8.569  0.5913 -0.0351  1.0990
  191POPC  H14X22110  -0.101   3.761   8.631 -1.8926 -1.2858 -0.8876
  191POPC  H14Y22111  -0.195   3.876   8.533  0.9650  0.4249  0.3053
  191POPC  C31522112  -0.044   3.966   8.661 -0.2081 -0.0014 -0.6734
  191POPC  H15X22113  -0.116   3.978   8.745 -0.1518  1.3012 -0.7930
  191POPC  H15Y22114  -0.047   4.057   8.598  0.8036  0.4441 -0.1014
  191POPC  C31622115   0.098   3.934   8.712 -0.5819  0.0313  0.1768
  191POPC  H16X22116   0.172   3.980   8.644  0.8511  0.0848  1.7181
  191POPC  H16Y22117   0.111   3.823   8.708  1.0466  0.2166 -3.4958
  191POPC  H16Z22118   0.116   3.978   8.812  1.4264  1.4335 -0.7358
  192POPC     N22119   4.925   0.761   6.148 -0.0529  0.3623  0.3386
  192POPC   C1222120   4.972   0.793   6.285 -0.2333  0.4591 -0.2900
  192POPC  H12A22121   4.908   0.868   6.330  0.1541  0.9569 -0.5466
  192POPC  H12B22122   5.073   0.832   6.275  0.9051 -2.1638  0.0969
  192POPC   C1322123   4.808   0.672   6.148 -0.2540 -0.3145  0.0423
  192POPC  H13A22124   4.784   0.640   6.047 -1.0217 -0.3715  0.2369
  192POPC  H13B22125   4.840   0.585   6.203  1.5657 -0.1227 -0.6713
  192POPC  H13C22126   4.720   0.712   6.196  0.4556  0.6688  0.5536
  192POPC   C1422127   4.896   0.879   6.060  0.4890 -0.6241  0.0646
  192POPC  H14A22128   4.882   0.850   5.957  0.0236 -0.7642  0.1646
  192POPC  H14B22129   4.805   0.922   6.098 -0.2852 -0.9061 -1.3903
  192POPC  H14C22130   4.970   0.957   6.067  0.9322 -1.1152  0.9645
  192POPC   C1522131   5.037   0.693   6.066  0.0662  0.1689 -0.2688
  192POPC  H15A22132   5.113   0.765   6.038 -0.2817  0.7940  0.3607
  192POPC  H15B22133   5.008   0.631   5.982 -0.8675 -0.6306  0.6210
  192POPC  H15C22134   5.086   0.631   6.140 -0.7336 -0.7289 -0.4784
  192POPC   C1122135   4.988   0.673   6.382  0.8253  0.3598 -0.2461
  192POPC  H11A22136   4.881   0.642   6.391  1.1394 -0.6439  0.1740
  192POPC  H11B22137   5.027   0.699   6.482  0.3167  0.0125  0.0517
  192POPC     P22138   5.044   0.417   6.348  0.1217 -0.5260 -0.0995
  192POPC   O1322139   5.172   0.341   6.352  0.4532 -0.3299 -0.8724
  192POPC   O1422140   4.949   0.383   6.245  0.0582  0.0995 -0.3712
  192POPC   O1222141   5.076   0.571   6.326  0.2566  0.4892 -0.1424
  192POPC   O1122142   4.971   0.399   6.484 -0.5489 -0.0398  0.0594
  192POPC    C122143   5.039   0.423   6.609 -0.8770  0.9579  0.0823
  192POPC    HA22144   4.962   0.454   6.682 -1.2834 -0.3472  0.2383
  192POPC    HB22145   5.105   0.512   6.602  0.6244  0.0187  1.4938
  192POPC    C222146   5.119   0.303   6.664 -0.1674 -0.3151 -0.1677
  192POPC    HS22147   5.179   0.249   6.587 -0.5325  0.6742 -1.1753
  192POPC   O2122148   5.015   0.210   6.706  0.3041  0.1404 -0.5788
  192POPC   C2122149   5.057   0.088   6.726  1.1718 -0.6601 -0.1143
  192POPC   O2222150   5.164   0.050   6.694  0.3616  0.1418  0.2875
  192POPC   C2222151   4.938   0.013   6.783 -0.6086  0.0358 -0.5757
  192POPC   H2R22152   4.924  -0.076   6.720  1.9611 -1.7639  1.1824
  192POPC   H2S22153   4.850   0.077   6.806  0.3498  0.6975  1.5363
  192POPC    C322154   5.218   0.340   6.783  0.2390 -0.5338  0.7233
  192POPC    HX22155   5.276   0.421   6.735 -1.3688  1.3302  1.7582
  192POPC    HY22156   5.265   0.242   6.806 -3.2768 -2.3803  0.8201
  192POPC   O3122157   5.144   0.398   6.893 -0.8518 -0.1196  0.4617
  192POPC   C3122158   5.146   0.338   7.011 -0.3586  0.7395 -0.4103
  192POPC   O3222159   5.215   0.235   7.028  0.1479 -0.3036  0.2415
  192POPC   C3222160   5.080   0.419   7.119 -0.1637 -0.6442 -0.2960
  192POPC   H2X22161   4.987   0.461   7.074  0.3312 -0.9992 -1.6863
  192POPC   H2Y22162   5.146   0.507   7.137 -0.2856 -0.8878  1.5413
  192POPC   C2322163   4.987  -0.033   6.924 -0.1399 -0.8438  0.9309
  192POPC   H3R22164   5.015   0.045   6.998  1.4355  0.6618 -1.1311
  192POPC   H3S22165   5.075  -0.098   6.905 -0.6560 -1.1667 -0.5076
  192POPC   C2422166   4.884  -0.129   6.987  0.8003  0.5875 -0.5456
  192POPC   H4R22167   4.879  -0.216   6.919  2.5625  0.5428 -0.6555
  192POPC   H4S22168   4.782  -0.086   6.981 -0.1317 -0.9860  2.0939
  192POPC   C2522169   4.914  -0.176   7.133  0.0022 -0.3384 -0.3208
  192POPC   H5R22170   5.019  -0.213   7.129  0.6577  1.5210 -1.2341
  192POPC   H5S22171   4.845  -0.257   7.167 -0.6681  0.3924  0.0867
  192POPC   C2622172   4.914  -0.061   7.236 -0.0241 -0.1778  0.4141
  192POPC   H6R22173   4.819  -0.003   7.226 -0.2386 -0.5564  0.2012
  192POPC   H6S22174   4.999   0.003   7.204  0.5761 -0.8039  0.7431
  192POPC   C2722175   4.940  -0.112   7.383  0.4621  0.1655 -0.4827
  192POPC   H7R22176   4.864  -0.193   7.391 -0.5004  1.0324 -0.6672
  192POPC   H7S22177   4.911  -0.033   7.455  1.2106 -1.0728  1.2297
  192POPC   C2822178   5.081  -0.167   7.397 -0.4439 -0.0688 -0.0609
  192POPC   H8R22179   5.096  -0.256   7.331  0.7214 -0.0135  0.0960
  192POPC   H8S22180   5.073  -0.208   7.500 -0.2052  2.9868  1.2850
  192POPC   C2922181   5.184  -0.063   7.382 -0.5449 -0.5563 -0.4654
  192POPC   H9122182   5.227  -0.038   7.284 -0.2216  0.7147 -0.0168
  192POPC  C21022183   5.250  -0.005   7.482 -0.2365 -0.3357 -0.0108
  192POPC  H10122184   5.333   0.060   7.452 -2.8786  2.5197 -1.8004
  192POPC  C21122185   5.243  -0.026   7.633  0.1328 -0.6130  0.4203
  192POPC  H11R22186   5.175  -0.108   7.665 -0.8795 -0.3620 -1.0101
  192POPC  H11S22187   5.198   0.063   7.682 -0.1497 -1.3158  1.4883
  192POPC  C21222188   5.384  -0.056   7.699 -0.0293  0.2185 -0.1192
  192POPC  H12R22189   5.442   0.037   7.681  0.4167 -0.2468 -1.1909
  192POPC  H12S22190   5.436  -0.129   7.633  2.1037  0.8676  0.7465
  192POPC  C21322191   5.377  -0.094   7.845  0.0206  0.4965 -0.2212
  192POPC  H13R22192   5.323  -0.188   7.867 -0.9268  1.5726  2.5219
  192POPC  H13S22193   5.323  -0.020   7.908 -0.1297  1.0582 -0.9932
  192POPC  C21422194   5.519  -0.120   7.895 -0.2298  0.1067  0.0479
  192POPC  H14R22195   5.588  -0.035   7.879  0.5592 -0.4308  0.5270
  192POPC  H14S22196   5.557  -0.204   7.832 -0.7873 -0.9082  1.0294
  192POPC  C21522197   5.532  -0.170   8.040 -0.2152 -0.0822 -0.3507
  192POPC  H15R22198   5.641  -0.183   8.057 -0.5009  0.2735  2.0843
  192POPC  H15S22199   5.492  -0.273   8.057  0.6654 -0.3951 -0.1169
  192POPC  C21622200   5.468  -0.069   8.133  0.0992  0.4587 -0.7972
  192POPC  H16R22201   5.360  -0.077   8.110  0.0044 -2.3609  0.3069
  192POPC  H16S22202   5.508   0.033   8.109  1.6924  0.0659  0.0243
  192POPC  C21722203   5.479  -0.101   8.285  0.5130 -0.5796 -0.1320
  192POPC  H17R22204   5.583  -0.110   8.322  0.5306 -1.8016 -0.4364
  192POPC  H17S22205   5.438  -0.201   8.312 -0.3275  0.1906  1.6367
  192POPC  C21822206   5.411   0.018   8.355 -1.0294  0.7770 -0.0627
  192POPC  H18R22207   5.302   0.028   8.333 -1.0949  4.5979  1.1508
  192POPC  H18S22208   5.461   0.117   8.347 -0.0865  0.4033  1.0145
  192POPC  H18T22209   5.421   0.010   8.465  3.2130 -0.5078 -0.3469
  192POPC   C3322210   5.057   0.336   7.245 -0.3447 -0.6470  0.1404
  192POPC   H3X22211   5.139   0.262   7.262 -0.1609 -0.4825 -0.0160
  192POPC   H3Y22212   4.967   0.271   7.238 -1.0808  0.1134  1.9328
  192POPC   C3422213   5.034   0.432   7.360  0.4082  0.0773  0.2301
  192POPC   H4X22214   4.945   0.491   7.329  0.2632  0.2083  0.8953
  192POPC   H4Y22215   5.112   0.511   7.369 -1.3987  1.7557  2.2057
  192POPC   C3522216   5.027   0.362   7.495 -0.1199  0.7663 -0.0470
  192POPC   H5X22217   5.119   0.304   7.516 -0.6646  0.0941  0.4915
  192POPC   H5Y22218   4.940   0.293   7.500  1.1748 -0.9910 -0.7012
  192POPC   C3622219   5.002   0.457   7.614  0.2995  0.9289 -0.8935
  192POPC   H6X22220   4.936   0.543   7.593 -1.2309 -0.3362 -1.4462
  192POPC   H6Y22221   5.090   0.492   7.671 -0.1326 -1.1964  1.2261
  192POPC   C3722222   4.921   0.382   7.726 -0.1644 -0.1834  0.9066
  192POPC   H7X22223   4.969   0.283   7.737  3.4827  1.3201  0.0076
  192POPC   H7Y22224   4.816   0.364   7.695  0.1269  0.9984 -0.8909
  192POPC   C3822225   4.923   0.454   7.864 -0.5421 -0.3955  0.3953
  192POPC   H8X22226   4.866   0.548   7.849 -2.6552 -1.7481 -0.5647
  192POPC   H8Y22227   5.028   0.470   7.898 -1.3295  0.4936  2.6161
  192POPC   C3922228   4.835   0.378   7.965 -0.7499 -0.5652  0.1661
  192POPC   H9X22229   4.870   0.272   7.971  1.1473 -0.0506 -1.1551
  192POPC   H9Y22230   4.732   0.358   7.928 -0.1891 -3.1786 -0.1819
  192POPC  C31022231   4.833   0.447   8.103 -0.0590 -0.1539  0.1076
  192POPC  H10X22232   4.789   0.547   8.086  1.2879  0.5207  0.4993
  192POPC  H10Y22233   4.937   0.465   8.137  0.1691  3.6651 -2.0313
  192POPC  C31122234   4.766   0.368   8.215 -0.5186  0.7148  0.0523
  192POPC  H11X22235   4.817   0.269   8.218 -1.6599  0.1199  0.5952
  192POPC  H11Y22236   4.656   0.357   8.198 -0.1505 -0.4336 -1.7727
  192POPC  C31222237   4.789   0.449   8.348 -0.8634  0.1884 -0.1768
  192POPC  H12X22238   4.740   0.547   8.332 -1.5638 -0.4607 -2.4346
  192POPC  H12Y22239   4.899   0.464   8.358 -0.9835  0.6493  0.4884
  192POPC  C31322240   4.743   0.385   8.482  0.7521  0.0517  0.1782
  192POPC  H13X22241   4.786   0.446   8.564  0.5289  3.3324 -1.9647
  192POPC  H13Y22242   4.776   0.279   8.489  1.3063  0.0437 -1.9163
  192POPC  C31422243   4.589   0.399   8.490 -0.1019  0.1696 -0.0276
  192POPC  H14X22244   4.539   0.361   8.399 -0.5164 -0.6254  0.5125
  192POPC  H14Y22245   4.561   0.505   8.508 -0.1747  0.3666 -1.2325
  192POPC  C31522246   4.529   0.320   8.606 -0.3895  0.1523 -0.8276
  192POPC  H15X22247   4.577   0.361   8.697 -1.9826 -1.4738  0.8096
  192POPC  H15Y22248   4.562   0.214   8.597  3.2468  1.1105 -0.5926
  192POPC  C31622249   4.378   0.324   8.627  0.0201  0.2849 -0.0911
  192POPC  H16X22250   4.362   0.272   8.724 -0.0995  1.4490  0.5223
  192POPC  H16Y22251   4.327   0.276   8.540  2.6649  0.8058 -2.0551
  192POPC  H16Z22252   4.340   0.424   8.658 -1.6868 -0.6203  0.9043
  193SOD    SOD22253   4.654   4.317  12.966  0.3815 -0.5970 -0.3584
  194SOD    SOD22254   0.393   4.603  11.604 -0.0984 -0.3796  0.0270
  195SOD    SOD22255   5.700   2.885  16.090 -0.1696  0.1659  0.1346
  196SOD    SOD22256   3.497   5.011   5.714 -0.0203  0.0810  0.1644
  197SOD    SOD22257   3.976   0.942   3.432 -0.0212 -0.1012  0.1640
  198SOD    SOD22258   4.908   6.369  13.747  0.5127  0.3311  0.2134
  199SOD    SOD22259   2.411   5.877  11.304 -0.4353  0.3479  0.2870
  200SOD    SOD22260   0.325   0.505  16.123  0.4837  0.0681  0.0590
  201SOD    SOD22261   2.805   1.009   6.063  0.4992 -0.1198  0.2966
  202SOD    SOD22262   5.069   1.637   0.632  0.5273  0.1559  0.1689
  203SOD    SOD22263   1.566   0.121   5.494  0.2220 -0.0646 -0.2998
  204SOD    SOD22264   4.613   5.079   3.774 -0.3775  0.0609  0.5164
  205SOD    SOD22265   4.775   3.584   5.097  0.2902 -0.2851 -0.1900
  206SOD    SOD22266   2.407   3.747  12.698  0.3468 -0.9543 -0.5735
  207SOD    SOD22267   5.924   3.667  11.744  0.0334 -0.5517 -0.6190
  208SOD    SOD22268   6.195   1.107  10.657  0.1658 -0.8035 -0.0729
  209SOD    SOD22269   3.989   3.122   6.648  0.0497  0.0580 -0.0648
  210SOD    SOD22270   3.645   4.485   5.247 -0.2941  0.1505 -0.3994
  211SOD    SOD22271   1.781   3.739  17.084 -0.4359 -0.0179 -0.0459
  212SOD    SOD22272   3.886   5.062   3.202 -0.5946 -0.3327 -0.1903
  213SOD    SOD22273   1.086   3.946  11.549  0.2534 -0.1443  0.2050
  214SOD    SOD22274   2.982   4.761   6.639 -0.1840  0.1592 -0.2451
  215SOD    SOD22275   3.456   5.721  15.929 -0.0836  0.2152  0.5682
  216SOD    SOD22276   4.318   5.109   6.256  0.2153  0.6878 -0.1179
  217SOD    SOD22277   3.012   0.999  11.766  0.0923  0.0471  0.1329
  218SOD    SOD22278   0.801   4.681  10.641 -0.2792  0.6575 -0.5874
  219SOD    SOD22279   4.590   2.082  11.907 -0.1403 -0.2530 -0.1192
  220SOD    SOD22280   6.291   2.039   5.509 -0.4744  0.4652 -0.2275
  221SOD    SOD22281   0.532   2.362  12.365 -0.1672  0.1318  0.0070
  222SOD    SOD22282   2.862   3.398  17.290  0.0038 -0.7571 -0.4418
  223SOD    SOD22283   3.353   6.608  11.505  0.0807  0.3916 -0.1689
  224SOD    SOD22284   0.691   5.375   6.444 -0.4868 -0.1308  0.1904
  225SOD    SOD22285   0.074   5.621   0.241 -0.4989 -0.4459  0.1557
  226SOD    SOD22286   4.129   1.752  13.999 -0.2165 -0.2563 -0.2197
  227SOD    SOD22287   3.547   1.105   0.616  0.0930 -0.0138 -0.1815
  228SOD    SOD22288   3.885   2.119   1.794  0.3261  0.3040  0.2916
  229SOD    SOD22289   5.436   3.234   4.261 -0.0265  0.3600  0.0950
  230SOD    SOD22290   0.428   1.613   4.745 -0.1681 -0.7803  0.5491
  231SOD    SOD22291   6.371   0.216  12.858 -0.1895 -0.4676 -0.1042
  232SOD    SOD22292   5.081   2.451  16.182  0.2971 -0.2733 -0.0048
  233SOD    SOD22293   5.578   3.574   6.492 -0.1320 -0.2873 -0.0744
  234SOD    SOD22294   1.405   6.648  11.421 -0.0179  0.3437 -0.2863
  235SOD    SOD22295   2.725   5.028   3.636 -0.0454 -0.0450 -0.4676
  236SOD    SOD22296   1.505   6.538   1.745 -0.1677 -0.7643  0.1152
  237SOD    SOD22297   5.183   2.272   4.251 -0.3125  0.0619 -0.6307
  238SOD    SOD22298   4.568   4.092  17.306  0.0539 -0.0011  0.1186
  239SOD    SOD22299   1.123   1.242   6.475 -0.3429  0.0123  0.0876
  240SOD    SOD22300   3.061   0.018  10.828  0.2158 -0.0157  0.0590
  241SOD    SOD22301   3.472   0.630  12.775 -0.6679  0.3400 -0.0057
  242SOD    SOD22302   1.143   2.048  11.778  0.7454  0.1756  0.2325
  243SOD    SOD22303   5.646   1.013   3.217 -0.1127  0.6420 -0.8533
  244SOD    SOD22304   4.624   3.659  16.274  0.1083 -0.1316  0.0724
  245SOD    SOD22305   3.441   6.399  13.757  0.0641  0.1405  0.1923
  246SOD    SOD22306   4.987   4.919   6.118  0.1289  0.1253 -0.1719
  247SOD    SOD22307   4.022   1.917   6.585 -0.3795  0.4177  0.4706
  248SOD    SOD22308   1.424   2.181   0.593  0.5693 -0.4069  0.1519
  249SOD    SOD22309   1.171   5.513  17.099  0.1401  0.1977  0.5305
  250SOD    SOD22310   2.078   6.725   4.936  0.2988 -0.0451  0.2148
  251SOD    SOD22311   0.871   1.036  14.030 -0.1630  0.4115 -0.1973
  252SOD    SOD22312   1.144   5.504   5.260 -0.0886  0.1699 -0.0208
  253SOD    SOD22313   2.195   6.398  13.679 -0.3017  0.3890  0.4395
  254SOD    SOD22314   3.080   1.887  16.214  0.2649 -0.6829 -0.3401
  255SOD    SOD22315   6.161   3.813   2.912 -0.0357  0.3470 -0.0752
  256SOD    SOD22316   4.278   4.966  11.374 -0.1489  0.3057  0.2704
  257SOD    SOD22317   1.738   3.999   2.958 -0.1492 -0.2118  0.0479
  258SOD    SOD22318   6.193   6.074   5.874  0.2963 -0.0193 -0.1666
  259SOD    SOD22319   4.222   3.838   5.011 -0.1958  0.3501  0.0033
  260SOD    SOD22320   0.759   2.314   2.593 -0.1081  0.1033 -0.4301
  261SOD    SOD22321   6.621   4.806  13.934  0.0657  0.0572 -0.1005
  262SOD    SOD22322   1.515   3.415  15.276  0.1580 -0.2302  0.2358
  263SOD    SOD22323   3.443   5.124   1.051  0.3206  0.0232 -0.0818
  264SOD    SOD22324   1.937   5.664  12.238 -0.4481 -0.2969  0.6161
  265SOD    SOD22325   1.474   1.527   3.546  0.5035  0.1926 -0.2367
  266SOD    SOD22326   1.546   6.503  12.628 -0.0098 -0.5605  0.4376
  267SOD    SOD22327   1.030   2.057  13.218  0.4313  0.8060  0.0988
  268SOD    SOD22328   3.542   2.921   4.225  0.1978 -0.2964 -0.1274
  269SOD    SOD22329   4.900   2.141  14.479 -0.2057 -0.9626  0.0905
  270CLA    CLA22330   3.521   4.960   2.502  0.1088  0.4294  0.1328
  271CLA    CLA22331   6.747   1.859   5.725 -0.4482 -0.2039  0.2030
  272CLA    CLA22332   3.205   6.485  13.815  0.1963 -0.1835  0.4414
  273CLA    CLA22333   6.759   5.472   0.791  0.0922  0.2446  0.2281
  274CLA    CLA22334   2.637   0.093   1.012 -0.2064  0.1796 -0.0670
  275CLA    CLA22335   2.720   1.036  12.418  0.0741 -0.3082  0.0057
  276CLA    CLA22336   5.932   6.538  13.048  0.3905  0.1365 -0.3210
  277CLA    CLA22337   4.018   0.614   5.005  0.0451  0.1012 -0.2731
  278CLA    CLA22338   5.213   3.393  14.154  0.1353 -0.0964  0.2947
  279CLA    CLA22339   4.314   1.780   0.046 -0.5115  0.2880 -0.2055
  280CLA    CLA22340   5.952   2.025  15.401  0.0918  0.3587  0.0188
  281CLA    CLA22341   0.886   4.745  13.901  0.1469 -0.5456  0.0181
  282CLA    CLA22342   4.520   0.041   4.132 -0.3495  0.3095  0.3303
  283CLA    CLA22343   6.248   6.504   1.974 -0.0111  0.2713  0.1846
  284CLA    CLA22344   2.276   3.192  16.003  0.1667 -0.3580  0.3284
  285CLA    CLA22345   1.462   3.709  13.720 -0.4139 -0.2276  0.5134
  286CLA    CLA22346   0.708   6.634  15.599 -0.2510  0.1772 -0.1719
  287CLA    CLA22347   1.276   5.445   0.248  0.0287  0.1670 -0.0606
  288CLA    CLA22348   5.507   3.851  12.389 -0.2333  0.3187  0.2667
  289CLA    CLA22349   4.154   3.363  16.287 -0.1148  0.0163  0.0267
  290CLA    CLA22350   6.437   0.255  14.707  0.0730  0.2481 -0.1727
  291CLA    CLA22351   2.842   1.366  16.066 -0.2816  0.0950 -0.4111
  292CLA    CLA22352   5.617   4.090  15.473 -0.6862  0.3812 -0.1823
  293CLA    CLA22353   1.760   4.443  17.274  0.2366  0.1507 -0.2408
  294CLA    CLA22354   1.574   0.205  16.846 -0.7396  0.2387  0.2451
  295CLA    CLA22355   3.230   4.431  17.250  0.1936  0.1855  0.2374
  296CLA    CLA22356   4.106   4.226   5.234  0.1512 -0.1505 -0.1381
  297CLA    CLA22357   6.267   2.094  16.160 -0.2924 -0.1645  0.1369
  298CLA    CLA22358   3.370   2.603   3.920  0.4171  0.0559  0.1972
  299CLA    CLA22359   2.874   0.378   4.033 -0.2749 -0.2038  0.0704
  300CLA    CLA22360   5.402   2.409   5.600  0.0155  0.0278 -0.4413
  301CLA    CLA22361   1.297   1.718   5.575  0.4857  0.2304 -0.3757
  302CLA    CLA22362   0.192   4.634   3.409 -0.4024 -0.2022  0.1072
  303CLA    CLA22363   5.042   5.779  11.030  0.1694  0.3286  0.3846
  304CLA    CLA22364   1.454   4.399   3.028  0.3719  0.0230  0.1480
  305CLA    CLA22365   0.813   2.060  14.031  0.3189 -0.3271  0.2163
  306CLA    CLA22366   3.642   2.607   0.706 -0.3758 -0.1721  0.1985
  307CLA    CLA22367   0.525   2.951   2.366  0.5628  0.1613  0.1081
  308CLA    CLA22368   5.747   3.713   0.011  0.0397 -0.4173 -0.0320
  309CLA    CLA22369   2.313   2.740   1.995 -0.0025 -0.4152  0.3258
  310CLA    CLA22370   3.664   1.561  13.272  0.0810  0.1609 -0.4715
  311CLA    CLA22371   6.262   4.552  15.162  0.6667  0.0580  0.3413
  312CLA    CLA22372   4.465   3.682   3.915 -0.5165  0.3691  0.3046
  313CLA    CLA22373   1.557   0.917   5.305  0.0672 -0.2172 -0.4302
  314CLA    CLA22374   0.175   1.170   3.918  0.0329  0.1627 -0.1343
  315CLA    CLA22375   5.275   4.238  13.507 -0.2901 -0.3012 -0.0951
  316CLA    CLA22376   4.930   4.637   4.615  0.0223  0.3027 -0.6903
  317CLA    CLA22377   1.317   5.626   1.122  0.0160  0.4611  0.0622
  318CLA    CLA22378   1.535   6.021  12.534 -0.2707  0.1342 -0.4811
  319CLA    CLA22379   0.102   3.843   5.614 -0.2501 -0.2028 -0.2286
  320CLA    CLA22380   1.486   6.613  11.869 -0.3522  0.2852 -0.5140
  321CLA    CLA22381   1.955   0.648   1.771  0.2118 -0.1598  0.0810
  322CLA    CLA22382   5.694   5.032  11.738  0.0339 -0.3534 -0.3981
  323TIP3   OH222383   6.561   0.708  15.127  0.3264  0.2969  0.1056
  323TIP3    H122384   6.607   0.686  15.208  1.8339  1.8514 -0.2492
  323TIP3    H222385   6.622   0.682  15.058 -0.2990  0.3390 -0.4644
  324TIP3   OH222386   4.418   0.299  16.440  0.1344 -0.3716 -0.2958
  324TIP3    H122387   4.346   0.236  16.437  0.4499 -0.7042 -1.2731
  324TIP3    H222388   4.424   0.325  16.532 -1.3135 -0.2494 -0.2034
  325TIP3   OH222389   4.156   3.023   5.417  0.4119  0.8765 -0.5626
  325TIP3    H122390   4.077   3.018   5.364 -0.3804 -0.0948  0.6557
  325TIP3    H222391   4.148   3.106   5.464 -1.6064 -0.6242  2.0359
  326TIP3   OH222392   6.115   5.918  14.626 -0.0883  0.6175  0.1718
  326TIP3    H122393   6.126   5.867  14.545  0.8149  1.6269 -0.3730
  326TIP3    H222394   6.022   5.939  14.629  0.0667  1.6276 -1.2903
  327TIP3   OH222395   2.884   2.300  14.669  0.1961 -0.1233 -0.1850
  327TIP3    H122396   2.885   2.379  14.723 -0.5792 -0.0800 -0.2314
  327TIP3    H222397   2.892   2.333  14.579  1.0395 -0.1698 -0.1334
  328TIP3   OH222398   1.006   6.737   1.399  0.2821  0.4012  0.2448
  328TIP3    H122399   0.976   6.797   1.467  0.1822  0.5200  0.0959
  328TIP3    H222400   0.927   6.697   1.364  0.4458 -1.0783  1.4830
  329TIP3   OH222401   1.654   0.856   1.955 -0.1125 -0.4300  0.0625
  329TIP3    H122402   1.602   0.817   1.884 -0.1005  0.7480 -0.6257
  329TIP3    H222403   1.745   0.849   1.924 -0.1086  0.0951 -0.0561
  330TIP3   OH222404   1.311   5.687   6.582  1.0240 -0.2560  0.0928
  330TIP3    H122405   1.265   5.605   6.562  0.7474 -0.9689  3.0932
  330TIP3    H222406   1.240   5.749   6.601  1.2544 -0.0131  0.1563
  331TIP3   OH222407   1.623   1.716  13.500 -0.5585 -0.3279 -0.0518
  331TIP3    H122408   1.550   1.691  13.443 -1.5889 -0.3255  1.2218
  331TIP3    H222409   1.645   1.636  13.547 -0.2791 -0.1349  0.1504
  332TIP3   OH222410   5.745   0.012   0.385  0.1993 -0.4758 -0.5447
  332TIP3    H122411   5.733   0.085   0.446 -1.4501 -0.4951 -0.8050
  332TIP3    H222412   5.840   0.008   0.371  0.5696 -0.0901  1.5279
  333TIP3   OH222413   4.185   6.122  14.202 -0.0511  0.2356 -0.6776
  333TIP3    H122414   4.160   6.092  14.114  0.5502  1.3227 -1.2469
  333TIP3    H222415   4.257   6.065  14.228  0.5367  0.6297 -1.3938
  334TIP3   OH222416   6.402   5.726   1.964  0.2597  0.3094 -0.0992
  334TIP3    H122417   6.323   5.776   1.981  0.9147  1.0550  0.8711
  334TIP3    H222418   6.446   5.772   1.892  0.1106  0.2391 -0.2355
  335TIP3   OH222419   5.188   1.814  12.910 -0.3119 -0.3249 -0.2894
  335TIP3    H122420   5.114   1.773  12.955 -0.6575 -0.7058 -1.1813
  335TIP3    H222421   5.259   1.749  12.917  0.7004  0.8923  2.4584
  336TIP3   OH222422   2.005   4.257  17.126  1.2051 -0.4634 -0.2266
  336TIP3    H122423   2.017   4.298  17.041  0.5863 -0.8066 -0.4852
  336TIP3    H222424   1.929   4.302  17.164 -0.3066 -2.1913 -1.0512
  337TIP3   OH222425   3.489   4.395  12.739  0.3413  0.2199  0.5825
  337TIP3    H122426   3.503   4.476  12.788  0.5023  0.4401  0.1753
  337TIP3    H222427   3.569   4.383  12.688 -0.6229  1.1002 -1.2037
  338TIP3   OH222428   0.283   5.426  11.095 -0.3199  0.1014  0.6172
  338TIP3    H122429   0.201   5.425  11.045 -0.0768  1.0800  0.1950
  338TIP3    H222430   0.351   5.417  11.029  0.0754  2.7498  0.5802
  339TIP3   OH222431   5.395   1.403  11.466  0.1091 -0.0460  0.6094
  339TIP3    H122432   5.465   1.451  11.423  1.0878 -0.6041  1.5293
  339TIP3    H222433   5.373   1.333  11.405 -1.7552  1.8283 -1.0225
  340TIP3   OH222434   2.575   6.165   3.130  0.4403  0.2212  0.4458
  340TIP3    H122435   2.631   6.239   3.156  0.7698 -0.0584  0.5336
  340TIP3    H222436   2.569   6.172   3.035  0.3163  0.4718  0.4716
  341TIP3   OH222437   1.799   4.164   5.635 -0.0923 -0.4834 -0.6138
  341TIP3    H122438   1.781   4.120   5.552  0.7725 -1.0524 -0.5160
  341TIP3    H222439   1.719   4.212   5.655 -1.5072 -2.8573 -0.1870
  342TIP3   OH222440   3.159   3.849   5.123  0.2646  0.2871  0.2756
  342TIP3    H122441   3.113   3.766   5.124  0.3496  0.2090 -1.0418
  342TIP3    H222442   3.106   3.906   5.066 -0.0639  1.3093  1.5465
  343TIP3   OH222443   5.624   4.625  16.371 -0.3873 -0.1013 -0.1010
  343TIP3    H122444   5.671   4.580  16.301  0.7064  1.1781 -0.2267
  343TIP3    H222445   5.567   4.558  16.409  0.0061 -1.1610 -1.3124
  344TIP3   OH222446   2.761   0.205   1.448  0.0143  0.0465  0.1061
  344TIP3    H122447   2.833   0.142   1.454  0.1641  0.2479  0.4876
  344TIP3    H222448   2.779   0.254   1.368  0.2657  0.0469  0.1590
  345TIP3   OH222449   5.366   5.698  16.984 -0.5382 -0.0869 -1.0882
  345TIP3    H122450   5.446   5.719  17.033 -0.8939  0.0185 -0.5565
  345TIP3    H222451   5.372   5.604  16.969 -0.8913 -0.2911 -0.0156
  346TIP3   OH222452   2.727   6.252   1.150 -0.4448  0.5081  0.3063
  346TIP3    H122453   2.804   6.197   1.135 -1.3591 -0.5211 -0.8263
  346TIP3    H222454   2.662   6.193   1.188 -0.5024  1.5087  1.8439
  347TIP3   OH222455   3.330   4.663   3.004 -0.1127 -0.3132 -0.4850
  347TIP3    H122456   3.273   4.608   2.950 -2.7892  0.5031  1.3056
  347TIP3    H222457   3.347   4.740   2.950  0.4732 -1.1450 -1.5448
  348TIP3   OH222458   0.245   5.988  12.388 -0.7083 -0.2055 -0.2811
  348TIP3    H122459   0.244   6.082  12.368 -0.1921 -0.2625 -0.6095
  348TIP3    H222460   0.185   5.978  12.461  0.8460  0.7168  1.2054
  349TIP3   OH222461   0.239   6.709   0.702  0.2418  0.3988 -0.0087
  349TIP3    H122462   0.292   6.780   0.737 -0.4094  0.7090  0.3839
  349TIP3    H222463   0.189   6.677   0.777 -0.9530  0.8744 -0.5575
  350TIP3   OH222464   2.022   6.138  15.745 -0.0441 -0.0960 -0.2280
  350TIP3    H122465   1.994   6.100  15.828 -2.3800  2.0248  0.0870
  350TIP3    H222466   2.028   6.232  15.762  1.6115  0.1697 -1.9315
  351TIP3   OH222467   6.538   2.211   2.534 -0.1471 -0.2282  0.7867
  351TIP3    H122468   6.554   2.133   2.588 -2.6301 -1.2549  0.1547
  351TIP3    H222469   6.453   2.243   2.562 -0.4666  0.5476 -0.9559
  352TIP3   OH222470   4.037   6.518   4.768  0.2328  0.3359 -0.0426
  352TIP3    H122471   3.971   6.562   4.822  1.6926  1.9135  0.5391
  352TIP3    H222472   4.027   6.425   4.790 -0.2070  0.7836  1.8689
  353TIP3   OH222473   1.004   4.492  15.175  0.5447  0.3859  0.0466
  353TIP3    H122474   0.987   4.558  15.242 -0.2739 -0.0080  0.2367
  353TIP3    H222475   0.928   4.496  15.117  1.0207  0.3891 -0.5923
  354TIP3   OH222476   5.680   4.979  16.657  0.0664  0.3069  1.0161
  354TIP3    H122477   5.646   4.894  16.631  1.1205 -0.0484  0.7659
  354TIP3    H222478   5.608   5.040  16.639  0.0740 -0.2062 -0.9361
  355TIP3   OH222479   4.066   0.021   5.360 -0.3012 -0.1191  0.7278
  355TIP3    H122480   4.000   0.022   5.429 -0.7656  1.2907  0.2913
  355TIP3    H222481   4.149   0.030   5.406 -0.5220 -0.3405  1.1752
  356TIP3   OH222482   4.252   2.997  12.868  0.6871  0.1068 -0.0659
  356TIP3    H122483   4.329   3.010  12.922  0.3469 -0.6439  0.6160
  356TIP3    H222484   4.186   2.961  12.927 -0.0860  0.4192 -0.7064
  357TIP3   OH222485   3.213   0.423   4.435  0.1293 -0.0558 -0.5585
  357TIP3    H122486   3.166   0.463   4.363  0.8890 -0.7518 -1.4610
  357TIP3    H222487   3.303   0.456   4.427 -0.2833  1.7848  1.5241
  358TIP3   OH222488   5.196   4.994  14.522  0.2907 -0.1271  0.1041
  358TIP3    H122489   5.269   5.035  14.475  1.0712 -0.9399  0.5586
  358TIP3    H222490   5.238   4.949  14.595 -0.9458  1.6700  2.0252
  359TIP3   OH222491   6.739   2.056   4.323  0.0626 -0.0976 -0.6795
  359TIP3    H122492   6.790   2.047   4.243  0.5234  1.8193 -0.6442
  359TIP3    H222493   6.769   2.137   4.362 -2.0347  0.3953  0.0571
  360TIP3   OH222494   5.692   0.922   2.404 -0.6814  0.3751 -0.0397
  360TIP3    H122495   5.666   1.008   2.373  1.4002  1.2388  0.5048
  360TIP3    H222496   5.787   0.921   2.398 -0.6093 -1.6313  0.6356
  361TIP3   OH222497   3.814   3.212   6.793 -0.1346 -0.9205 -0.6544
  361TIP3    H122498   3.721   3.191   6.804  0.3891 -3.1395  0.0482
  361TIP3    H222499   3.823   3.300   6.829 -2.1007 -0.3270 -1.4977
  362TIP3   OH222500   5.338   2.289  14.438 -0.0913 -0.0887 -0.1337
  362TIP3    H122501   5.366   2.267  14.527  1.6747  2.0097 -0.0742
  362TIP3    H222502   5.412   2.264  14.383 -0.8711 -0.6811 -0.9373
  363TIP3   OH222503   3.754   3.546  15.148 -0.4716 -0.4162  0.1831
  363TIP3    H122504   3.811   3.482  15.190 -0.3503 -0.2692  0.2419
  363TIP3    H222505   3.725   3.503  15.067 -0.7760 -0.7337  0.4577
  364TIP3   OH222506   1.784   4.444   3.079 -0.1571  0.5416  0.0449
  364TIP3    H122507   1.697   4.416   3.108 -0.3064  1.4935  0.5850
  364TIP3    H222508   1.821   4.489   3.155  1.3684 -0.9991  0.2790
  365TIP3   OH222509   4.914   4.155   4.403 -0.1693  0.2210 -0.2021
  365TIP3    H122510   4.908   4.149   4.307 -0.1543  2.7792 -0.4313
  365TIP3    H222511   4.934   4.247   4.420 -1.3067  0.0884  2.3141
  366TIP3   OH222512   5.428   1.533  12.024 -0.0137 -0.0997 -0.7491
  366TIP3    H122513   5.416   1.468  11.954 -1.5199 -0.3251 -0.3340
  366TIP3    H222514   5.341   1.572  12.034  0.4389  0.6799  0.2692
  367TIP3   OH222515   3.004   1.774   0.280 -0.7212  0.3491  0.2025
  367TIP3    H122516   2.975   1.770   0.371 -2.0222  1.6040 -0.1327
  367TIP3    H222517   2.958   1.849   0.243  1.3451  1.1308 -0.9524
  368TIP3   OH222518   1.714   0.486  16.856  0.2513 -0.5934  0.2836
  368TIP3    H122519   1.761   0.493  16.773 -1.2311 -0.7526 -0.5942
  368TIP3    H222520   1.672   0.400  16.853 -0.1597 -0.4277  1.0109
  369TIP3   OH222521   4.706   6.656   3.079 -0.0632  0.2115 -0.4437
  369TIP3    H122522   4.690   6.562   3.085 -0.6666  0.3052 -0.5808
  369TIP3    H222523   4.771   6.664   3.009  0.2892 -0.1342 -0.1588
  370TIP3   OH222524   4.240   6.106   5.772  0.2797 -0.5899 -0.7317
  370TIP3    H122525   4.173   6.039   5.780  0.5330 -1.1426 -2.6161
  370TIP3    H222526   4.202   6.183   5.815 -1.3796 -1.0231 -1.3336
  371TIP3   OH222527   6.752   5.805   1.492 -0.2118 -0.3655  0.2395
  371TIP3    H122528   6.836   5.786   1.449  0.0090  0.0990  0.4613
  371TIP3    H222529   6.719   5.882   1.447 -0.1271 -0.0614  0.6845
  372TIP3   OH222530   3.655   5.907   0.178 -0.4918  0.1723  0.1805
  372TIP3    H122531   3.574   5.866   0.149 -1.3728  1.6312  0.4971
  372TIP3    H222532   3.629   5.993   0.211  0.8297 -0.3104  2.7496
  373TIP3   OH222533   2.842   3.059  13.948 -0.4947 -0.0605 -0.0664
  373TIP3    H122534   2.900   2.997  13.991 -0.6860 -0.4951 -0.4366
  373TIP3    H222535   2.897   3.103  13.883  0.7288  2.9693  2.7282
  374TIP3   OH222536   2.590   1.150  14.661  0.3372  0.5510  0.2778
  374TIP3    H122537   2.566   1.124  14.749 -2.4133  0.0313 -0.5434
  374TIP3    H222538   2.530   1.222  14.640 -0.2534 -0.4411 -1.7279
  375TIP3   OH222539   3.178   0.503  15.492 -0.4298  0.5414  0.2902
  375TIP3    H122540   3.127   0.482  15.415 -1.7073  0.2071  1.1921
  375TIP3    H222541   3.120   0.559  15.544 -0.3313 -0.7128  1.8347
  376TIP3   OH222542   6.637   2.467  12.834 -0.3854 -0.1391  0.3308
  376TIP3    H122543   6.586   2.407  12.780 -1.0651 -1.5596  2.4362
  376TIP3    H222544   6.609   2.449  12.924 -0.1273  2.9182  1.1217
  377TIP3   OH222545   0.094   4.923  11.592 -0.3623 -0.4467  0.0430
  377TIP3    H122546   0.049   4.858  11.539  1.1265 -2.2240  0.8795
  377TIP3    H222547   0.178   4.936  11.548  1.2874 -2.6344  2.2949
  378TIP3   OH222548   2.708   3.890  16.633  0.5713 -0.1157  0.2919
  378TIP3    H122549   2.635   3.863  16.688  1.5910 -1.4396  1.0582
  378TIP3    H222550   2.739   3.971  16.672  1.2753 -1.0341  1.7130
  379TIP3   OH222551   2.673   4.561   1.180 -0.0831 -0.1763  0.2513
  379TIP3    H122552   2.620   4.597   1.251 -2.2008  2.1091 -2.2741
  379TIP3    H222553   2.611   4.510   1.127  0.7926  0.3860 -1.3830
  380TIP3   OH222554   2.537   3.132   2.062 -0.2810 -0.0459  0.0837
  380TIP3    H122555   2.470   3.196   2.083 -0.5499  0.0586 -1.0621
  380TIP3    H222556   2.548   3.138   1.967 -0.0753 -1.4585 -0.0042
  381TIP3   OH222557   1.835   0.142  12.859  0.0560  0.1660 -0.7877
  381TIP3    H122558   1.742   0.143  12.878  0.4750 -0.7659  1.7313
  381TIP3    H222559   1.852   0.226  12.816 -1.6594  1.1761  0.3713
  382TIP3   OH222560   4.981   3.119   0.004  0.1360  0.7459 -0.4298
  382TIP3    H122561   4.958   3.189   0.065  1.4317  1.2866 -0.5388
  382TIP3    H222562   5.076   3.113   0.008  0.0301 -2.8445  1.6196
  383TIP3   OH222563   5.491   0.464  17.339 -0.0378 -0.2677 -0.3749
  383TIP3    H122564   5.518   0.505  17.421 -0.6511 -0.3588 -0.1173
  383TIP3    H222565   5.571   0.424  17.303  0.0714 -0.9539  0.6005
  384TIP3   OH222566   0.356   5.594  10.579 -0.0392  0.1632  0.1107
  384TIP3    H122567   0.273   5.640  10.563 -1.3175 -2.2823 -0.9270
  384TIP3    H222568   0.398   5.589  10.493 -0.5259 -1.5788 -0.0617
  385TIP3   OH222569   3.304   3.313   0.203  1.1618  0.3275 -0.0600
  385TIP3    H122570   3.306   3.243   0.138 -0.5501  0.7568 -0.6383
  385TIP3    H222571   3.347   3.276   0.280 -0.0329 -1.5212 -0.2172
  386TIP3   OH222572   0.259   3.038   0.217 -0.1225 -0.4220  0.1441
  386TIP3    H122573   0.284   3.122   0.180  0.6839  0.9492  3.5033
  386TIP3    H222574   0.323   2.976   0.181  1.1941  0.9791 -0.0124
  387TIP3   OH222575   5.994   2.684  14.124 -0.4600  0.5118  0.1097
  387TIP3    H122576   6.080   2.700  14.162 -0.6410  0.2175  0.6517
  387TIP3    H222577   6.012   2.650  14.036 -0.0081 -0.1646  0.4570
  388TIP3   OH222578   4.553   0.676   2.082  0.1667 -0.3762 -0.7367
  388TIP3    H122579   4.622   0.627   2.038 -0.6702 -1.2279 -1.1445
  388TIP3    H222580   4.549   0.639   2.170 -1.4519 -2.1427 -1.4850
  389TIP3   OH222581   1.793   2.067   2.361 -0.1271 -0.4970 -0.2625
  389TIP3    H122582   1.805   2.145   2.306  1.2116  0.1773  0.9240
  389TIP3    H222583   1.875   2.018   2.352 -0.7039 -1.4523 -0.4802
  390TIP3   OH222584   0.253   3.859  12.538 -0.1945  0.3850  0.0914
  390TIP3    H122585   0.162   3.827  12.543 -0.1149  0.1136 -0.1652
  390TIP3    H222586   0.306   3.784  12.561 -0.0693  0.9078  1.6006
  391TIP3   OH222587   0.773   6.571  13.350 -0.3606  0.3603 -0.3709
  391TIP3    H122588   0.719   6.562  13.428 -0.0634 -2.3617 -0.3702
  391TIP3    H222589   0.858   6.536  13.376  0.7756  2.4541 -1.0268
  392TIP3   OH222590   5.280   3.970  13.268  0.1784  0.6606 -0.1897
  392TIP3    H122591   5.323   4.053  13.289  1.6904 -0.1055 -0.1465
  392TIP3    H222592   5.245   3.938  13.351  0.3697  0.8186 -0.0496
  393TIP3   OH222593   2.964   2.299  15.723  0.8173  0.4362 -0.7135
  393TIP3    H122594   2.992   2.233  15.661  0.8843 -1.2366  1.0177
  393TIP3    H222595   2.869   2.287  15.730  0.8331  0.4948 -0.3659
  394TIP3   OH222596   4.984   5.283  13.537  0.2887  0.1383  0.5144
  394TIP3    H122597   4.977   5.204  13.484  0.7219 -0.1788  0.9229
  394TIP3    H222598   4.963   5.255  13.626  0.6491  0.4323  0.6965
  395TIP3   OH222599   4.560   3.653  16.834  0.0807  0.2659  0.6588
  395TIP3    H122600   4.611   3.732  16.817  0.1910 -0.2217 -1.5912
  395TIP3    H222601   4.621   3.592  16.875  1.0560  0.0746 -1.0052
  396TIP3   OH222602   2.605   3.237  16.016  0.1845 -0.0695 -0.5970
  396TIP3    H122603   2.523   3.259  16.060  0.3438 -0.2279 -0.2163
  396TIP3    H222604   2.580   3.176  15.947 -0.0586  0.1330 -0.6875
  397TIP3   OH222605   1.677   5.984  15.990  0.0341  0.3550  0.0083
  397TIP3    H122606   1.684   5.985  15.894  0.4063  1.3986  0.0340
  397TIP3    H222607   1.604   5.925  16.008  0.9863 -1.1515 -0.8389
  398TIP3   OH222608   2.896   0.990   3.574 -0.2646 -0.0763  0.2370
  398TIP3    H122609   2.963   1.007   3.640 -0.8175  0.1714  0.7405
  398TIP3    H222610   2.823   0.952   3.622 -0.1296 -1.2689 -0.4535
  399TIP3   OH222611   5.361   0.949  11.430 -0.2382  0.0108 -0.2288
  399TIP3    H122612   5.403   0.887  11.489 -1.1807 -0.7845 -0.3574
  399TIP3    H222613   5.421   0.956  11.356  1.1648  1.3613  0.9788
  400TIP3   OH222614   2.826   4.146  13.579 -0.7062 -0.3805  0.2269
  400TIP3    H122615   2.891   4.087  13.542  0.4796  0.9365  0.1209
  400TIP3    H222616   2.787   4.097  13.652  0.9714 -0.9077  0.8030
  401TIP3   OH222617   5.722   1.668   2.581 -0.2285 -0.4888  0.1817
  401TIP3    H122618   5.687   1.755   2.559  0.8085 -0.1205 -0.0796
  401TIP3    H222619   5.812   1.685   2.608 -0.6436 -1.2553  2.2117
  402TIP3   OH222620   4.652   6.368   2.289  0.3633  0.2459  0.7446
  402TIP3    H122621   4.584   6.318   2.244  1.4862  1.4313 -2.5457
  402TIP3    H222622   4.729   6.311   2.288  0.6268  0.5979  0.3260
  403TIP3   OH222623   1.663   0.559   2.221  0.2904 -0.6564 -0.4422
  403TIP3    H122624   1.608   0.508   2.280  0.8484 -0.7076  0.0506
  403TIP3    H222625   1.694   0.496   2.156 -0.7649 -0.4894 -1.1227
  404TIP3   OH222626   0.761   4.646   0.890  0.3832 -0.0672  0.6877
  404TIP3    H122627   0.770   4.571   0.950  1.4455 -0.3213  0.2256
  404TIP3    H222628   0.699   4.616   0.824  0.5440 -0.4167  0.6946
  405TIP3   OH222629   0.316   3.909   3.401  0.2310 -0.2242 -0.4849
  405TIP3    H122630   0.345   3.839   3.342  1.6674  0.8530 -1.1356
  405TIP3    H222631   0.363   3.987   3.370  0.9264  0.4370  1.9993
  406TIP3   OH222632   1.113   4.897  13.071 -0.3216  0.1185  0.4591
  406TIP3    H122633   1.068   4.812  13.069  2.3690 -1.4153 -0.7831
  406TIP3    H222634   1.095   4.931  13.159 -2.4225 -1.1427  0.5975
  407TIP3   OH222635   2.730   2.925   1.375 -0.0674 -0.2703 -0.0291
  407TIP3    H122636   2.652   2.980   1.367 -0.6903 -0.9968  0.8144
  407TIP3    H222637   2.784   2.949   1.300 -1.1765  0.1299 -0.7280
  408TIP3   OH222638   3.560   2.562  12.366  0.0109  0.5352 -0.1107
  408TIP3    H122639   3.525   2.649  12.380 -0.8562  0.0634  0.8016
  408TIP3    H222640   3.634   2.555  12.427  0.9243  1.0697 -1.1145
  409TIP3   OH222641   2.987   3.208  10.770  0.0177 -0.0891 -0.3322
  409TIP3    H122642   3.029   3.126  10.743  0.6455  0.7216 -1.9607
  409TIP3    H222643   2.939   3.237  10.693  0.4174  1.4607 -0.0392
  410TIP3   OH222644   6.425   1.958  16.428  0.4772  0.7120 -0.6185
  410TIP3    H122645   6.402   2.044  16.392  3.8528  1.0625 -2.3467
  410TIP3    H222646   6.439   1.903  16.352  0.4165 -0.8203  0.4284
  411TIP3   OH222647   1.746   1.563   2.572 -0.0345 -0.6511  0.0621
  411TIP3    H122648   1.680   1.588   2.508  0.0872 -2.1146 -0.6891
  411TIP3    H222649   1.744   1.467   2.572  0.2943 -0.6917  1.9265
  412TIP3   OH222650   4.741   5.923   0.946 -0.3205  0.3265 -0.4455
  412TIP3    H122651   4.789   5.931   1.029 -2.4474  2.0917  0.7069
  412TIP3    H222652   4.788   5.981   0.887  1.0841 -0.7762 -0.4932
  413TIP3   OH222653   1.729   6.486  12.464 -1.0325 -0.0370  0.1567
  413TIP3    H122654   1.689   6.484  12.377  0.4400 -1.0420 -0.5476
  413TIP3    H222655   1.799   6.552  12.456  0.0459 -1.1486  0.0971
  414TIP3   OH222656   1.411   3.595   4.938  0.5787  0.1261 -0.0908
  414TIP3    H122657   1.470   3.601   5.013  1.4641  0.2811 -0.7811
  414TIP3    H222658   1.389   3.503   4.932 -1.7052  0.4471  1.9927
  415TIP3   OH222659   0.720   4.389   5.752  0.2812 -0.3807  0.6330
  415TIP3    H122660   0.687   4.301   5.766  1.5873 -0.8668  0.7058
  415TIP3    H222661   0.771   4.383   5.671  0.4194  0.3004  0.6631
  416TIP3   OH222662   1.115   5.256  13.268  0.5281 -0.4338  0.7700
  416TIP3    H122663   1.204   5.221  13.260  0.1540 -0.9489 -3.2049
  416TIP3    H222664   1.062   5.179  13.289  0.6954 -0.7312  0.1485
  417TIP3   OH222665   5.837   1.910  13.818 -0.0767 -0.0953 -0.2286
  417TIP3    H122666   5.860   2.003  13.815 -2.0369  0.4673  0.5891
  417TIP3    H222667   5.901   1.868  13.761  0.6625  1.7924 -0.8826
  418TIP3   OH222668   2.083   0.739   1.304  0.0807 -0.2200  0.0555
  418TIP3    H122669   2.157   0.729   1.363  0.3169 -1.0418 -0.3601
  418TIP3    H222670   2.120   0.733   1.216 -0.1289  1.9673 -0.2345
  419TIP3   OH222671   3.386   1.052  15.375 -0.2598 -0.6453  0.3053
  419TIP3    H122672   3.476   1.057  15.408  0.4722  0.9999 -1.7224
  419TIP3    H222673   3.341   1.127  15.415 -0.4154 -0.7964  0.4174
  420TIP3   OH222674   1.165   5.797   5.866 -0.1452  0.2379 -0.1669
  420TIP3    H122675   1.137   5.745   5.941 -0.7723  1.8650  0.7756
  420TIP3    H222676   1.259   5.812   5.880  0.3097 -1.4876 -1.0247
  421TIP3   OH222677   3.361   4.111  14.571 -0.3427 -0.4017  0.0032
  421TIP3    H122678   3.390   4.162  14.496  2.6922  1.0348  1.9600
  421TIP3    H222679   3.349   4.022  14.537 -2.3567  0.7577 -2.7557
  422TIP3   OH222680   2.317   5.296  16.175  0.2928 -0.2882  0.3936
  422TIP3    H122681   2.365   5.218  16.149  0.5295  0.4349 -1.5737
  422TIP3    H222682   2.243   5.300  16.114  0.3034  1.0183  0.4250
  423TIP3   OH222683   6.605   0.326  12.318 -0.2398  0.2984 -0.3769
  423TIP3    H122684   6.563   0.316  12.403  0.9902 -0.6852  0.1373
  423TIP3    H222685   6.571   0.410  12.285 -1.7069  0.0839  0.4905
  424TIP3   OH222686   0.469   4.491   3.429  0.5693 -0.2513 -1.0005
  424TIP3    H122687   0.378   4.516   3.415 -0.1320 -1.1390  1.3514
  424TIP3    H222688   0.513   4.573   3.451 -0.1382 -0.0611 -0.2245
  425TIP3   OH222689   3.281   3.896  15.234  0.1954 -0.1319 -0.1649
  425TIP3    H122690   3.335   3.975  15.242  0.0916  0.2846 -2.8097
  425TIP3    H222691   3.193   3.924  15.258  0.1533  0.5935 -1.1160
  426TIP3   OH222692   4.280   0.180   4.810 -0.3682  0.5100  0.2429
  426TIP3    H122693   4.257   0.246   4.876 -0.2698  0.4893  0.2973
  426TIP3    H222694   4.226   0.203   4.734  1.0367  1.8159 -0.4144
  427TIP3   OH222695   3.879   5.821   4.118 -0.1715  0.6377 -0.4030
  427TIP3    H122696   3.816   5.844   4.187  1.3400  1.8869  0.6281
  427TIP3    H222697   3.962   5.856   4.149  0.4558  1.8479 -3.1762
  428TIP3   OH222698   4.700   0.125  13.884  0.6515 -0.1966  0.0495
  428TIP3    H122699   4.690   0.208  13.931 -1.2398  0.7653 -1.8754
  428TIP3    H222700   4.613   0.086  13.886  1.1392 -1.3526 -0.5050
  429TIP3   OH222701   6.643   6.715   3.637 -0.4699  0.5603 -0.9779
  429TIP3    H122702   6.599   6.633   3.614 -1.4904  0.5559  0.8231
  429TIP3    H222703   6.574   6.770   3.674 -0.0588  2.7159 -3.1425
  430TIP3   OH222704   5.398   5.997   1.310 -0.1434 -0.1516 -0.3617
  430TIP3    H122705   5.348   6.074   1.337 -0.8611 -1.3350  2.0117
  430TIP3    H222706   5.348   5.962   1.236 -1.0083  0.4928 -0.1102
  431TIP3   OH222707   6.167   3.644  14.422 -1.0884  0.0116  0.0801
  431TIP3    H122708   6.170   3.591  14.342 -1.9804  0.8599 -0.5403
  431TIP3    H222709   6.073   3.657  14.439 -0.8963  0.9195  0.5211
  432TIP3   OH222710   4.318   6.353  11.058  0.2038  0.3532  0.0597
  432TIP3    H122711   4.268   6.392  10.987  4.4254  1.7969 -2.4444
  432TIP3    H222712   4.298   6.408  11.134  0.8945  3.3861 -1.7806
  433TIP3   OH222713   2.668   6.581   1.596  0.7119  0.4111  0.3752
  433TIP3    H122714   2.739   6.592   1.532  2.1806 -2.0308  1.4285
  433TIP3    H222715   2.597   6.636   1.563  1.9105  0.3961 -2.5600
  434TIP3   OH222716   4.075   3.369   2.141  0.2089  0.0368  0.1551
  434TIP3    H122717   4.078   3.322   2.057 -1.7698 -0.1473  0.1468
  434TIP3    H222718   4.057   3.459   2.117  0.2680  0.1014  0.3547
  435TIP3   OH222719   1.158   1.933   0.977 -0.3250 -0.0557 -0.3901
  435TIP3    H122720   1.201   1.935   1.062  0.9591  0.6166 -1.0381
  435TIP3    H222721   1.071   1.971   0.993 -0.8616 -1.7185  0.9904
  436TIP3   OH222722   5.490   2.217   1.766  0.2124 -0.0360  0.6265
  436TIP3    H122723   5.458   2.135   1.729 -0.1524  0.3060  0.1651
  436TIP3    H222724   5.414   2.255   1.811  0.1977  0.3651  0.2693
  437TIP3   OH222725   5.542   2.405   1.299 -0.2728  0.3424 -0.4199
  437TIP3    H122726   5.528   2.499   1.314  0.1085  0.5275 -1.1525
  437TIP3    H222727   5.543   2.366   1.387 -0.6484  0.9922 -0.1216
  438TIP3   OH222728   5.030   1.753   4.444 -0.8952  0.1085 -0.4967
  438TIP3    H122729   4.953   1.729   4.496 -0.4615 -1.3000 -0.4616
  438TIP3    H222730   5.090   1.680   4.456 -0.1281  0.5190 -1.6931
  439TIP3   OH222731   2.184   3.478   1.187 -0.3195 -0.3022  0.0534
  439TIP3    H122732   2.193   3.525   1.104 -1.4011  0.3742  0.3013
  439TIP3    H222733   2.130   3.401   1.165 -0.2102 -0.3734  0.0354
  440TIP3   OH222734   4.998   5.831   5.387  0.4232  0.3212 -0.0621
  440TIP3    H122735   5.054   5.821   5.310  0.7799 -0.3948  0.2859
  440TIP3    H222736   5.059   5.847   5.459  0.1692 -0.1483  0.2632
  441TIP3   OH222737   1.404   6.632   6.291 -0.4085  0.1232  0.2557
  441TIP3    H122738   1.401   6.610   6.198  1.0720 -1.0349  0.4593
  441TIP3    H222739   1.453   6.561   6.331 -2.6571 -0.4172  2.2588
  442TIP3   OH222740   5.800   0.520  15.456 -0.0580  0.8892  0.7809
  442TIP3    H122741   5.882   0.554  15.490  1.2465 -0.1861 -1.1367
  442TIP3    H222742   5.825   0.454  15.392 -2.3482  1.8062 -1.2472
  443TIP3   OH222743   6.699   1.039  17.001  0.0438  0.2838 -0.2021
  443TIP3    H122744   6.605   1.024  17.001  0.1325 -0.3027 -0.5483
  443TIP3    H222745   6.710   1.123  17.047 -0.8543  1.6660 -2.3252
  444TIP3   OH222746   5.832   1.217  13.814 -0.2341 -0.2469 -0.1053
  444TIP3    H122747   5.808   1.269  13.736 -0.1001  1.7979  1.1294
  444TIP3    H222748   5.912   1.259  13.846 -0.2193 -1.1333  1.0597
  445TIP3   OH222749   3.021   1.042  16.392 -0.3844  0.5897 -0.4685
  445TIP3    H122750   3.094   1.083  16.438 -0.8456  0.5212  0.3389
  445TIP3    H222751   3.052   1.032  16.302  1.1715 -0.8384  0.1926
  446TIP3   OH222752   6.477   4.268  12.220  0.1683 -0.4443 -0.0073
  446TIP3    H122753   6.508   4.290  12.132  1.4896  0.3422  0.6199
  446TIP3    H222754   6.552   4.284  12.277 -0.5534 -1.2686  1.2369
  447TIP3   OH222755   1.129   5.916  14.608  0.2331 -0.5754  0.3756
  447TIP3    H122756   1.118   5.985  14.544  0.0280 -2.0437 -1.2567
  447TIP3    H222757   1.224   5.909  14.620  0.2210  0.6755  1.3931
  448TIP3   OH222758   1.793   2.243  15.134  0.0968  0.1168 -0.9805
  448TIP3    H122759   1.810   2.331  15.168 -0.7800 -0.5315  1.3149
  448TIP3    H222760   1.782   2.256  15.040  3.3067  1.9482 -1.2523
  449TIP3   OH222761   6.671   1.558  13.599 -0.2726 -0.0368 -0.0282
  449TIP3    H122762   6.736   1.627  13.588  0.2563 -0.4800  0.2393
  449TIP3    H222763   6.599   1.582  13.541 -0.0755  0.7135  0.0342
  450TIP3   OH222764   0.952   1.351  15.277 -0.4105 -0.2422  0.7519
  450TIP3    H122765   1.035   1.347  15.230 -0.6991  1.1549  0.0757
  450TIP3    H222766   0.888   1.377  15.210 -1.2059 -0.3027  1.4776
  451TIP3   OH222767   4.824   0.565   1.466 -0.4046 -0.3405  0.1698
  451TIP3    H122768   4.890   0.612   1.414 -1.0270  1.9571  1.3245
  451TIP3    H222769   4.865   0.554   1.552  1.0143 -4.9970 -0.8618
  452TIP3   OH222770   2.680   4.355  12.846  0.3249  0.0111 -0.7428
  452TIP3    H122771   2.689   4.450  12.850 -2.2938  0.3277 -0.6641
  452TIP3    H222772   2.647   4.330  12.933 -2.2222 -0.4632 -1.7441
  453TIP3   OH222773   3.968   3.606   2.059  0.6091  0.4879 -0.3306
  453TIP3    H122774   3.896   3.559   2.018  0.2376 -1.0301  1.8616
  453TIP3    H222775   3.925   3.664   2.123  1.2579  0.5919  0.0207
  454TIP3   OH222776   3.986   2.329   3.378  0.0685 -0.1187 -0.0709
  454TIP3    H122777   3.908   2.384   3.378  0.2649  0.1578  0.1769
  454TIP3    H222778   4.040   2.362   3.449  0.3851 -0.3514 -0.1975
  455TIP3   OH222779   3.917   2.034   5.787  0.5432  0.6589 -0.2347
  455TIP3    H122780   3.876   2.006   5.705  0.7636  2.2722 -0.9463
  455TIP3    H222781   3.844   2.063   5.841  0.3375 -0.9807  0.4147
  456TIP3   OH222782   4.504   2.277   1.717 -0.1421  0.0334 -0.3681
  456TIP3    H122783   4.544   2.199   1.755  0.8155  0.0170 -1.3709
  456TIP3    H222784   4.478   2.252   1.629 -0.7334  0.5652 -0.3527
  457TIP3   OH222785   2.010   1.362  13.545 -0.9557 -0.4665 -0.2136
  457TIP3    H122786   2.084   1.303  13.556  0.6412  1.5134  0.4060
  457TIP3    H222787   2.032   1.438  13.599 -3.1270  0.4942 -0.5755
  458TIP3   OH222788   2.569   0.189  11.593  0.0875 -0.2166  0.0039
  458TIP3    H122789   2.474   0.181  11.585 -0.1214  3.1302 -3.5857
  458TIP3    H222790   2.604   0.148  11.514  1.5093  0.1807  0.3880
  459TIP3   OH222791   5.672   3.712  14.664  0.4926 -0.0636  0.1410
  459TIP3    H122792   5.600   3.707  14.727 -1.1148 -1.4289 -1.6865
  459TIP3    H222793   5.698   3.621  14.650  0.8851  0.2183 -1.0711
  460TIP3   OH222794   2.053   3.271   5.620 -0.0367  0.1246  0.3653
  460TIP3    H122795   2.134   3.321   5.633  0.5750 -0.9672  0.9232
  460TIP3    H222796   2.023   3.252   5.709 -0.1062 -0.7313  0.1606
  461TIP3   OH222797   5.219   0.375  16.985  0.0152 -0.3027  0.3296
  461TIP3    H122798   5.162   0.432  16.933  0.8932  1.1961  0.9301
  461TIP3    H222799   5.164   0.300  17.007 -0.5739 -0.6967 -2.1734
  462TIP3   OH222800   6.352   4.860   1.130 -0.4449  0.2296 -0.5398
  462TIP3    H122801   6.309   4.782   1.166  0.3904 -0.0872 -0.1847
  462TIP3    H222802   6.283   4.926   1.124 -1.0329 -0.3511 -0.2669
  463TIP3   OH222803   5.914   3.724  12.329 -0.4849  0.1425  0.2555
  463TIP3    H122804   5.823   3.736  12.302  0.4944  1.9773 -2.5972
  463TIP3    H222805   5.935   3.803  12.378 -0.2716 -0.0497  0.4763
  464TIP3   OH222806   4.914   6.588   2.677  0.0455 -0.4962  0.8354
  464TIP3    H122807   4.879   6.510   2.721 -0.2775 -0.0946  1.3043
  464TIP3    H222808   4.890   6.576   2.585  1.1420 -1.5749  0.6578
  465TIP3   OH222809   5.387   1.310   6.088 -0.7992  0.0073  0.0742
  465TIP3    H122810   5.431   1.279   6.168 -0.9708  1.0270  0.5709
  465TIP3    H222811   5.351   1.230   6.049 -0.4592 -0.5440  0.8521
  466TIP3   OH222812   2.458   0.263  12.649  0.2092 -0.4666  0.0180
  466TIP3    H122813   2.505   0.276  12.567 -1.1350 -0.8660 -0.8539
  466TIP3    H222814   2.373   0.228  12.622 -0.5864  0.2150  1.5292
  467TIP3   OH222815   1.546   0.020  14.452 -0.1156  0.6121 -0.3427
  467TIP3    H122816   1.500   0.081  14.394 -0.0708  1.8294  0.8400
  467TIP3    H222817   1.626   0.067  14.476  0.2943 -0.2476 -0.0092
  468TIP3   OH222818   5.686   6.313   4.478  0.5050 -0.2784  0.3447
  468TIP3    H122819   5.689   6.310   4.383 -1.3786  1.8542  0.1211
  468TIP3    H222820   5.769   6.355   4.503  0.8764 -0.5680 -0.3708
  469TIP3   OH222821   6.019   3.363  17.245  0.0857 -0.4575 -0.1075
  469TIP3    H122822   6.059   3.393  17.327  0.1385 -0.2616 -0.2033
  469TIP3    H222823   6.085   3.307  17.206 -0.3381 -1.3834  0.4773
  470TIP3   OH222824   0.124   1.616  11.736 -0.6769 -0.4510 -0.2498
  470TIP3    H122825   0.048   1.612  11.677 -0.8114  0.6386 -0.1807
  470TIP3    H222826   0.087   1.600  11.823 -0.7736 -0.2736 -0.2568
  471TIP3   OH222827   6.244   4.111   5.306 -0.0094 -0.2222 -0.4225
  471TIP3    H122828   6.224   4.168   5.232  0.0775 -0.2186 -0.4434
  471TIP3    H222829   6.186   4.141   5.376 -1.5724 -1.5374 -1.0880
  472TIP3   OH222830   5.743   0.727  14.472 -0.4827 -0.3103 -0.4866
  472TIP3    H122831   5.677   0.711  14.540  0.5456 -1.3343  0.3277
  472TIP3    H222832   5.752   0.822  14.469 -0.5452 -0.2446  0.8422
  473TIP3   OH222833   3.388   5.560   5.481  0.4454  0.6507 -0.5751
  473TIP3    H122834   3.483   5.558   5.474  0.3644 -0.8201 -1.6302
  473TIP3    H222835   3.362   5.629   5.420  0.8832  2.4333  1.1374
  474TIP3   OH222836   0.543   1.286   5.883 -0.2189  0.1139 -0.6772
  474TIP3    H122837   0.579   1.263   5.968  0.8469  0.9177 -0.9021
  474TIP3    H222838   0.547   1.381   5.879 -1.0355  0.1387 -1.2978
  475TIP3   OH222839   5.403   5.409  13.923 -0.6905  0.5086 -0.3499
  475TIP3    H122840   5.361   5.428  13.840 -3.2676  0.8259  0.9241
  475TIP3    H222841   5.342   5.443  13.989  0.3394 -1.3719  1.6966
  476TIP3   OH222842   1.730   0.695   0.707 -0.2915  0.4846  0.2807
  476TIP3    H122843   1.653   0.750   0.723  1.2914  2.9102  0.1037
  476TIP3    H222844   1.788   0.750   0.655  2.6142 -0.3187  2.4404
  477TIP3   OH222845   1.687   6.416   5.751  0.4922 -0.3635  0.4798
  477TIP3    H122846   1.597   6.412   5.721 -0.6270  2.3528  3.0211
  477TIP3    H222847   1.691   6.354   5.824  0.4755  0.0806  0.8570
  478TIP3   OH222848   1.265   6.258   3.327  0.0855 -1.0171 -0.5760
  478TIP3    H122849   1.194   6.242   3.388 -0.0157  0.0829 -0.3873
  478TIP3    H222850   1.339   6.209   3.362  1.8262  3.8517  3.7821
  479TIP3   OH222851   1.455   0.081  10.935 -0.7307  0.0688  0.2163
  479TIP3    H122852   1.445   0.005  10.878 -0.2869  1.0317 -1.2057
  479TIP3    H222853   1.539   0.119  10.909 -0.6488  0.7051  1.3335
  480TIP3   OH222854   2.465   2.506   0.760  0.5119 -0.0771 -0.1465
  480TIP3    H122855   2.480   2.599   0.778  0.1545 -0.4830  2.6418
  480TIP3    H222856   2.376   2.490   0.791  1.7543 -2.0291  2.7832
  481TIP3   OH222857   3.858   1.896   4.452  0.0904 -0.1249 -0.0314
  481TIP3    H122858   3.944   1.916   4.416 -0.1025  0.7361 -0.0343
  481TIP3    H222859   3.814   1.846   4.383  0.2936  0.1403 -0.3566
  482TIP3   OH222860   5.955   0.816   4.028 -0.0962 -0.4095 -0.1031
  482TIP3    H122861   6.045   0.846   4.031  0.4166 -1.8196 -0.6747
  482TIP3    H222862   5.935   0.793   4.119 -0.5442  1.6578  0.3727
  483TIP3   OH222863   4.586   4.615  11.533  0.0239 -0.1405 -0.7353
  483TIP3    H122864   4.639   4.577  11.462  0.5473  0.6194 -0.7609
  483TIP3    H222865   4.604   4.558  11.608  0.9308  0.1325 -0.7268
  484TIP3   OH222866   0.254   2.243  13.604  0.0265  0.2559 -0.3156
  484TIP3    H122867   0.252   2.277  13.693 -1.1873  0.0246 -0.2432
  484TIP3    H222868   0.196   2.300  13.554 -0.2172 -0.3166 -0.6978
  485TIP3   OH222869   4.309   1.531  15.322 -0.0120  0.1108 -0.1314
  485TIP3    H122870   4.392   1.506  15.362 -0.2153 -0.3614  0.0061
  485TIP3    H222871   4.266   1.448  15.302 -0.6986  0.3467  0.3140
  486TIP3   OH222872   6.119   2.587  16.412 -0.3735  0.3336 -0.3185
  486TIP3    H122873   6.100   2.503  16.369  1.7941  0.7076 -2.1753
  486TIP3    H222874   6.103   2.653  16.345 -1.1452  1.3680  0.8416
  487TIP3   OH222875   3.800   3.541   1.308 -0.3127  0.3457  0.1514
  487TIP3    H122876   3.753   3.503   1.233 -1.4512 -1.5421  1.7221
  487TIP3    H222877   3.892   3.545   1.279 -0.5539 -1.3585 -0.9927
  488TIP3   OH222878   3.867   3.724  12.921  0.2888 -0.0982  0.0239
  488TIP3    H122879   3.960   3.702  12.928  0.4491  0.0217 -1.4486
  488TIP3    H222880   3.826   3.645  12.885  0.2029  0.6054 -1.4704
  489TIP3   OH222881   4.149   6.101   1.502 -0.1849  0.5868  0.3452
  489TIP3    H122882   4.224   6.085   1.559 -0.1949 -0.1735  0.1560
  489TIP3    H222883   4.166   6.048   1.425 -0.8392  0.5402  0.2268
  490TIP3   OH222884   6.631   6.523   2.257 -0.5140 -0.0520 -0.5588
  490TIP3    H122885   6.707   6.518   2.315  0.3182  0.9597 -1.5214
  490TIP3    H222886   6.576   6.448   2.282  1.1551 -1.2447 -0.3444
  491TIP3   OH222887   0.157   0.077  15.756 -0.7159 -0.9601  0.2043
  491TIP3    H122888   0.083   0.028  15.721 -0.7879  0.6037 -2.0201
  491TIP3    H222889   0.199   0.116  15.679  1.7998 -0.9118  1.4860
  492TIP3   OH222890   6.250   2.028  15.762 -0.5926  0.1164 -0.4544
  492TIP3    H122891   6.208   1.960  15.709  2.0687 -3.0383  1.1401
  492TIP3    H222892   6.315   2.067  15.704  1.9861 -3.0036  0.0445
  493TIP3   OH222893   1.897   4.849  11.781 -0.5235 -0.1614  0.2021
  493TIP3    H122894   1.927   4.907  11.711 -1.4701  0.0832 -0.0169
  493TIP3    H222895   1.918   4.895  11.862  1.8214 -1.0368  0.1738
  494TIP3   OH222896   0.919   2.475  15.701 -0.2444 -0.0977  0.4772
  494TIP3    H122897   0.856   2.544  15.678 -0.0490 -0.2153 -0.4783
  494TIP3    H222898   0.994   2.523  15.736 -0.1889  0.1773  0.0035
  495TIP3   OH222899   5.263   4.637  17.199  0.2268 -0.3905 -0.6914
  495TIP3    H122900   5.202   4.621  17.271  1.5131 -1.8996  0.1156
  495TIP3    H222901   5.344   4.664  17.241  0.6500 -0.1295 -1.6418
  496TIP3   OH222902   0.423   1.150   3.710 -0.2434 -0.9283 -0.2194
  496TIP3    H122903   0.390   1.099   3.635 -0.2164 -1.3904  0.0743
  496TIP3    H222904   0.348   1.156   3.769 -0.7942  0.9572 -1.0428
  497TIP3   OH222905   0.699   6.674  14.142 -0.4363 -0.0611 -0.6659
  497TIP3    H122906   0.705   6.578  14.136 -0.1503 -0.0364 -0.8131
  497TIP3    H222907   0.612   6.695  14.110 -0.6483 -0.3037 -0.2619
  498TIP3   OH222908   2.840   2.822   6.484 -0.5128  0.3044 -0.1000
  498TIP3    H122909   2.811   2.891   6.424 -1.0358 -0.7699 -1.1093
  498TIP3    H222910   2.908   2.864   6.537  1.6097  0.7563 -2.9265
  499TIP3   OH222911   3.582   4.335   3.905  0.1408 -0.3952 -0.0480
  499TIP3    H122912   3.671   4.323   3.871 -0.5049  2.8947 -3.6670
  499TIP3    H222913   3.531   4.264   3.865  0.5391 -0.2448 -0.8403
  500TIP3   OH222914   0.030   4.935  17.125  0.8246  0.1753  0.3126
  500TIP3    H122915   0.071   4.869  17.069 -0.8789 -0.5712 -0.1039
  500TIP3    H222916   0.021   5.012  17.069  0.5478 -0.0529  0.0460
  501TIP3   OH222917   2.442   1.068  14.865  0.0137 -0.2487  0.4441
  501TIP3    H122918   2.444   0.973  14.856  0.9279 -0.4396  2.2650
  501TIP3    H222919   2.361   1.094  14.820  0.6585 -1.6541 -1.6799
  502TIP3   OH222920   3.633   6.229   1.921 -0.2027 -0.1147  0.0297
  502TIP3    H122921   3.662   6.165   1.855 -0.4899 -0.1165 -0.0973
  502TIP3    H222922   3.537   6.228   1.914 -0.2966 -0.9190  1.2125
  503TIP3   OH222923   6.098   0.214   3.128  0.6788 -0.6180  0.1088
  503TIP3    H122924   6.127   0.208   3.219  0.3895 -0.6408  0.2011
  503TIP3    H222925   6.140   0.293   3.094  1.3657 -0.9960  0.0476
  504TIP3   OH222926   2.117   0.108  14.651  0.5954 -0.4724  0.0726
  504TIP3    H122927   2.030   0.069  14.641  1.1121 -1.8396  0.6181
  504TIP3    H222928   2.174   0.034  14.671  1.5291  0.6244  1.7732
  505TIP3   OH222929   3.270   3.598   6.059  0.3368  0.2221  0.2056
  505TIP3    H122930   3.296   3.561   6.143 -1.7934 -0.9744  0.4259
  505TIP3    H222931   3.175   3.586   6.057  0.2716  0.7460 -2.1310
  506TIP3   OH222932   5.420   5.533   3.083  0.0790  0.1082 -0.0494
  506TIP3    H122933   5.460   5.450   3.111 -0.3614 -0.5549 -1.3265
  506TIP3    H222934   5.329   5.511   3.066  0.1822  0.6091 -1.3646
  507TIP3   OH222935   3.844   1.621   0.004 -0.2882 -0.1547  0.6977
  507TIP3    H122936   3.836   1.526  -0.009 -0.8070 -0.2273  1.4347
  507TIP3    H222937   3.907   1.649  -0.062 -2.7026 -0.4600 -1.9417
  508TIP3   OH222938   5.239   3.169   0.001 -0.0103  0.0118 -0.4280
  508TIP3    H122939   5.266   3.251   0.042 -1.1873 -0.0094  0.4412
  508TIP3    H222940   5.310   3.108   0.019  0.4806  0.6067 -0.3314
  509TIP3   OH222941   6.006   6.738  15.439  0.1132 -0.2361  0.5002
  509TIP3    H122942   6.101   6.738  15.453  0.3720 -0.5332 -1.0201
  509TIP3    H222943   5.978   6.825  15.468  1.6237  1.7196 -3.2292
  510TIP3   OH222944   4.647   2.335   4.988 -0.6481 -0.3002 -0.2503
  510TIP3    H122945   4.665   2.254   5.035  1.5744  0.0524 -0.4161
  510TIP3    H222946   4.587   2.383   5.045 -1.3362 -1.6806  0.2283
  511TIP3   OH222947   0.127   0.723   5.121 -0.4551  0.2347 -0.4298
  511TIP3    H122948   0.060   0.719   5.054 -0.2774 -0.0678 -0.5915
  511TIP3    H222949   0.111   0.646   5.176 -0.0518 -0.0144 -0.6533
  512TIP3   OH222950   2.878   4.994   3.104  0.2310  0.1306  0.3626
  512TIP3    H122951   2.829   5.074   3.122  1.4475  0.6679  1.4095
  512TIP3    H222952   2.837   4.927   3.160  0.1250  0.3639  0.5648
  513TIP3   OH222953   1.543   0.756  17.211  0.1751  0.4904  0.5383
  513TIP3    H122954   1.627   0.731  17.250  0.3605  0.4335  0.1046
  513TIP3    H222955   1.560   0.839  17.167  1.0122 -1.2340 -2.7458
  514TIP3   OH222956   5.396   3.276   3.094  0.3834  0.2724 -0.3036
  514TIP3    H122957   5.325   3.338   3.082  1.2682  1.5565  0.7078
  514TIP3    H222958   5.373   3.229   3.174  1.0654  1.3325  0.5509
  515TIP3   OH222959   2.947   5.567  17.225  0.2978  0.2963  0.4135
  515TIP3    H122960   2.852   5.556  17.220  0.1913  1.4658 -1.0762
  515TIP3    H222961   2.960   5.638  17.287  0.2290 -0.0917  0.8749
  516TIP3   OH222962   3.408   0.012   4.673 -0.2515 -0.1317 -0.5274
  516TIP3    H122963   3.498   0.041   4.662 -0.4626 -0.1323 -2.8181
  516TIP3    H222964   3.355   0.091   4.662 -0.5451 -0.1476  0.6925
  517TIP3   OH222965   5.998   4.559   3.553 -0.2491  0.0838 -0.1243
  517TIP3    H122966   5.946   4.633   3.586  2.1790  2.0193 -0.3944
  517TIP3    H222967   6.044   4.527   3.631  0.0530  0.0064 -0.3373
  518TIP3   OH222968   5.585   1.055   3.814 -0.0368 -0.2238  0.4361
  518TIP3    H122969   5.657   0.993   3.804  0.9762  0.8521  0.8797
  518TIP3    H222970   5.607   1.106   3.892 -2.2743 -1.1682  1.8061
  519TIP3   OH222971   4.858   4.177  14.310  0.0811 -0.3068 -0.3724
  519TIP3    H122972   4.910   4.098  14.324 -2.7950 -2.3294  0.0141
  519TIP3    H222973   4.811   4.159  14.228 -0.8230  0.9019 -0.1440
  520TIP3   OH222974   2.993   4.916   1.501  0.5987  0.2604 -0.2851
  520TIP3    H122975   3.027   4.870   1.578  0.8925 -1.2059 -1.2599
  520TIP3    H222976   2.900   4.925   1.518  0.4107 -1.2850 -0.3247
  521TIP3   OH222977   6.502   0.368  14.338  0.0231 -0.1473  0.2610
  521TIP3    H122978   6.521   0.290  14.391  0.3143  1.2135  2.2932
  521TIP3    H222979   6.582   0.421  14.343 -0.7828  1.0985  0.4925
  522TIP3   OH222980   2.637   2.466   1.176 -0.4220 -0.3768 -0.3629
  522TIP3    H122981   2.571   2.399   1.188  0.3304 -1.1467 -0.4074
  522TIP3    H222982   2.709   2.439   1.234  0.4011 -0.3127 -1.3337
  523TIP3   OH222983   5.828   4.690  14.326 -0.2523 -0.6754  0.0628
  523TIP3    H122984   5.837   4.720  14.417 -0.2175 -1.5023  0.3489
  523TIP3    H222985   5.865   4.601  14.327  0.0454 -0.5746 -0.8345
  524TIP3   OH222986   1.582   4.415  12.667 -0.4978 -0.2110  1.0669
  524TIP3    H122987   1.498   4.369  12.674  0.0189 -0.9742  2.6648
  524TIP3    H222988   1.642   4.351  12.630 -0.8082  0.6567 -1.0844
  525TIP3   OH222989   4.310   0.282   3.300  0.6426 -0.1193 -0.0654
  525TIP3    H122990   4.393   0.296   3.253  0.5613  1.8950  0.2782
  525TIP3    H222991   4.337   0.256   3.388  1.2590  4.3593  1.3562
  526TIP3   OH222992   1.829   0.522  17.118  0.0144  0.4258 -0.1524
  526TIP3    H122993   1.824   0.559  17.031 -1.3182 -0.3954 -0.4448
  526TIP3    H222994   1.746   0.475  17.130  0.0249  0.7903  1.6718
  527TIP3   OH222995   0.629   1.218  13.306 -0.0889  0.5406  0.2147
  527TIP3    H122996   0.612   1.142  13.362 -0.3986  0.1090 -0.4485
  527TIP3    H222997   0.557   1.278  13.325  0.0080  0.5562  0.5421
  528TIP3   OH222998   6.504   3.655  14.679 -0.7428 -0.6677 -0.2372
  528TIP3    H122999   6.570   3.586  14.684  0.3734  0.1979 -2.0209
  528TIP3    H223000   6.421   3.609  14.683 -0.0489 -1.9016  0.8302
  529TIP3   OH223001   1.443   4.524   4.686  0.3894  0.4092  0.3959
  529TIP3    H123002   1.442   4.443   4.634 -0.6188  0.4739  0.3085
  529TIP3    H223003   1.529   4.524   4.729  1.6937  0.8297 -2.0219
  530TIP3   OH223004   3.064   4.891  11.619  0.1389  0.0374  0.2218
  530TIP3    H123005   3.079   4.957  11.687  0.6640 -0.5311  0.6719
  530TIP3    H223006   3.150   4.877  11.579  0.1650 -0.7855  0.5290
  531TIP3   OH223007   3.998   0.132   2.822 -0.2217 -0.0246  0.2124
  531TIP3    H123008   4.043   0.216   2.817 -0.6090  0.1403 -1.3109
  531TIP3    H223009   4.052   0.078   2.880  0.3283  1.0901  0.7665
  532TIP3   OH223010   2.939   2.092  15.057 -0.0594  0.2651 -0.2977
  532TIP3    H123011   2.858   2.143  15.050  0.4630  1.0770 -0.5785
  532TIP3    H223012   3.007   2.152  15.027  0.9263  0.2817  1.8453
  533TIP3   OH223013   1.422   5.422   1.807  0.1398  0.0043 -0.4844
  533TIP3    H123014   1.357   5.438   1.876  0.6181 -0.4585  0.0853
  533TIP3    H223015   1.504   5.458   1.842  0.8979 -2.2285  0.1824
  534TIP3   OH223016   3.725   5.058   4.924 -0.4259  0.1108 -0.0610
  534TIP3    H123017   3.649   5.115   4.916 -0.4082  0.1017 -0.2734
  534TIP3    H223018   3.797   5.106   4.883 -0.4877 -0.2114 -0.5507
  535TIP3   OH223019   3.072   2.698   0.310  0.3470 -0.0450 -0.2174
  535TIP3    H123020   3.043   2.697   0.218 -0.9074 -1.2378  0.1641
  535TIP3    H223021   3.136   2.628   0.316  0.6562  0.2319 -0.2359
  536TIP3   OH223022   4.281   1.357  14.234  0.0697 -0.5698 -0.3516
  536TIP3    H123023   4.282   1.268  14.272 -1.7612 -0.7191 -0.5907
  536TIP3    H223024   4.309   1.413  14.306 -1.0550 -1.1079  0.5404
  537TIP3   OH223025   1.247   5.803  13.745 -0.4189 -0.0729 -0.6603
  537TIP3    H123026   1.196   5.745  13.802 -1.6682  0.7268 -0.9307
  537TIP3    H223027   1.318   5.747  13.712  0.0550 -0.6809  1.2678
  538TIP3   OH223028   2.058   1.024  13.798 -0.0945 -0.2302  0.3122
  538TIP3    H123029   2.067   1.001  13.890 -2.1210  0.0961  0.6267
  538TIP3    H223030   2.007   0.953  13.760 -1.4684  0.8724  0.0347
  539TIP3   OH223031   1.037   1.916   4.572 -0.0079  0.2702 -0.3350
  539TIP3    H123032   1.104   1.863   4.616 -0.4114  0.8040  0.9774
  539TIP3    H223033   1.075   1.937   4.487  1.4636  0.4999  0.3470
  540TIP3   OH223034   1.682   6.356  13.776  0.2280 -0.1940 -0.4279
  540TIP3    H123035   1.651   6.446  13.767 -0.8636  0.1131  3.9618
  540TIP3    H223036   1.608   6.302  13.747 -0.0161  0.3424 -0.8219
  541TIP3   OH223037   3.416   0.279   6.053  0.5566 -0.2649 -0.6600
  541TIP3    H123038   3.502   0.318   6.069  0.6807 -0.0886 -1.7027
  541TIP3    H223039   3.426   0.187   6.079  0.7906 -0.0415  0.0694
  542TIP3   OH223040   3.319   3.517  14.195 -0.8468  1.1580  0.4186
  542TIP3    H123041   3.274   3.437  14.170 -1.6280  1.6928  0.0409
  542TIP3    H223042   3.278   3.544  14.277  0.0258  0.7062  1.0111
  543TIP3   OH223043   2.092   0.310  14.207  0.3526 -0.3301  0.0026
  543TIP3    H123044   2.119   0.219  14.211  2.7767  0.3477  0.2572
  543TIP3    H223045   1.996   0.306  14.198  0.3558 -2.8579  0.4052
  544TIP3   OH223046   0.616   4.791   3.682 -0.3605 -0.4302 -0.2348
  544TIP3    H123047   0.544   4.854   3.683 -0.6834 -0.7931  0.0879
  544TIP3    H223048   0.628   4.769   3.590 -0.1020  0.2622 -0.3689
  545TIP3   OH223049   0.133   4.030  15.394 -0.0877  0.3107  0.3857
  545TIP3    H123050   0.176   3.949  15.421  0.5222  1.2688  2.5292
  545TIP3    H223051   0.116   4.019  15.300 -0.4205 -2.4312  0.7038
  546TIP3   OH223052   3.130   1.126  11.598 -0.0911 -0.0194 -0.4357
  546TIP3    H123053   3.220   1.113  11.569 -0.2474 -0.2589 -0.8261
  546TIP3    H223054   3.086   1.164  11.523  0.2546  2.4820  0.5437
  547TIP3   OH223055   3.781   1.084  16.277  0.0371  0.3006  0.2725
  547TIP3    H123056   3.740   1.000  16.259  0.3215  0.0245  0.8796
  547TIP3    H223057   3.875   1.066  16.277  0.1764  0.9060 -1.0043
  548TIP3   OH223058   0.543   5.106  13.269 -0.2402  0.0432 -0.1642
  548TIP3    H123059   0.536   5.163  13.192  0.2655  3.4440  2.0739
  548TIP3    H223060   0.467   5.129  13.323  1.1775  0.3101  1.8353
  549TIP3   OH223061   3.986   5.278   3.101 -0.0638  0.1605 -0.2700
  549TIP3    H123062   4.015   5.285   3.192  0.3092  0.4886 -0.4048
  549TIP3    H223063   4.056   5.322   3.051 -1.2118  1.7867 -0.5375
  550TIP3   OH223064   6.110   3.409   1.229  0.6177 -0.3240  0.4684
  550TIP3    H123065   6.054   3.380   1.301  0.1832  0.5490  0.5010
  550TIP3    H223066   6.165   3.333   1.209 -1.2800 -1.5751 -0.2758
  551TIP3   OH223067   6.385   2.019  14.348  0.1963  0.8521 -0.0645
  551TIP3    H123068   6.302   2.057  14.322 -0.3816 -0.5637 -0.3760
  551TIP3    H223069   6.404   2.059  14.433 -2.0643 -0.5512  1.2269
  552TIP3   OH223070   6.515   1.761  16.248 -0.4454  0.2711 -0.7228
  552TIP3    H123071   6.448   1.751  16.180  0.0806  0.3169 -1.2549
  552TIP3    H223072   6.525   1.673  16.284 -1.6640  0.4913  0.2127
  553TIP3   OH223073   0.999   2.464   0.631  0.2400 -0.5167  0.2002
  553TIP3    H123074   1.026   2.556   0.629  0.1471 -0.4325  1.7873
  553TIP3    H223075   0.903   2.467   0.630  0.2286 -0.6600 -0.7923
  554TIP3   OH223076   3.755   5.522  13.987 -0.2729  0.3411  0.2832
  554TIP3    H123077   3.666   5.510  14.021 -0.0576  1.7857  1.4531
  554TIP3    H223078   3.812   5.484  14.054  0.0186 -1.4008 -0.8669
  555TIP3   OH223079   2.634   5.815  11.976 -0.0229 -0.0024 -0.1390
  555TIP3    H123080   2.681   5.887  11.934  0.5080 -0.6332 -0.6577
  555TIP3    H223081   2.621   5.751  11.906 -0.0465 -0.6208  0.4210
  556TIP3   OH223082   5.753   1.243   4.832 -0.0723  0.6379 -0.1836
  556TIP3    H123083   5.705   1.250   4.750 -0.9685  1.0613  0.3602
  556TIP3    H223084   5.781   1.333   4.852 -1.7344  0.9302  1.0463
  557TIP3   OH223085   0.876   0.586   4.917  0.3780 -0.1457 -0.4127
  557TIP3    H123086   0.896   0.651   4.849  0.4670  0.1667 -0.0858
  557TIP3    H223087   0.947   0.595   4.980 -0.2195  0.2235  0.2133
  558TIP3   OH223088   3.926   3.642  12.347 -0.3958 -0.3157  0.0234
  558TIP3    H123089   3.996   3.577  12.344  0.5927  0.7458 -0.5382
  558TIP3    H223090   3.943   3.693  12.425 -1.2002 -0.7316  0.4883
  559TIP3   OH223091   4.173   0.571  16.326  0.6616 -0.1667 -0.1659
  559TIP3    H123092   4.165   0.477  16.335 -0.3850 -0.1000 -0.3089
  559TIP3    H223093   4.251   0.583  16.271  0.7732 -0.9380 -0.1866
  560TIP3   OH223094   0.136   6.048  16.234  0.0001 -0.0957 -0.3185
  560TIP3    H123095   0.221   6.078  16.267  0.0258 -0.4911 -0.0144
  560TIP3    H223096   0.113   5.975  16.292 -1.1035  0.7564  0.3397
  561TIP3   OH223097   1.622   4.832  11.728  0.1215 -0.5532 -0.1066
  561TIP3    H123098   1.621   4.814  11.634  1.1031 -1.3945  0.0294
  561TIP3    H223099   1.715   4.833  11.752 -0.1425 -1.4534  1.0547
  562TIP3   OH223100   1.411   2.819  10.817 -0.2619 -0.5330 -0.3392
  562TIP3    H123101   1.400   2.908  10.784  0.9946 -1.1259 -2.5650
  562TIP3    H223102   1.374   2.821  10.905 -3.8343  1.2147 -1.6857
  563TIP3   OH223103   6.139   5.086  12.303  0.4328 -0.8374 -0.4762
  563TIP3    H123104   6.221   5.117  12.341 -0.2873 -0.5694  0.9495
  563TIP3    H223105   6.073   5.147  12.336 -0.2223 -0.3580 -2.5191
  564TIP3   OH223106   5.381   2.796  15.388 -0.6341 -0.2985  0.4164
  564TIP3    H123107   5.297   2.786  15.432 -0.8716 -1.2315 -0.2128
  564TIP3    H223108   5.393   2.714  15.339  0.9554 -0.4827  1.0215
  565TIP3   OH223109   1.968   6.446  11.833 -0.0636  0.5403 -0.4622
  565TIP3    H123110   1.882   6.404  11.836 -0.4442  1.3479  1.2952
  565TIP3    H223111   1.977   6.488  11.918  2.9989 -1.2666  0.2613
  566TIP3   OH223112   6.064   5.782   0.448  0.1901 -0.8454 -0.0926
  566TIP3    H123113   6.058   5.751   0.539  2.2680 -1.3363 -0.0626
  566TIP3    H223114   6.035   5.707   0.396 -2.2654 -0.1255  0.1550
  567TIP3   OH223115   6.471   2.251  12.726 -0.4800  0.7385 -0.3482
  567TIP3    H123116   6.472   2.173  12.781  2.5774 -0.3999 -1.7789
  567TIP3    H223117   6.391   2.297  12.751 -1.4634 -1.8909  1.8592
  568TIP3   OH223118   5.537   3.100  14.547 -0.2233 -0.5810  0.3847
  568TIP3    H123119   5.451   3.133  14.519  0.5958  0.6250 -0.8564
  568TIP3    H223120   5.572   3.057  14.469  0.4975 -0.6596  0.7469
  569TIP3   OH223121   2.895   2.782   2.058  0.0893  0.1116  0.4326
  569TIP3    H123122   2.831   2.843   2.095 -0.6463 -0.7714  0.6466
  569TIP3    H223123   2.852   2.746   1.980  0.3776 -0.3741  0.4919
  570TIP3   OH223124   5.726   2.557   4.133 -0.2934 -0.4679  0.3556
  570TIP3    H123125   5.759   2.542   4.222 -0.0210 -0.2961  0.2849
  570TIP3    H223126   5.730   2.471   4.091  1.9473 -0.1120 -0.2811
  571TIP3   OH223127   1.028   3.682   0.180 -0.0981 -0.0098  0.5010
  571TIP3    H123128   0.963   3.745   0.211  2.2261  2.3542  0.8868
  571TIP3    H223129   1.067   3.723   0.103  1.3362 -1.1047  0.6027
  572TIP3   OH223130   4.009   0.473   3.766 -0.3827  0.0240 -0.0477
  572TIP3    H123131   3.950   0.548   3.770 -0.4481  0.0164 -0.7329
  572TIP3    H223132   3.979   0.414   3.836 -0.3972  0.5811  0.4168
  573TIP3   OH223133   0.854   5.592   3.410 -0.2445  0.6942  0.4031
  573TIP3    H123134   0.865   5.497   3.415 -1.8722  0.4059 -0.7368
  573TIP3    H223135   0.924   5.621   3.351  0.5678  0.2996  1.1457
  574TIP3   OH223136   1.272   5.303   5.342  0.4781  0.2749 -0.1352
  574TIP3    H123137   1.319   5.264   5.416 -2.6632 -0.7009  1.5601
  574TIP3    H223138   1.258   5.230   5.281  3.2598  1.1256 -1.9557
  575TIP3   OH223139   2.480   2.876  11.682 -0.5043 -0.2964  0.0365
  575TIP3    H123140   2.449   2.893  11.771  1.3865 -0.3130  0.7393
  575TIP3    H223141   2.452   2.787  11.663 -1.8430  0.0773  0.1897
  576TIP3   OH223142   4.632   4.133   4.493  0.3391  0.7446  0.3989
  576TIP3    H123143   4.664   4.155   4.405 -0.1388 -2.3235 -0.6660
  576TIP3    H223144   4.711   4.133   4.547  1.1083 -0.0360 -0.6785
  577TIP3   OH223145   5.825   0.747   0.140 -0.4445  0.7016 -0.5744
  577TIP3    H123146   5.833   0.817   0.205 -0.7207  1.2013 -1.0756
  577TIP3    H223147   5.915   0.725   0.117 -0.3699  1.4836 -1.0479
  578TIP3   OH223148   0.485   3.525  15.145 -0.1368 -0.0824  0.2967
  578TIP3    H123149   0.574   3.493  15.160  0.4439  2.4057  3.0503
  578TIP3    H223150   0.476   3.525  15.050  2.6301 -0.8085 -0.0672
  579TIP3   OH223151   4.646   6.229   0.875 -0.4617 -0.1629 -0.1333
  579TIP3    H123152   4.620   6.143   0.905 -0.4277  0.1295  0.7603
  579TIP3    H223153   4.727   6.214   0.826 -0.8799 -0.7286 -0.6624
  580TIP3   OH223154   6.667   2.417   1.038 -0.3297  0.3529 -0.4537
  580TIP3    H123155   6.573   2.421   1.053  0.0822  1.8600  2.4512
  580TIP3    H223156   6.691   2.504   1.005 -0.0035 -0.2284 -1.8157
  581TIP3   OH223157   6.523   0.553  13.460 -0.3530  0.0433 -0.3406
  581TIP3    H123158   6.571   0.595  13.531 -0.1890 -0.5343 -0.1031
  581TIP3    H223159   6.479   0.625  13.415  2.8708  0.9904 -2.2879
  582TIP3   OH223160   3.219   3.631  11.519 -0.9129  0.1173  0.6275
  582TIP3    H123161   3.132   3.606  11.550 -1.1683  1.0134  0.6440
  582TIP3    H223162   3.204   3.662  11.430 -0.3182 -1.5597 -0.0993
  583TIP3   OH223163   3.689   0.518  15.881 -0.5059 -0.1765 -0.1652
  583TIP3    H123164   3.650   0.603  15.900 -0.5569 -0.4723  1.0970
  583TIP3    H223165   3.624   0.474  15.825 -1.6106 -0.3132  1.1767
  584TIP3   OH223166   4.178   5.354   3.312  0.6173 -0.2026 -0.3777
  584TIP3    H123167   4.185   5.435   3.362 -1.3881 -0.1396 -0.1327
  584TIP3    H223168   4.202   5.285   3.375  2.3130  0.1483 -0.5840
  585TIP3   OH223169   6.453   1.770   0.535  0.2962 -0.5185 -0.2013
  585TIP3    H123170   6.481   1.778   0.444  1.8566 -0.6522  0.2418
  585TIP3    H223171   6.384   1.836   0.544  1.6716  1.0893 -0.8909
  586TIP3   OH223172   3.823   1.623   3.177  0.5409  0.2052  0.4468
  586TIP3    H123173   3.829   1.694   3.113  0.5885  1.5369  1.8588
  586TIP3    H223174   3.735   1.587   3.165  1.0496 -0.5486 -1.3091
  587TIP3   OH223175   4.099   0.378   4.322  0.2866  0.5599 -0.1388
  587TIP3    H123176   4.077   0.448   4.261 -0.0047 -0.6317 -1.4584
  587TIP3    H223177   4.107   0.300   4.267  2.4113 -0.1150  1.0316
  588TIP3   OH223178   1.960   2.364   5.039  0.2586 -0.4197 -0.0881
  588TIP3    H123179   1.892   2.417   4.997  1.0980  0.2994 -0.5512
  588TIP3    H223180   1.936   2.274   5.017 -0.4434 -0.1638 -0.4036
  589TIP3   OH223181   2.664   5.418   2.126 -0.0342  0.5970 -0.3077
  589TIP3    H123182   2.594   5.477   2.157 -0.1914  0.6253 -0.7055
  589TIP3    H223183   2.745   5.462   2.152 -0.1639  0.1500  0.9143
  590TIP3   OH223184   4.327   1.330   5.668  0.1987  0.2122 -0.3450
  590TIP3    H123185   4.343   1.236   5.668  0.2391  0.2067 -1.4370
  590TIP3    H223186   4.250   1.342   5.724 -0.4808 -0.6001 -1.0841
  591TIP3   OH223187   5.467   0.382  15.962 -0.9578  0.1246  0.6574
  591TIP3    H123188   5.506   0.413  16.043  0.3163  0.2851  0.0111
  591TIP3    H223189   5.376   0.411  15.966 -0.9327  0.0635  2.0454
  592TIP3   OH223190   6.329   0.579  15.081 -0.4214  0.0809  0.1660
  592TIP3    H123191   6.397   0.645  15.093 -1.4748  1.1977  0.2236
  592TIP3    H223192   6.312   0.580  14.986 -0.4015 -0.1507  0.1600
  593TIP3   OH223193   2.722   5.618   3.372 -0.3524  0.3001  0.5838
  593TIP3    H123194   2.669   5.697   3.383 -1.7072 -0.4353 -0.3882
  593TIP3    H223195   2.673   5.549   3.418 -0.3297 -0.4182 -0.4287
  594TIP3   OH223196   1.282   4.373   0.105 -0.0126 -0.4647  0.3523
  594TIP3    H123197   1.350   4.352   0.042 -0.5912 -0.6055 -0.2428
  594TIP3    H223198   1.216   4.305   0.092 -1.4002  1.0240 -0.8144
  595TIP3   OH223199   4.260   2.750   2.114  0.2062  0.4155 -0.5353
  595TIP3    H123200   4.179   2.783   2.076  0.3459 -0.3884 -1.5857
  595TIP3    H223201   4.232   2.688   2.181 -0.0450  0.6069 -0.4643
  596TIP3   OH223202   3.725   1.934  14.119  0.0471  0.3226  0.1633
  596TIP3    H123203   3.704   1.938  14.026  1.0379  2.4367 -0.0237
  596TIP3    H223204   3.646   1.900  14.161 -1.1971  1.3975 -1.2266
  597TIP3   OH223205   1.910   0.993   3.174 -0.0578  0.6240  0.6235
  597TIP3    H123206   1.888   0.900   3.170 -0.9790  0.8164  1.1582
  597TIP3    H223207   1.863   1.032   3.101  0.5430  0.6336  0.2368
  598TIP3   OH223208   5.000   3.319   0.898 -0.2278  0.4087  0.1904
  598TIP3    H123209   4.950   3.312   0.979 -0.5419  0.7043  0.0251
  598TIP3    H223210   5.092   3.314   0.926 -0.3477 -2.0608  0.3077
  599TIP3   OH223211   1.899   2.900   3.559 -0.6355  0.2906  0.3540
  599TIP3    H123212   1.817   2.945   3.540  0.1562  1.5589 -0.1887
  599TIP3    H223213   1.911   2.840   3.485 -0.4615  1.0186 -0.2225
  600TIP3   OH223214   0.059   3.927  15.064 -0.4197 -0.0290  0.1479
  600TIP3    H123215   0.151   3.943  15.044 -1.0272  1.3757 -1.8945
  600TIP3    H223216   0.042   3.839  15.033  0.0094  0.0778 -0.4042
  601TIP3   OH223217   0.062   5.478  13.629 -0.2741  0.4620  0.6360
  601TIP3    H123218   0.111   5.543  13.580  0.9457 -1.2836 -0.5940
  601TIP3    H223219   0.128   5.431  13.680 -1.1212  0.2052  1.5419
  602TIP3   OH223220   0.913   6.000   2.372 -0.0662 -0.5264  0.8271
  602TIP3    H123221   0.915   6.093   2.351 -2.7973 -0.4259  0.6910
  602TIP3    H223222   0.900   5.956   2.288  3.9541 -1.4068  0.4215
  603TIP3   OH223223   4.331   4.677  14.410  0.7041 -0.0215  0.3972
  603TIP3    H123224   4.382   4.690  14.490  2.2844  0.1655 -0.6048
  603TIP3    H223225   4.312   4.765  14.378  0.8471 -0.1008  0.0897
  604TIP3   OH223226   0.466   6.122   1.819  0.7195 -0.1137 -0.1014
  604TIP3    H123227   0.393   6.168   1.862 -0.1760 -2.9437  1.7066
  604TIP3    H223228   0.429   6.088   1.738  0.9264  0.9441 -0.6526
  605TIP3   OH223229   2.098   1.067   0.653  0.1098  0.1377 -0.3891
  605TIP3    H123230   2.061   1.034   0.571  1.7097 -0.1649 -1.0157
  605TIP3    H223231   2.024   1.067   0.714 -0.8989 -0.4957 -1.5689
  606TIP3   OH223232   2.892   4.122  17.094 -0.1314 -0.0690  0.1786
  606TIP3    H123233   2.838   4.077  17.159  0.2888 -1.2323 -0.2610
  606TIP3    H223234   2.885   4.215  17.117 -2.3174 -0.1753  0.1377
  607TIP3   OH223235   3.579   5.144   0.205  0.5196  0.0451 -0.5726
  607TIP3    H123236   3.618   5.118   0.288  0.6698  1.4982 -0.1459
  607TIP3    H223237   3.526   5.069   0.178 -1.2068  0.2547  1.8850
  608TIP3   OH223238   1.649   2.491  15.934 -0.1681 -0.0972 -0.3232
  608TIP3    H123239   1.722   2.535  15.891 -0.1246  0.6560  0.4961
  608TIP3    H223240   1.689   2.413  15.973  0.4367  0.8022  0.9520
  609TIP3   OH223241   0.793   2.124  12.951  0.4837 -0.0412 -0.2955
  609TIP3    H123242   0.867   2.064  12.955  1.1711  0.8171  0.1115
  609TIP3    H223243   0.737   2.098  13.025 -0.4080 -1.6478 -1.4606
  610TIP3   OH223244   6.726   4.897  10.459  0.4357  0.2074 -0.3494
  610TIP3    H123245   6.660   4.944  10.511  1.6725  1.4763  0.1469
  610TIP3    H223246   6.675   4.843  10.399 -1.0561 -0.7166  1.6357
  611TIP3   OH223247   3.711   2.103   4.320 -0.3963 -0.6183 -0.0222
  611TIP3    H123248   3.692   2.169   4.387  1.6388  2.2194 -1.9905
  611TIP3    H223249   3.784   2.053   4.356  0.1835  0.3759  0.2413
  612TIP3   OH223250   6.318   6.064   3.894 -0.4760 -0.0146  0.0314
  612TIP3    H123251   6.409   6.060   3.925 -1.1036 -0.3908  1.9612
  612TIP3    H223252   6.319   6.129   3.824  1.0116  1.0438  0.9860
  613TIP3   OH223253   1.550   6.334  11.566 -0.2730  0.3383 -0.2331
  613TIP3    H123254   1.557   6.346  11.471 -0.0801 -1.1557 -0.4428
  613TIP3    H223255   1.470   6.282  11.577  0.1648 -0.2268  0.3446
  614TIP3   OH223256   0.950   0.444  17.332 -0.3326 -0.3210  0.4206
  614TIP3    H123257   1.045   0.433  17.334 -0.2894 -0.4711 -1.2964
  614TIP3    H223258   0.937   0.539  17.327 -0.4610  0.1215  4.7093
  615TIP3   OH223259   1.686   0.552  12.328  0.2045 -0.2613  0.0434
  615TIP3    H123260   1.775   0.589  12.333  0.1992 -0.2107 -0.2113
  615TIP3    H223261   1.630   0.618  12.368  0.2324 -0.1198 -0.1499
  616TIP3   OH223262   4.565   3.748  11.243  0.4060  0.2252 -0.3955
  616TIP3    H123263   4.641   3.799  11.272  1.6370 -1.9010  0.3581
  616TIP3    H223264   4.541   3.696  11.320 -1.7777  0.7349 -0.6624
  617TIP3   OH223265   4.856   2.802  16.322  0.2229 -0.2268  0.6377
  617TIP3    H123266   4.858   2.805  16.226  1.4584 -1.1703  0.6122
  617TIP3    H223267   4.802   2.726  16.343  0.2492 -0.2356  0.6747
  618TIP3   OH223268   5.976   1.277  16.192 -0.1675 -0.0282  0.3823
  618TIP3    H123269   5.921   1.234  16.126  1.0631  0.4641 -1.0282
  618TIP3    H223270   5.914   1.326  16.246 -1.2582 -0.7287 -0.1932
  619TIP3   OH223271   5.906   4.800  12.291  0.2819 -0.4606 -0.1838
  619TIP3    H123272   5.838   4.827  12.229  1.5167  1.4810 -0.8055
  619TIP3    H223273   5.973   4.869  12.285  1.1491 -0.9746  2.2373
  620TIP3   OH223274   6.225   1.440  16.172  0.3138 -0.0922  0.4083
  620TIP3    H123275   6.209   1.346  16.180  0.6812 -0.0125  2.9169
  620TIP3    H223276   6.153   1.472  16.119 -0.8314 -1.5490  1.0106
  621TIP3   OH223277   2.596   1.742  11.669  0.1223 -0.6051 -0.1349
  621TIP3    H123278   2.683   1.755  11.631 -0.6150 -1.2808 -2.2069
  621TIP3    H223279   2.557   1.829  11.670  0.3461 -0.4984 -0.4553
  622TIP3   OH223280   6.233   0.264  15.428  0.2851 -0.1991 -0.1345
  622TIP3    H123281   6.275   0.301  15.350 -1.7894  0.2146 -1.1255
  622TIP3    H223282   6.192   0.339  15.471 -3.2982 -1.0072 -1.7392
  623TIP3   OH223283   2.850   1.044   1.866  0.4998 -0.2398 -0.1661
  623TIP3    H123284   2.836   0.950   1.850 -2.0975 -0.6462  3.3116
  623TIP3    H223285   2.934   1.063   1.823  0.3130 -3.6729 -2.5049
  624TIP3   OH223286   2.406   0.861  13.230  0.1335  0.4318 -0.1400
  624TIP3    H123287   2.344   0.791  13.208 -0.7534  1.1667 -0.0777
  624TIP3    H223288   2.367   0.940  13.192 -0.2877  1.3636  2.0335
  625TIP3   OH223289   6.665   5.814   3.822 -0.1204  0.3427  0.7088
  625TIP3    H123290   6.649   5.902   3.858  0.2424  1.5261 -1.8142
  625TIP3    H223291   6.757   5.815   3.797 -0.6018  0.0017 -1.2053
  626TIP3   OH223292   4.456   1.836  14.363  0.4892 -0.0464  0.3984
  626TIP3    H123293   4.404   1.755  14.370  0.6705 -0.2769 -0.6737
  626TIP3    H223294   4.494   1.831  14.275 -0.8245  2.0064 -0.3452
  627TIP3   OH223295   3.682   2.664  11.713 -0.6450  0.0290 -0.0894
  627TIP3    H123296   3.674   2.645  11.806  0.4649 -1.9625 -0.3510
  627TIP3    H223297   3.697   2.579  11.672 -0.8387  0.8890 -2.0675
  628TIP3   OH223298   3.205   1.786   1.226  0.0487 -0.2954  0.1276
  628TIP3    H123299   3.182   1.697   1.198 -1.1577  0.0092  0.1206
  628TIP3    H223300   3.279   1.810   1.170  0.6735 -1.4417  0.4178
  629TIP3   OH223301   0.556   6.714   0.304 -0.2269  0.1345 -0.1864
  629TIP3    H123302   0.570   6.626   0.269 -0.5737 -0.4760  1.1487
  629TIP3    H223303   0.622   6.768   0.259  0.4857 -0.9434 -0.4870
  630TIP3   OH223304   0.350   4.225   3.998 -0.0263  0.2919  0.3996
  630TIP3    H123305   0.275   4.169   3.978  0.9317 -1.0265  0.3203
  630TIP3    H223306   0.319   4.283   4.068 -0.9986 -0.4938  0.6494
  631TIP3   OH223307   3.548   3.251   1.441 -0.5073  0.0591  0.2972
  631TIP3    H123308   3.463   3.261   1.484 -0.1713 -0.2486  1.0585
  631TIP3    H223309   3.528   3.212   1.356 -1.1249 -0.0822  0.5057
  632TIP3   OH223310   5.292   3.294   6.111  0.3920  0.4693  0.9281
  632TIP3    H123311   5.211   3.300   6.161 -0.3128 -0.6443 -0.0280
  632TIP3    H223312   5.359   3.269   6.175 -0.3802 -0.4155  1.4104
  633TIP3   OH223313   2.221   0.954   3.326  0.0778 -0.0193  0.5836
  633TIP3    H123314   2.173   0.932   3.406 -0.1228 -0.4972  0.3414
  633TIP3    H223315   2.153   0.967   3.260  0.2658 -0.7117  0.2340
  634TIP3   OH223316   2.133   0.922  14.775  0.1144  0.9863 -1.0106
  634TIP3    H123317   2.117   0.994  14.837  1.2705  1.0785 -0.8080
  634TIP3    H223318   2.109   0.843  14.824  1.7777  0.9882 -0.1217
  635TIP3   OH223319   4.484   1.119   3.464  0.1435  0.5440 -0.1774
  635TIP3    H123320   4.414   1.148   3.521 -1.4251 -0.1496 -1.6738
  635TIP3    H223321   4.534   1.198   3.444  0.4485  0.8707  1.7106
  636TIP3   OH223322   4.278   1.022   6.094 -0.0142  0.4729  0.1603
  636TIP3    H123323   4.187   1.014   6.065 -0.5273 -0.4419  1.9061
  636TIP3    H223324   4.322   0.946   6.056 -0.4237 -0.1074  0.8223
  637TIP3   OH223325   6.578   4.275   5.436  0.2695 -0.2294 -0.0794
  637TIP3    H123326   6.673   4.264   5.432  0.2787 -0.4388  0.5900
  637TIP3    H223327   6.563   4.328   5.514 -0.1753 -0.2784 -0.1264
  638TIP3   OH223328   6.219   5.864  11.848 -0.3859 -0.6505  0.2594
  638TIP3    H123329   6.207   5.769  11.849 -1.5513 -0.5264 -0.8187
  638TIP3    H223330   6.234   5.885  11.756 -0.1893  0.2276  0.4866
  639TIP3   OH223331   1.846   2.484  17.125  0.2638 -0.1089  0.3939
  639TIP3    H123332   1.912   2.552  17.112 -2.0107  2.2510  0.4105
  639TIP3    H223333   1.851   2.431  17.045  1.9385  0.1756  0.2730
  640TIP3   OH223334   0.326   3.512   0.347  0.9960 -0.0725  0.7080
  640TIP3    H123335   0.312   3.424   0.312  0.0774  0.1159  0.5680
  640TIP3    H223336   0.311   3.502   0.441 -4.9684  0.8919  0.2448
  641TIP3   OH223337   6.070   0.157   0.182 -0.1713  0.8524 -0.2265
  641TIP3    H123338   6.084   0.209   0.262  0.1105 -0.7496  0.8054
  641TIP3    H223339   6.031   0.075   0.213  2.9923 -1.2107 -1.2650
  642TIP3   OH223340   0.589   4.355  12.492  0.0539  0.4475 -0.0302
  642TIP3    H123341   0.541   4.407  12.427  1.4927  0.6396 -0.9749
  642TIP3    H223342   0.522   4.329  12.555 -1.3783  0.3136 -1.5372
  643TIP3   OH223343   4.647   1.278   5.982  0.0089 -0.4708  0.1199
  643TIP3    H123344   4.553   1.292   5.996  0.1986  0.3114  0.6860
  643TIP3    H223345   4.685   1.285   6.070  0.8503  1.3833 -0.3490
  644TIP3   OH223346   2.193   0.551  16.319 -0.3723  0.0519  0.5057
  644TIP3    H123347   2.148   0.634  16.305  1.0545  0.7797  0.0045
  644TIP3    H223348   2.266   0.574  16.377 -0.0580 -0.8857  0.4911
  645TIP3   OH223349   6.367   1.552   6.464 -0.4997 -0.4331  0.1838
  645TIP3    H123350   6.415   1.475   6.494  0.3313 -0.1476 -0.4102
  645TIP3    H223351   6.385   1.619   6.530  2.1345  0.5014 -1.3669
  646TIP3   OH223352   6.449   1.127   5.566  0.4540 -0.4126 -0.2341
  646TIP3    H123353   6.441   1.040   5.603 -0.4026 -0.5654 -0.7440
  646TIP3    H223354   6.395   1.182   5.622 -0.5385 -0.5749 -0.9927
  647TIP3   OH223355   3.527   3.584  14.547  0.0474 -0.1197 -0.6756
  647TIP3    H123356   3.466   3.646  14.505  0.4081  1.2921  0.7754
  647TIP3    H223357   3.611   3.629  14.544 -0.1689  0.7485  2.7584
  648TIP3   OH223358   4.059   4.363  17.009  0.0124 -0.3311  0.1418
  648TIP3    H123359   3.990   4.429  17.002  0.4939  0.3233  1.2642
  648TIP3    H223360   4.016   4.286  17.047 -0.6731 -0.8853 -1.6746
  649TIP3   OH223361   5.076   4.322  17.020 -0.2806  0.1085  0.0867
  649TIP3    H123362   5.010   4.258  16.991  0.1383 -0.1455 -0.3164
  649TIP3    H223363   5.159   4.284  16.993  0.0754  0.1697  1.0776
  650TIP3   OH223364   3.341   1.978   0.213 -0.7997 -0.4542  0.3846
  650TIP3    H123365   3.374   2.002   0.126 -0.7278  0.2436  0.5986
  650TIP3    H223366   3.311   1.887   0.203 -1.6771 -0.0803 -0.6249
  651TIP3   OH223367   0.799   0.511  17.005 -0.0171  0.2940  0.3371
  651TIP3    H123368   0.720   0.472  16.968  0.9958 -0.5449 -1.0227
  651TIP3    H223369   0.837   0.442  17.059 -0.1007  0.6355  0.8419
  652TIP3   OH223370   5.566   0.741  17.023 -0.1915  0.0124 -0.6780
  652TIP3    H123371   5.474   0.752  16.999 -0.4577 -0.8127 -0.0965
  652TIP3    H223372   5.586   0.651  16.998  0.2189 -0.0779 -0.0353
  653TIP3   OH223373   6.172   4.830   4.836  0.0798  0.1092 -0.1583
  653TIP3    H123374   6.239   4.817   4.769  0.5274  1.7283 -0.0770
  653TIP3    H223375   6.124   4.908   4.807 -1.2279 -0.5233  0.2306
  654TIP3   OH223376   0.410   5.408   3.902 -0.1766  0.2672  0.5994
  654TIP3    H123377   0.361   5.466   3.959  0.3311 -0.4732  1.8465
  654TIP3    H223378   0.497   5.447   3.896 -0.3489  0.5692 -0.0407
  655TIP3   OH223379   5.481   2.645   0.008 -0.1407 -0.2832  0.0878
  655TIP3    H123380   5.424   2.582  -0.037 -2.1735  1.1457  0.4803
  655TIP3    H223381   5.449   2.645   0.099  1.5653 -0.5586  0.7215
  656TIP3   OH223382   3.371   3.185   4.879  0.0196  0.3403 -0.5570
  656TIP3    H123383   3.409   3.269   4.904  1.2486  0.3160 -2.1437
  656TIP3    H223384   3.378   3.130   4.957  2.2725  0.7047 -0.4323
  657TIP3   OH223385   0.666   2.596  16.841 -0.1111  0.2949  0.0610
  657TIP3    H123386   0.615   2.650  16.780 -0.4535  0.0227  0.1038
  657TIP3    H223387   0.680   2.514  16.794 -0.1161  0.1970  0.2301
  658TIP3   OH223388   0.010   3.747  13.966  0.3238  0.1275 -0.2367
  658TIP3    H123389   0.001   3.788  14.052 -1.2035  0.3175 -0.4540
  658TIP3    H223390   0.101   3.762  13.941  0.9077 -0.3174  1.5206
  659TIP3   OH223391   6.178   2.175   2.297  0.0365 -0.6408 -0.1157
  659TIP3    H123392   6.267   2.191   2.267  0.0393  1.8777  1.0215
  659TIP3    H223393   6.133   2.141   2.219  1.0134  1.8618 -1.9259
  660TIP3   OH223394   6.359   1.197   0.530 -0.7337 -0.1405  0.1540
  660TIP3    H123395   6.361   1.144   0.451  0.2412  1.2993 -0.8491
  660TIP3    H223396   6.366   1.134   0.602 -0.3496 -1.4005 -0.9510
  661TIP3   OH223397   3.004   5.900   5.736  0.0052  0.0450  0.5776
  661TIP3    H123398   3.086   5.911   5.785  1.4451 -0.0498 -1.6779
  661TIP3    H223399   3.008   5.967   5.668 -0.9395 -1.1048 -0.6637
  662TIP3   OH223400   2.248   2.725  16.091 -0.1286 -0.1360 -0.1771
  662TIP3    H123401   2.306   2.780  16.143 -0.8843  0.0300  0.4839
  662TIP3    H223402   2.284   2.731  16.002  1.8207 -1.2741  0.4653
  663TIP3   OH223403   2.517   1.240   2.983  0.0570  0.2270  0.0512
  663TIP3    H123404   2.496   1.159   3.029 -0.5556 -1.2037 -2.5396
  663TIP3    H223405   2.434   1.287   2.978 -0.4807 -0.7896 -1.6024
  664TIP3   OH223406   4.218   1.936   3.169  0.0021  0.5111 -0.2740
  664TIP3    H123407   4.127   1.964   3.182  0.1927  1.3632 -0.7119
  664TIP3    H223408   4.215   1.884   3.088 -0.0344  0.8198 -0.4707
  665TIP3   OH223409   4.626   6.613  12.780  0.1825  0.1660 -0.2933
  665TIP3    H123410   4.543   6.659  12.767  0.1196  0.1182 -0.0621
  665TIP3    H223411   4.643   6.619  12.874  0.7921  0.7677 -0.4364
  666TIP3   OH223412   6.407   6.562  16.976  0.4425  0.2901  0.1678
  666TIP3    H123413   6.501   6.572  16.961  0.2980  0.7663 -0.4325
  666TIP3    H223414   6.368   6.562  16.889 -0.2868  1.9073  0.4556
  667TIP3   OH223415   5.653   4.468   3.257  0.1091 -0.7887 -0.5048
  667TIP3    H123416   5.694   4.554   3.266 -0.0533 -0.8441  1.2054
  667TIP3    H223417   5.701   4.425   3.187  0.5851  0.4745 -0.9794
  668TIP3   OH223418   6.324   3.879  11.331  0.5499  0.2700 -0.1058
  668TIP3    H123419   6.310   3.785  11.327  0.3848  0.3113 -0.6756
  668TIP3    H223420   6.419   3.889  11.344  0.7566  0.0217 -1.2408
  669TIP3   OH223421   5.978   2.815   0.593  0.7122 -0.0886  0.1618
  669TIP3    H123422   6.033   2.745   0.557  1.0611  0.1656  0.1992
  669TIP3    H223423   6.024   2.842   0.673  0.4990  0.0810  0.2266
  670TIP3   OH223424   4.940   4.075  12.304  0.3157  0.5907  0.4536
  670TIP3    H123425   4.907   4.107  12.220  1.1311  3.2368  1.0245
  670TIP3    H223426   4.875   4.103  12.368  0.4524 -0.0319  0.8738
  671TIP3   OH223427   1.503   4.592  15.936 -0.5438  0.7060  0.1782
  671TIP3    H123428   1.530   4.520  15.993 -2.9918 -0.7440 -0.3745
  671TIP3    H223429   1.549   4.668  15.971  1.1734 -0.8581  1.5484
  672TIP3   OH223430   6.256   2.898   3.517  0.3346  0.5795  0.0800
  672TIP3    H123431   6.286   2.857   3.436  0.1369  0.8222 -0.1171
  672TIP3    H223432   6.237   2.824   3.575  1.4498  0.4238  0.2644
  673TIP3   OH223433   3.273   0.622   5.337  0.1148 -0.4175 -0.1895
  673TIP3    H123434   3.180   0.638   5.354 -0.0296 -2.0058  0.7291
  673TIP3    H223435   3.319   0.685   5.392 -0.4203 -0.6869  0.5759
  674TIP3   OH223436   5.520   6.251   0.983  0.0488 -0.0002 -0.0671
  674TIP3    H123437   5.425   6.259   0.994 -0.0470  2.9206 -2.0506
  674TIP3    H223438   5.532   6.211   0.897  0.5244  2.3276 -1.1466
  675TIP3   OH223439   3.586   6.598  13.714  0.5032 -0.0813  0.3843
  675TIP3    H123440   3.622   6.682  13.743  1.3619 -0.9172  1.8286
  675TIP3    H223441   3.611   6.593  13.622 -1.2994  2.1217 -0.3184
  676TIP3   OH223442   1.115   4.953  11.473  0.1705 -0.9280  0.5662
  676TIP3    H123443   1.179   4.936  11.404 -0.2205  1.1644 -0.3900
  676TIP3    H223444   1.166   4.947  11.554  2.5928  3.8316 -0.2480
  677TIP3   OH223445   5.615   3.599   5.513 -0.0497 -0.6836 -0.4169
  677TIP3    H123446   5.526   3.613   5.480 -0.0487  0.3630 -0.0033
  677TIP3    H223447   5.635   3.678   5.564  0.0914 -2.0113  1.7294
  678TIP3   OH223448   5.626   6.237   2.513 -0.1236  0.2431  0.5260
  678TIP3    H123449   5.702   6.210   2.565 -1.1026 -2.1899  0.8203
  678TIP3    H223450   5.575   6.292   2.572  1.7385  2.6185  0.0584
  679TIP3   OH223451   3.661   6.105   5.499 -0.5280 -0.2110 -0.2696
  679TIP3    H123452   3.662   6.182   5.555 -0.3669 -0.4886  0.1095
  679TIP3    H223453   3.585   6.118   5.441 -2.1520 -1.0215  1.5596
  680TIP3   OH223454   0.453   2.379  12.961  0.1444  0.3059 -0.0810
  680TIP3    H123455   0.422   2.423  12.882  0.6519 -1.0591 -1.0777
  680TIP3    H223456   0.395   2.410  13.030 -0.6605  1.1170 -1.0877
  681TIP3   OH223457   0.826   0.769   2.692 -0.4378 -0.1035 -0.3206
  681TIP3    H123458   0.761   0.702   2.672 -1.0797  0.2190  0.5968
  681TIP3    H223459   0.774   0.843   2.726  0.3301  0.5209 -0.4791
  682TIP3   OH223460   5.963   3.834   4.002 -0.2491 -0.3220 -0.1941
  682TIP3    H123461   5.898   3.790   3.948  0.2702 -1.4785  0.0950
  682TIP3    H223462   5.924   3.919   4.022 -0.6035 -0.0058 -2.0733
  683TIP3   OH223463   3.606   1.223   0.822  0.1494 -0.1137 -0.1403
  683TIP3    H123464   3.602   1.197   0.914  1.0733  0.1376 -0.0200
  683TIP3    H223465   3.622   1.317   0.825 -1.4509  0.1954 -0.5687
  684TIP3   OH223466   1.534   2.994  13.790  0.2915  0.2523 -0.1556
  684TIP3    H123467   1.443   3.005  13.817  0.1570  0.6894 -0.7714
  684TIP3    H223468   1.549   3.063  13.726  1.3343  0.7452  0.6069
  685TIP3   OH223469   0.995   4.344  12.901  0.0293  0.9389 -0.2282
  685TIP3    H123470   0.970   4.341  12.993  1.2870 -0.5579  0.0985
  685TIP3    H223471   1.068   4.406  12.898  0.5403  0.3482 -0.0685
  686TIP3   OH223472   6.582   5.462  14.576  0.0810  0.0330 -0.5651
  686TIP3    H123473   6.627   5.521  14.636  0.0176 -0.6069  0.1290
  686TIP3    H223474   6.592   5.375  14.616 -1.0315 -0.2337 -0.8263
  687TIP3   OH223475   6.000   0.685  15.599  0.5124 -0.0263 -0.0435
  687TIP3    H123476   6.018   0.679  15.693 -0.6783  1.3740  0.3160
  687TIP3    H223477   6.019   0.776  15.577 -0.5267  0.0114 -0.8494
  688TIP3   OH223478   6.405   1.208   0.249  0.2639  0.0740  0.3463
  688TIP3    H123479   6.456   1.282   0.283 -0.0045  0.8883 -0.9486
  688TIP3    H223480   6.470   1.152   0.206  0.3522  0.0338  0.5342
  689TIP3   OH223481   1.848   1.552   5.322 -0.8019  0.4351 -0.4531
  689TIP3    H123482   1.806   1.554   5.408  0.0181 -0.6797  0.0012
  689TIP3    H223483   1.880   1.641   5.308 -0.4443  0.4893  0.6486
  690TIP3   OH223484   3.422   2.487   3.007  0.0517  0.1061  0.1253
  690TIP3    H123485   3.392   2.488   3.098 -1.2065  0.7156 -0.2757
  690TIP3    H223486   3.342   2.491   2.955  0.7017 -1.1503 -1.0401
  691TIP3   OH223487   6.095   3.221  13.724  0.2265 -0.4939  0.2066
  691TIP3    H123488   6.065   3.218  13.815  0.8148  0.3158  0.4407
  691TIP3    H223489   6.062   3.305  13.691  2.5269  0.6491  0.6089
  692TIP3   OH223490   0.530   4.702   1.348  0.0388  0.6818  0.8539
  692TIP3    H123491   0.569   4.787   1.330  2.2935 -0.3392  0.5170
  692TIP3    H223492   0.509   4.704   1.441  0.9085  1.3258  1.0507
  693TIP3   OH223493   4.054   6.601   1.557  0.0810 -0.2105  0.3415
  693TIP3    H123494   4.127   6.568   1.609  0.8742 -0.0035 -0.5993
  693TIP3    H223495   4.095   6.635   1.478 -1.1731 -1.7246 -1.0449
  694TIP3   OH223496   4.349   1.694   2.637 -0.0200 -0.1704 -0.2559
  694TIP3    H123497   4.365   1.670   2.546  0.3665  0.0814 -0.2587
  694TIP3    H223498   4.271   1.645   2.662 -0.4268  0.1473 -0.8763
  695TIP3   OH223499   2.458   3.490   1.605 -0.0720  0.6338 -0.3677
  695TIP3    H123500   2.410   3.417   1.645  1.4869 -0.2498 -0.0421
  695TIP3    H223501   2.443   3.480   1.511  1.4723 -1.1381 -0.4670
  696TIP3   OH223502   1.462   6.281  11.951 -0.3267  0.2286 -0.3179
  696TIP3    H123503   1.513   6.256  11.875 -1.1750 -0.7773 -0.5813
  696TIP3    H223504   1.458   6.377  11.947  0.5050  0.2486 -0.9478
  697TIP3   OH223505   5.186   2.952   5.618  0.7733  0.4904  0.2127
  697TIP3    H123506   5.147   2.870   5.651 -2.2011  1.2839 -0.9980
  697TIP3    H223507   5.140   3.021   5.665  2.3144  1.5458  0.2579
  698TIP3   OH223508   2.049   4.619   0.992 -0.1177 -0.7322  0.0456
  698TIP3    H123509   2.061   4.526   1.011 -0.9216 -0.5590  1.6170
  698TIP3    H223510   2.110   4.663   1.052 -0.5260 -0.2236  0.0917
  699TIP3   OH223511   6.417   1.849   5.405  0.0292 -0.3211  0.4317
  699TIP3    H123512   6.463   1.803   5.475  0.1152 -0.3932  0.3286
  699TIP3    H223513   6.427   1.792   5.329 -2.0379 -1.4164  0.8924
  700TIP3   OH223514   5.641   4.119  13.953 -0.1887  0.4863  1.0816
  700TIP3    H123515   5.646   4.062  14.030  0.4519 -0.4498  0.3829
  700TIP3    H223516   5.705   4.081  13.892 -0.4328  1.4125  0.2261
  701TIP3   OH223517   2.934   0.098  14.354  0.1435 -0.0476 -0.3161
  701TIP3    H123518   2.875   0.034  14.394  0.4594  0.0527  0.3265
  701TIP3    H223519   3.020   0.077  14.390 -0.0290  1.9170  1.4181
  702TIP3   OH223520   2.329   6.286  15.955  0.1089  0.4354 -0.0779
  702TIP3    H123521   2.331   6.323  15.867  2.0553  1.6839  0.4106
  702TIP3    H223522   2.418   6.298  15.988 -0.2320 -1.1517  1.6133
  703TIP3   OH223523   5.265   0.948  15.731 -0.2435  0.1570 -0.0322
  703TIP3    H123524   5.312   0.886  15.787 -1.2495 -1.6560 -1.1110
  703TIP3    H223525   5.201   0.988  15.790  0.7427  0.5718  0.7903
  704TIP3   OH223526   5.516   1.668  14.859  0.2778  0.3559 -0.0595
  704TIP3    H123527   5.523   1.575  14.836  0.2493  0.4254 -0.3509
  704TIP3    H223528   5.425   1.691  14.842  0.8286  1.0677 -2.4310
  705TIP3   OH223529   6.630   0.006   4.307  0.3360 -0.5871 -0.2052
  705TIP3    H123530   6.585  -0.069   4.268 -2.8698  0.4550  1.1228
  705TIP3    H223531   6.627   0.073   4.239 -1.6630 -0.0426  0.3452
  706TIP3   OH223532   2.307   1.341  13.083 -0.2708  0.4802 -0.5542
  706TIP3    H123533   2.313   1.410  13.149 -1.0050 -1.1643  1.3424
  706TIP3    H223534   2.216   1.345  13.054 -0.4931 -0.0704  0.0386
  707TIP3   OH223535   4.898   4.503  16.317  0.7236 -0.2222 -0.3208
  707TIP3    H123536   4.949   4.546  16.248 -0.0786 -0.7113 -1.2404
  707TIP3    H223537   4.882   4.415  16.284  0.9624 -0.7209  0.8364
  708TIP3   OH223538   2.492   4.680  13.715  0.1445  0.1091  0.2523
  708TIP3    H123539   2.540   4.760  13.737  1.1887 -0.2713 -0.5567
  708TIP3    H223540   2.549   4.609  13.744 -0.4652 -0.3415  0.3480
  709TIP3   OH223541   4.705   1.041   3.986  0.0154 -0.0493  0.3117
  709TIP3    H123542   4.733   0.956   3.953  0.6238 -0.0182  0.7229
  709TIP3    H223543   4.723   1.102   3.914 -0.1723 -0.2275  0.1136
  710TIP3   OH223544   0.848   2.670   4.604 -0.4970  0.0736  0.4231
  710TIP3    H123545   0.850   2.683   4.509  3.6258  2.5066  0.6107
  710TIP3    H223546   0.782   2.732   4.635  1.4515  2.9294 -0.6622
  711TIP3   OH223547   2.557   4.959   3.238 -0.0932 -0.2825  0.3538
  711TIP3    H123548   2.524   5.041   3.274 -1.7761 -0.9156  0.3283
  711TIP3    H223549   2.539   4.963   3.145  0.8620 -0.2236  0.1572
  712TIP3   OH223550   4.793   1.728  10.795  0.4978 -0.0796  0.1138
  712TIP3    H123551   4.841   1.645  10.804  3.4331  1.4663 -0.2552
  712TIP3    H223552   4.831   1.769  10.718 -0.8927  1.6626  0.2996
  713TIP3   OH223553   5.211   1.451  12.830 -0.4858 -0.2839 -0.5967
  713TIP3    H123554   5.169   1.515  12.772  1.1585  0.1592 -1.3850
  713TIP3    H223555   5.149   1.439  12.902 -0.4237  3.0691  0.1691
  714TIP3   OH223556   6.459   6.375  15.647  0.8062 -0.0720  0.0663
  714TIP3    H123557   6.413   6.352  15.566  1.1108  0.0543 -0.1454
  714TIP3    H223558   6.477   6.469  15.638 -1.7933  0.6730  1.5979
  715TIP3   OH223559   6.001   0.710   0.705 -0.6714  0.2820  0.0842
  715TIP3    H123560   5.915   0.707   0.746 -0.6590 -1.4808  0.0675
  715TIP3    H223561   6.019   0.803   0.692 -2.5141  0.6781  0.1745
  716TIP3   OH223562   3.733   4.976  11.538  0.0894  0.2150 -0.1456
  716TIP3    H123563   3.728   4.922  11.617 -1.3708  1.7537  0.8811
  716TIP3    H223564   3.770   4.918  11.472 -0.4161 -1.7114  1.1709
  717TIP3   OH223565   4.149   4.489  12.154 -0.2802  0.4280  0.6198
  717TIP3    H123566   4.192   4.572  12.177  0.0834  0.9242 -1.6824
  717TIP3    H223567   4.066   4.516  12.113 -0.1138 -0.3379 -0.2391
  718TIP3   OH223568   3.125   2.600   5.956 -0.0980 -0.2076  0.6376
  718TIP3    H123569   3.126   2.536   6.027  2.8374  0.2921  1.1820
  718TIP3    H223570   3.052   2.573   5.901  1.0787 -4.2252  0.7099
  719TIP3   OH223571   5.555   5.993  17.263  0.2459 -0.1878  0.1482
  719TIP3    H123572   5.629   5.996  17.323 -0.2107 -0.7765  0.7390
  719TIP3    H223573   5.503   6.071  17.285  0.8218  0.3908 -0.4634
  720TIP3   OH223574   4.259   4.510   4.781 -0.3042 -0.4606  0.6001
  720TIP3    H123575   4.197   4.580   4.799  0.1477  0.3347 -0.7787
  720TIP3    H223576   4.242   4.445   4.848 -1.9911  0.1478  0.8009
  721TIP3   OH223577   5.173   5.044   6.025  0.1741  0.0167  0.4400
  721TIP3    H123578   5.156   5.088   5.941 -2.4709 -0.7294  0.4899
  721TIP3    H223579   5.258   5.078   6.053 -0.2679  2.6456 -1.0615
  722TIP3   OH223580   2.573   6.086  13.521 -0.0232 -0.5312 -0.4870
  722TIP3    H123581   2.628   6.160  13.548  1.2274  0.2645 -4.5445
  722TIP3    H223582   2.615   6.009  13.560  0.2143  0.5590  1.5890
  723TIP3   OH223583   6.086   6.679   4.436 -0.4581  1.0533  0.6397
  723TIP3    H123584   6.013   6.704   4.380 -0.3921 -0.5809 -0.2382
  723TIP3    H223585   6.044   6.647   4.516 -0.6542  1.1303  0.5693
  724TIP3   OH223586   6.340   3.289   6.045 -0.6228 -0.7561  0.1477
  724TIP3    H123587   6.353   3.200   6.011 -0.3732  0.0619 -2.0493
  724TIP3    H223588   6.428   3.322   6.060 -0.7236 -0.9964  1.4218
  725TIP3   OH223589   1.186   0.679  15.228  0.4369  0.0170 -0.5452
  725TIP3    H123590   1.264   0.626  15.212  1.7973  0.9956  2.2139
  725TIP3    H223591   1.219   0.759  15.270 -1.6750  2.4109 -3.0204
  726TIP3   OH223592   2.104   1.226   5.052 -0.3686 -0.7543  0.2701
  726TIP3    H123593   2.131   1.162   5.119 -1.6771 -0.9140  0.6702
  726TIP3    H223594   2.009   1.229   5.060 -0.8722 -2.5800 -3.2276
  727TIP3   OH223595   2.964   6.206   4.448  0.1338  0.4544  0.3167
  727TIP3    H123596   3.008   6.183   4.530 -1.7529 -0.6855  1.0602
  727TIP3    H223597   3.026   6.179   4.380  0.4847 -1.4654  1.3162
  728TIP3   OH223598   5.015   6.397  12.676 -0.1678  0.2536  0.5358
  728TIP3    H123599   5.074   6.353  12.615  0.4073  0.0961  1.1931
  728TIP3    H223600   5.053   6.485  12.686 -0.1885  0.2363  0.7653
  729TIP3   OH223601   3.214   3.348  15.962  0.4615  0.5125 -0.2853
  729TIP3    H123602   3.244   3.366  16.052  0.8175  1.1332 -0.5245
  729TIP3    H223603   3.125   3.316  15.973  1.7665 -3.4291  0.6574
  730TIP3   OH223604   6.551   3.167   3.190  0.2051  0.2278 -1.1433
  730TIP3    H123605   6.521   3.251   3.226  0.0936 -0.4777  0.4706
  730TIP3    H223606   6.646   3.178   3.179  0.8498 -0.5676  2.5253
  731TIP3   OH223607   4.850   2.337  15.833  0.1516 -0.3364 -0.6241
  731TIP3    H123608   4.776   2.314  15.890 -0.8000 -0.3781 -1.8299
  731TIP3    H223609   4.927   2.325  15.888 -0.6012 -2.0735  0.1434
  732TIP3   OH223610   0.940   4.873  12.400 -0.0459  0.1833 -0.1687
  732TIP3    H123611   0.969   4.793  12.444 -2.0835 -0.0673  0.8516
  732TIP3    H223612   0.957   4.942  12.464  0.1588  0.3231 -0.3740
  733TIP3   OH223613   1.025   3.156  11.477 -0.3528  0.0868 -0.5982
  733TIP3    H123614   0.931   3.146  11.487 -0.3584 -0.0345 -0.7720
  733TIP3    H223615   1.048   3.101  11.402 -0.1376  0.0800 -0.5296
  734TIP3   OH223616   2.579   5.693  11.431 -0.3794  0.1509 -0.0977
  734TIP3    H123617   2.665   5.730  11.451 -0.7579  0.2501  1.4270
  734TIP3    H223618   2.594   5.640  11.352  0.8159  1.1096 -0.5439
  735TIP3   OH223619   3.205   5.767  13.766  0.4884 -0.7539  0.0079
  735TIP3    H123620   3.195   5.747  13.673 -0.7773 -1.3000  0.2427
  735TIP3    H223621   3.118   5.754  13.804  0.6466  0.8077  1.0304
  736TIP3   OH223622   4.844   4.549  11.936 -0.0563 -0.1697 -0.2374
  736TIP3    H123623   4.856   4.601  11.856  0.0436 -3.1510 -2.3191
  736TIP3    H223624   4.908   4.584  11.997 -0.0857  2.1820 -1.4305
  737TIP3   OH223625   4.411   1.720   0.772 -0.4806 -0.2162 -0.0116
  737TIP3    H123626   4.491   1.738   0.819  0.7478 -0.5055 -1.8754
  737TIP3    H223627   4.371   1.805   0.758 -1.0037 -0.1481  1.6975
  738TIP3   OH223628   2.895   3.825  12.778 -0.2608 -0.0843  0.5478
  738TIP3    H123629   2.945   3.783  12.708  0.0611  1.4783 -0.2192
  738TIP3    H223630   2.814   3.853  12.736 -0.0564  0.8907  0.7691
  739TIP3   OH223631   3.065   2.421   3.864 -0.4323  0.2323  0.0424
  739TIP3    H123632   3.147   2.422   3.912  0.4239  0.7242 -1.3627
  739TIP3    H223633   3.006   2.369   3.918  0.8466 -0.2881  0.9905
  740TIP3   OH223634   1.679   2.545   6.907  0.2295 -0.3480 -0.5472
  740TIP3    H123635   1.733   2.618   6.937  1.1258 -1.2543  0.0917
  740TIP3    H223636   1.593   2.584   6.888  1.2098  1.2035 -2.0455
  741TIP3   OH223637   5.658   5.891   0.525 -0.2525 -0.2381 -0.3607
  741TIP3    H123638   5.670   5.856   0.437 -0.6104 -1.3102  0.0032
  741TIP3    H223639   5.563   5.885   0.540 -0.2719  0.5182 -0.1270
  742TIP3   OH223640   6.655   1.052  16.004  0.4468 -0.4083  0.4299
  742TIP3    H123641   6.729   1.110  15.986  2.9981 -2.8200  2.2049
  742TIP3    H223642   6.629   1.075  16.094  0.3549 -0.8540  0.5191
  743TIP3   OH223643   4.778   2.748  15.344 -0.1626  0.0407  0.4042
  743TIP3    H123644   4.728   2.815  15.390  1.5768  0.5613  1.6411
  743TIP3    H223645   4.754   2.759  15.252 -0.2476  2.0795  0.6304
  744TIP3   OH223646   2.152   3.330   2.970  0.4550 -0.1869  0.6783
  744TIP3    H123647   2.169   3.399   2.906  1.3092 -0.2745  0.8006
  744TIP3    H223648   2.164   3.249   2.922 -0.3354 -0.2642  0.5913
  745TIP3   OH223649   2.726   6.308  13.641  0.5540  0.2583  0.3710
  745TIP3    H123650   2.739   6.365  13.717  1.6370 -0.1514  0.5184
  745TIP3    H223651   2.812   6.306  13.598  0.4837 -1.0824  0.2484
  746TIP3   OH223652   6.307   0.706  12.669  0.5553  0.5529  0.3729
  746TIP3    H123653   6.362   0.777  12.634  1.0556 -1.1639 -2.6635
  746TIP3    H223654   6.221   0.747  12.681  1.7588  2.6732  2.9289
  747TIP3   OH223655   2.356   2.860  11.334 -0.1763 -0.1852 -0.5508
  747TIP3    H123656   2.415   2.933  11.317 -0.3085 -0.3309 -1.7435
  747TIP3    H223657   2.362   2.806  11.255 -0.6211 -1.0857  0.0189
  748TIP3   OH223658   6.397   3.884   2.137  0.0501  0.1021  0.2770
  748TIP3    H123659   6.454   3.912   2.207 -0.3764  0.5392  0.4554
  748TIP3    H223660   6.380   3.963   2.086 -0.7815  0.0857  0.5099
  749TIP3   OH223661   5.400   3.792  13.579 -0.5726  0.2347 -0.3287
  749TIP3    H123662   5.365   3.804  13.667 -0.1340  0.3384 -0.1705
  749TIP3    H223663   5.461   3.864  13.566  2.2783 -1.8318  0.7252
  750TIP3   OH223664   0.120   6.703   5.098  0.0863  0.1170 -0.3717
  750TIP3    H123665   0.185   6.638   5.071 -1.0685 -0.6127 -1.5094
  750TIP3    H223666   0.171   6.782   5.115  1.2921 -0.4919 -1.0203
  751TIP3   OH223667   3.391   0.626  13.790 -0.5927 -0.1002  0.0651
  751TIP3    H123668   3.314   0.585  13.751 -0.0085 -2.4906  1.2451
  751TIP3    H223669   3.388   0.600  13.882 -0.4718  3.0977  1.1086
  752TIP3   OH223670   3.399   0.281  13.750  0.0601 -0.3515  0.3499
  752TIP3    H123671   3.325   0.335  13.779 -1.3123 -0.9382 -1.7848
  752TIP3    H223672   3.364   0.192  13.749  0.6905 -0.6075 -0.9816
  753TIP3   OH223673   3.138   3.324  15.017 -0.0104 -0.0621  0.0755
  753TIP3    H123674   3.139   3.410  15.058 -0.8588 -0.5089  1.1125
  753TIP3    H223675   3.217   3.281  15.049  0.6906  0.4981 -0.8635
  754TIP3   OH223676   0.906   1.231  13.897  0.0911  0.1985 -0.2278
  754TIP3    H123677   0.990   1.239  13.851 -0.3654 -2.4486 -1.7330
  754TIP3    H223678   0.849   1.295  13.853  0.5211 -0.1274 -1.2928
  755TIP3   OH223679   3.870   2.373   0.739  0.4256 -0.3033 -0.2473
  755TIP3    H123680   3.829   2.459   0.735  0.4037 -0.2907  0.1836
  755TIP3    H223681   3.912   2.362   0.654 -0.6801 -0.4234 -0.7900
  756TIP3   OH223682   4.448   5.266  12.778 -0.5851 -0.6422  0.0652
  756TIP3    H123683   4.487   5.180  12.765 -0.6143 -0.4973 -1.0958
  756TIP3    H223684   4.461   5.311  12.695 -1.1985  0.2276  0.4214
  757TIP3   OH223685   0.880   4.093   1.110  0.0859  0.3396 -0.0503
  757TIP3    H123686   0.890   4.007   1.150  0.9952  0.3197 -0.2975
  757TIP3    H223687   0.824   4.079   1.034 -1.4794  0.3350  1.0345
  758TIP3   OH223688   4.996   6.182  14.602 -0.1576 -0.3117 -0.0661
  758TIP3    H123689   4.936   6.143  14.538  1.7233 -0.0106 -2.1445
  758TIP3    H223690   5.078   6.195  14.553  0.2555  3.4858  1.2938
  759TIP3   OH223691   0.327   5.541  12.347 -0.1825  0.3867 -0.1622
  759TIP3    H123692   0.308   5.562  12.438 -0.0980  0.2589 -0.1145
  759TIP3    H223693   0.278   5.606  12.297 -1.5125 -0.5044 -0.0713
  760TIP3   OH223694   3.989   1.726  11.716  0.1478 -0.2324  0.4049
  760TIP3    H123695   4.085   1.721  11.722  0.0876 -1.3124  0.8360
  760TIP3    H223696   3.972   1.753  11.626  0.8562 -1.2919 -0.0729
  761TIP3   OH223697   2.185   4.439   5.089  0.1514  0.0184  0.3581
  761TIP3    H123698   2.109   4.382   5.091  0.8394 -0.9719 -0.4952
  761TIP3    H223699   2.151   4.526   5.113 -1.6709  0.0690 -2.0191
  762TIP3   OH223700   4.645   3.230   0.262 -0.6120 -0.0196 -0.4573
  762TIP3    H123701   4.661   3.268   0.348  1.2949 -0.7239 -0.4537
  762TIP3    H223702   4.562   3.184   0.271 -0.8281  0.5848  0.7583
  763TIP3   OH223703   5.215   3.458   1.479  0.5631 -0.1366  0.3194
  763TIP3    H123704   5.163   3.538   1.485 -1.3198 -1.3716  1.6753
  763TIP3    H223705   5.158   3.395   1.435  1.2425 -1.2985  1.0290
  764TIP3   OH223706   4.038   1.208   5.434 -0.6422 -0.7208 -0.4344
  764TIP3    H123707   4.023   1.270   5.506 -0.1521 -1.5396  0.3911
  764TIP3    H223708   4.133   1.195   5.434 -0.4210  0.4501 -2.2482
  765TIP3   OH223709   2.750   1.156  15.337 -0.3165  0.0475 -0.2591
  765TIP3    H123710   2.745   1.139  15.243  0.7006  0.5100 -0.4130
  765TIP3    H223711   2.819   1.098  15.368 -2.0702 -1.6694  0.6108
  766TIP3   OH223712   4.350   4.254  15.283 -0.3099  0.5977  0.4687
  766TIP3    H123713   4.439   4.249  15.318 -1.3322  1.7702  3.5164
  766TIP3    H223714   4.308   4.174  15.315 -0.6913  0.6369  0.0703
  767TIP3   OH223715   2.901   2.492  15.186 -0.6296  0.0691 -0.1216
  767TIP3    H123716   2.881   2.449  15.103  1.3202 -0.0936 -0.5650
  767TIP3    H223717   2.864   2.434  15.253 -2.2065  0.1969 -0.8413
  768TIP3   OH223718   5.398   5.170   6.322  0.1218  0.2392 -0.4996
  768TIP3    H123719   5.343   5.244   6.350  1.1038  0.6377  0.4715
  768TIP3    H223720   5.377   5.159   6.229 -0.0978  1.7045 -0.6572
  769TIP3   OH223721   6.444   5.578   5.327 -0.3262  0.1886 -0.2448
  769TIP3    H123722   6.391   5.499   5.338 -0.9583  0.4271 -1.5292
  769TIP3    H223723   6.524   5.559   5.377 -0.9747 -0.7653  0.4743
  770TIP3   OH223724   4.759   1.248   0.354  0.5780 -0.4382 -0.7401
  770TIP3    H123725   4.852   1.254   0.373  0.2379 -1.0407  1.3391
  770TIP3    H223726   4.726   1.182   0.415 -1.3884  0.4906 -0.7230
  771TIP3   OH223727   3.453   2.250  14.091  0.2320  0.5179  0.4329
  771TIP3    H123728   3.438   2.230  14.183 -2.6792  0.5881  0.0741
  771TIP3    H223729   3.376   2.214  14.046  1.3346  0.8999 -1.9231
  772TIP3   OH223730   0.286   5.638  16.600  0.6960  0.4779 -0.2460
  772TIP3    H123731   0.258   5.610  16.513 -3.8561  2.6604  0.2252
  772TIP3    H223732   0.343   5.713  16.584  0.3349  0.5334 -1.3689
  773TIP3   OH223733   2.665   2.767   0.496  0.3024  0.4340  0.2172
  773TIP3    H123734   2.670   2.862   0.502  0.7694  0.6012 -1.9550
  773TIP3    H223735   2.757   2.739   0.499  0.5075  0.4314 -2.8861
  774TIP3   OH223736   0.740   3.139  11.474  0.2393 -0.0082  0.4365
  774TIP3    H123737   0.708   3.209  11.532 -1.8013  1.2940 -2.0463
  774TIP3    H223738   0.699   3.059  11.507 -0.3447  0.5772  1.1622
  775TIP3   OH223739   2.068   2.916   1.650  0.0587  0.4455  0.9537
  775TIP3    H123740   2.003   2.985   1.635  1.7393  1.5178 -2.0048
  775TIP3    H223741   2.142   2.961   1.691  0.0381 -0.2555  1.8081
  776TIP3   OH223742   0.340   0.307  16.262  0.7652  0.2084  0.2560
  776TIP3    H123743   0.255   0.308  16.306  0.5659  0.0279 -0.1177
  776TIP3    H223744   0.356   0.215  16.242  0.7174  0.3135 -0.2986
  777TIP3   OH223745   4.510   6.244   4.241 -0.3634 -0.2205 -0.0626
  777TIP3    H123746   4.468   6.312   4.189  0.8126  1.1727  0.7132
  777TIP3    H223747   4.602   6.249   4.215 -0.2634 -1.5301  0.0090
  778TIP3   OH223748   6.541   0.866   0.430 -0.2923 -0.2326  0.0696
  778TIP3    H123749   6.468   0.862   0.492 -0.1918 -0.7765  0.1528
  778TIP3    H223750   6.603   0.928   0.469  0.0605 -1.0469  0.8316
  779TIP3   OH223751   3.921   6.076  17.193  0.4661  0.3078  0.2013
  779TIP3    H123752   3.920   5.996  17.246 -0.3049  0.8225  0.9956
  779TIP3    H223753   3.992   6.128  17.231  0.1324  0.5346  0.5210
  780TIP3   OH223754   5.913   6.766   2.974 -0.3291 -0.3464  0.3963
  780TIP3    H123755   5.982   6.818   3.014 -0.1062 -0.0829 -0.3130
  780TIP3    H223756   5.960   6.702   2.920 -0.6358 -0.1832 -0.0685
  781TIP3   OH223757   3.200   4.673   6.204  0.0345 -0.4895  0.2377
  781TIP3    H123758   3.154   4.658   6.121  0.1790  1.8616 -0.3574
  781TIP3    H223759   3.159   4.612   6.265 -1.6840 -0.7139 -1.0397
  782TIP3   OH223760   1.095   5.243  13.761 -0.0264  0.2535  0.2455
  782TIP3    H123761   1.135   5.173  13.710  0.4085  1.8259 -1.7051
  782TIP3    H223762   1.156   5.259  13.832  0.9900  0.1156 -0.5692
  783TIP3   OH223763   2.763   4.730   3.929 -0.5159  0.3271  0.1671
  783TIP3    H123764   2.806   4.673   3.865 -0.1708 -0.0840  0.7636
  783TIP3    H223765   2.790   4.818   3.904  0.7382  0.0731  0.5807
  784TIP3   OH223766   3.360   2.918  11.596 -0.1731 -0.0712  0.0161
  784TIP3    H123767   3.338   2.898  11.687 -0.8287  1.1210  0.1442
  784TIP3    H223768   3.323   3.006  11.582  1.5145  0.5471 -0.8337
  785TIP3   OH223769   1.499   5.024  11.545  0.0746  0.0909  0.4233
  785TIP3    H123770   1.570   5.057  11.599  1.3971  0.9159 -1.6773
  785TIP3    H223771   1.542   4.996  11.464 -2.0514  1.4213 -1.2738
  786TIP3   OH223772   4.634   2.511   3.974 -0.5626  0.1213 -0.1661
  786TIP3    H123773   4.624   2.431   3.923 -0.6580 -0.0691  0.1473
  786TIP3    H223774   4.566   2.505   4.041  1.6816 -1.3314  2.1602
  787TIP3   OH223775   4.623   4.778  15.638  0.1394  0.3438  0.5564
  787TIP3    H123776   4.627   4.871  15.615  1.3419  0.7599  2.2843
  787TIP3    H223777   4.534   4.765  15.671 -0.1283  0.8064  0.0250
  788TIP3   OH223778   6.691   0.943  12.594 -0.3401 -0.1543  0.2333
  788TIP3    H123779   6.766   0.999  12.576  2.1371 -3.4546 -0.8188
  788TIP3    H223780   6.717   0.893  12.671 -1.4794 -1.3027 -0.0887
  789TIP3   OH223781   3.481   6.751  15.328 -0.1881  0.5854 -0.2208
  789TIP3    H123782   3.390   6.760  15.354 -0.4335 -1.2403 -0.2848
  789TIP3    H223783   3.514   6.679  15.383  2.2352  3.3794  2.3418
  790TIP3   OH223784   1.093   3.288  13.464 -0.0889  0.3092  0.3763
  790TIP3    H123785   1.019   3.227  13.473  0.5956 -0.5570  0.3209
  790TIP3    H223786   1.081   3.327  13.378 -2.0155  2.3102  1.4553
  791TIP3   OH223787   2.454   4.911   0.224 -0.2208 -0.4794 -0.2309
  791TIP3    H123788   2.442   4.817   0.232  1.1427 -0.6792 -0.3175
  791TIP3    H223789   2.532   4.930   0.276 -0.1543  0.5211 -0.6668
  792TIP3   OH223790   1.725   3.405   0.616  0.0514 -0.2409 -0.1825
  792TIP3    H123791   1.779   3.446   0.549 -1.3765  0.9207 -0.6736
  792TIP3    H223792   1.674   3.339   0.570  0.3232 -0.6485  0.0928
  793TIP3   OH223793   5.651   3.036   1.406 -0.3558 -0.6391 -0.0967
  793TIP3    H123794   5.578   3.079   1.362 -0.8388  0.3701  1.6014
  793TIP3    H223795   5.609   2.972   1.464  0.2117 -1.3103 -0.4133
  794TIP3   OH223796   1.858   6.473  17.239  0.3753  0.1898 -0.1130
  794TIP3    H123797   1.861   6.488  17.144  1.0533  0.2603 -0.0820
  794TIP3    H223798   1.773   6.430  17.253 -0.2248  1.1684 -0.6030
  795TIP3   OH223799   6.390   1.021   2.144  0.2945  0.6989  0.6800
  795TIP3    H123800   6.376   0.981   2.058  0.0989 -0.2641  1.1477
  795TIP3    H223801   6.426   1.108   2.124  3.0507 -0.5456 -0.3531
  796TIP3   OH223802   2.892   6.235  14.030 -0.1798  0.1012 -0.2303
  796TIP3    H123803   2.964   6.181  14.062 -0.0600 -0.6158 -1.6044
  796TIP3    H223804   2.897   6.316  14.080  1.4945  0.0060 -0.2074
  797TIP3   OH223805   0.672   3.640  15.804  0.5200 -0.1641  0.5483
  797TIP3    H123806   0.621   3.655  15.725 -1.1014 -0.0854  1.5560
  797TIP3    H223807   0.683   3.727  15.843  0.0918 -0.3519  1.1072
  798TIP3   OH223808   4.426   4.778   2.365  0.2844 -0.2098  0.0878
  798TIP3    H123809   4.408   4.790   2.272 -1.1897  0.1580  0.4079
  798TIP3    H223810   4.416   4.683   2.380  0.0968 -0.2074 -0.0340
  799TIP3   OH223811   6.588   3.185   4.952 -0.1960 -0.2426  0.3704
  799TIP3    H123812   6.649   3.246   4.910 -1.0602  0.8114  0.5984
  799TIP3    H223813   6.530   3.157   4.881  0.3444 -1.0054  0.2177
  800TIP3   OH223814   2.819   1.253   2.654  0.1296  0.0052  0.3178
  800TIP3    H123815   2.880   1.290   2.718 -0.2295  1.8566 -0.3301
  800TIP3    H223816   2.875   1.228   2.580  0.3727 -0.6607  0.7251
  801TIP3   OH223817   0.671   6.344  17.221  0.1957  0.1276 -0.1669
  801TIP3    H123818   0.704   6.428  17.253  0.1501  1.1098 -2.4857
  801TIP3    H223819   0.619   6.367  17.144  0.4405 -2.0507 -1.0490
  802TIP3   OH223820   5.782   3.323   2.045 -0.2650 -0.7706 -0.1762
  802TIP3    H123821   5.819   3.246   2.001 -0.2099 -0.7364 -0.1903
  802TIP3    H223822   5.816   3.397   1.995 -0.7521 -0.7542 -0.4928
  803TIP3   OH223823   6.031   6.587  16.843 -0.7908 -0.7214 -0.1901
  803TIP3    H123824   6.078   6.563  16.763 -0.2086 -2.1206  0.5329
  803TIP3    H223825   6.012   6.504  16.886 -2.5012 -0.0895  0.3682
  804TIP3   OH223826   4.911   4.876  15.465 -0.2482  0.4178  0.0407
  804TIP3    H123827   4.835   4.925  15.496 -0.0639  0.1685  0.8943
  804TIP3    H223828   4.942   4.827  15.541 -0.5767 -1.2412 -0.8391
  805TIP3   OH223829   5.056   5.523  10.544  0.4277  0.3340 -0.5643
  805TIP3    H123830   5.149   5.501  10.532  0.7782  1.4333  0.0233
  805TIP3    H223831   5.049   5.550  10.635 -1.2586 -3.3487  0.6126
  806TIP3   OH223832   4.395   2.163  15.166 -0.3661  0.0333  0.1551
  806TIP3    H123833   4.433   2.229  15.224 -0.2891  0.9107 -0.8629
  806TIP3    H223834   4.470   2.124  15.122 -0.4538 -0.3565  0.3423
  807TIP3   OH223835   2.103   5.743  13.991 -0.0087  0.4565  0.1824
  807TIP3    H123836   2.185   5.718  14.034  0.4047  2.2885  0.5524
  807TIP3    H223837   2.118   5.724  13.899 -0.0682 -1.4120  0.5183
  808TIP3   OH223838   1.608   5.935   4.110 -0.0965 -0.4471  0.0711
  808TIP3    H123839   1.569   5.898   4.031  1.5342  0.8960 -1.4432
  808TIP3    H223840   1.702   5.939   4.091  0.8579 -2.9149  3.2898
  809TIP3   OH223841   1.978   3.680  15.349  0.0827  0.3034  0.2026
  809TIP3    H123842   2.018   3.595  15.329 -0.4144  0.2057 -0.4323
  809TIP3    H223843   2.015   3.740  15.283 -0.6200  0.2620 -0.2443
  810TIP3   OH223844   4.636   6.635   2.208  0.4622  0.5755 -0.0748
  810TIP3    H123845   4.656   6.548   2.245 -3.1321 -1.6122 -2.6500
  810TIP3    H223846   4.712   6.655   2.153  1.9187 -0.2968  1.5211
  811TIP3   OH223847   2.847   5.374   3.369  0.2776 -0.2090  0.1180
  811TIP3    H123848   2.927   5.407   3.411 -0.6864  2.5212  0.0233
  811TIP3    H223849   2.801   5.453   3.342 -2.0919 -1.7401 -0.5517
  812TIP3   OH223850   4.407   6.636   1.133  0.4062 -0.7338 -0.2514
  812TIP3    H123851   4.359   6.575   1.078 -0.5051 -0.5193  0.2778
  812TIP3    H223852   4.389   6.722   1.095 -1.0327 -0.4828  0.9094
  813TIP3   OH223853   1.998   3.204   3.601 -0.2439 -0.2625  0.3507
  813TIP3    H123854   2.004   3.118   3.643  1.1776 -1.3997 -1.9705
  813TIP3    H223855   1.904   3.222   3.597 -0.5091 -0.9257  2.2698
  814TIP3   OH223856   5.565   1.180  15.864 -0.1269 -0.6003  0.0073
  814TIP3    H123857   5.601   1.102  15.821  0.2624 -0.8737  0.7919
  814TIP3    H223858   5.639   1.215  15.914  0.0119  0.9449 -1.2435
  815TIP3   OH223859   2.591   2.318   2.370  0.0096  0.6244 -0.0494
  815TIP3    H123860   2.614   2.408   2.393 -0.4791  1.1235 -1.3864
  815TIP3    H223861   2.596   2.316   2.275  1.7816 -1.2792  0.0158
  816TIP3   OH223862   3.279   4.131   2.973  0.1901 -0.0725  0.0554
  816TIP3    H123863   3.191   4.110   3.005 -0.3855 -1.7905 -2.3483
  816TIP3    H223864   3.264   4.173   2.889  1.6761  0.7571  0.1876
  817TIP3   OH223865   2.827   2.892  13.139  0.4862  0.2441  0.4652
  817TIP3    H123866   2.901   2.918  13.193  0.2366  0.0349  0.9146
  817TIP3    H223867   2.787   2.975  13.112  0.5088  0.3517  0.7518
  818TIP3   OH223868   1.495   6.580  15.647 -0.5348 -0.4001  0.3258
  818TIP3    H123869   1.527   6.611  15.731 -0.5711 -0.3574  0.3241
  818TIP3    H223870   1.404   6.556  15.663 -1.0246  1.0911 -0.0593
  819TIP3   OH223871   1.551   1.917   0.336 -0.8579 -0.4242 -0.0718
  819TIP3    H123872   1.478   1.925   0.275 -0.0869  0.5592 -0.9051
  819TIP3    H223873   1.624   1.885   0.283  0.3065  2.0957 -0.1438
  820TIP3   OH223874   3.824   6.328  11.692 -0.4852  0.3067  0.1500
  820TIP3    H123875   3.803   6.351  11.782  0.9204  1.2379  0.2758
  820TIP3    H223876   3.834   6.233  11.692  1.2196  0.4470  1.3871
  821TIP3   OH223877   1.098   0.295   0.935  0.0940 -0.3915  0.4744
  821TIP3    H123878   1.069   0.350   0.863  1.5654  0.6385  0.6326
  821TIP3    H223879   1.123   0.213   0.894  2.9082  0.8709 -0.5678
  822TIP3   OH223880   0.751   4.980  10.974 -0.6129 -0.3279  0.4665
  822TIP3    H123881   0.689   5.049  10.949  0.4626  0.1586 -1.0260
  822TIP3    H223882   0.697   4.901  10.982 -1.4711  0.1182 -0.5837
  823TIP3   OH223883   1.081   3.402  10.904 -0.3020  0.7667  0.9420
  823TIP3    H123884   1.103   3.317  10.944 -1.0210 -1.6907 -3.2704
  823TIP3    H223885   1.165   3.442  10.884  0.0451  1.2568  3.1362
  824TIP3   OH223886   2.074   0.071  12.247 -0.3996 -0.0413 -0.1909
  824TIP3    H123887   1.997   0.015  12.232 -1.5337  1.9078 -2.1961
  824TIP3    H223888   2.094   0.108  12.161  2.7574 -0.3545  0.2917
  825TIP3   OH223889   6.145   4.771   5.121  0.7176  0.5619  0.3622
  825TIP3    H123890   6.158   4.776   5.027 -0.7914 -0.2055  0.0841
  825TIP3    H223891   6.228   4.739   5.156  0.6339 -1.1528 -0.9281
  826TIP3   OH223892   0.656   3.131   1.972  0.1371  0.1760  0.4564
  826TIP3    H123893   0.690   3.042   1.965 -0.6034 -0.0478 -0.5942
  826TIP3    H223894   0.676   3.158   2.061  1.7740 -0.4582  0.3031
  827TIP3   OH223895   5.368   1.712  16.078  0.2969  0.2610  0.1456
  827TIP3    H123896   5.356   1.658  16.000  0.0202  0.6068 -0.0522
  827TIP3    H223897   5.347   1.801  16.050 -0.2460  0.3211  0.7274
  828TIP3   OH223898   0.520   4.963  12.318  0.2706  0.2411  0.3312
  828TIP3    H123899   0.441   4.948  12.266  0.9503 -0.3943 -0.5534
  828TIP3    H223900   0.488   4.986  12.405 -0.8794 -1.8190  0.5080
  829TIP3   OH223901   2.688   6.369  16.236  0.1778  0.5932 -0.8867
  829TIP3    H123902   2.632   6.294  16.256  2.9197 -1.4113 -0.2619
  829TIP3    H223903   2.752   6.371  16.308  0.0761  3.7228 -0.7440
  830TIP3   OH223904   0.682   2.865   4.684  0.4027  0.3471  0.4778
  830TIP3    H123905   0.694   2.960   4.694  1.2256  0.0605  3.0795
  830TIP3    H223906   0.591   2.856   4.654  0.4593  1.9479 -0.3080
  831TIP3   OH223907   2.703   5.012   1.556 -0.2905  0.2690  0.4078
  831TIP3    H123908   2.674   4.981   1.470  1.1236  0.4290 -0.1576
  831TIP3    H223909   2.682   4.940   1.615 -0.2821 -0.3005 -0.2619
  832TIP3   OH223910   0.086   2.193   1.783  0.1737 -0.0289 -0.5004
  832TIP3    H123911   0.120   2.211   1.870  2.6743 -2.0648 -0.9593
  832TIP3    H223912   0.051   2.104   1.788  1.5376 -0.6928 -1.8362
  833TIP3   OH223913   2.781   3.956  14.682  0.1097  0.1639 -0.2366
  833TIP3    H123914   2.739   4.042  14.670  0.4398  0.9097  2.9730
  833TIP3    H223915   2.868   3.977  14.715  0.5231 -1.4286 -0.2686
  834TIP3   OH223916   1.853   5.254  16.524 -0.5186 -0.5599 -0.8020
  834TIP3    H123917   1.802   5.303  16.588 -2.4574 -0.9300 -2.0036
  834TIP3    H223918   1.943   5.287  16.535 -1.2194  1.0420  0.4873
  835TIP3   OH223919   5.016   6.145   3.783  0.3855 -0.3728 -0.1050
  835TIP3    H123920   5.067   6.164   3.704 -0.0007 -0.2063 -0.3209
  835TIP3    H223921   5.081   6.134   3.852  0.6851  0.7321 -0.1847
  836TIP3   OH223922   2.192   5.966   3.320  0.1624 -0.2452 -0.6862
  836TIP3    H123923   2.128   5.963   3.250 -0.3331  0.3395 -0.2720
  836TIP3    H223924   2.140   5.968   3.401  0.6756  1.0101 -0.3697
  837TIP3   OH223925   3.498   4.003  14.992  0.1327 -0.0867  0.0138
  837TIP3    H123926   3.538   4.028  14.909 -1.0554  0.3072 -0.4619
  837TIP3    H223927   3.425   3.946  14.967 -1.1954  1.2775  0.6690
  838TIP3   OH223928   0.056   1.189  12.955 -0.2988 -0.5241 -0.1658
  838TIP3    H123929   0.066   1.094  12.946  2.4920 -0.3757  0.5346
  838TIP3    H223930   0.038   1.202  13.048  0.1316 -0.3370 -0.1047
  839TIP3   OH223931   0.387   3.668   3.997 -0.2436 -0.2409 -0.4576
  839TIP3    H123932   0.367   3.599   4.060 -0.8167 -0.4332 -0.8407
  839TIP3    H223933   0.435   3.623   3.927  4.0330  0.6079  1.5872
  840TIP3   OH223934   4.825   6.390  15.228  0.3735 -0.6847  0.2602
  840TIP3    H123935   4.829   6.469  15.281 -1.9014 -0.5945  0.4006
  840TIP3    H223936   4.817   6.422  15.138  0.5985 -0.7745  0.2082
  841TIP3   OH223937   2.369   2.356  14.282  0.3903 -0.2497  0.1600
  841TIP3    H123938   2.281   2.369  14.316  0.9460 -0.7612  1.9058
  841TIP3    H223939   2.420   2.429  14.319  0.9055 -0.5350  0.0264
  842TIP3   OH223940   6.439   4.935  13.829  0.0872 -0.1626  0.3120
  842TIP3    H123941   6.349   4.933  13.860 -0.2118 -0.3500 -0.5318
  842TIP3    H223942   6.433   4.908  13.737  0.9746  0.0457  0.1853
  843TIP3   OH223943   3.312   5.690  15.056  0.7969  0.1105  0.3736
  843TIP3    H123944   3.386   5.630  15.069  2.3518  2.0658  0.9739
  843TIP3    H223945   3.259   5.647  14.989  1.1004 -2.5567  1.6986
  844TIP3   OH223946   6.444   5.703   5.689 -0.2694  0.5661  0.7499
  844TIP3    H123947   6.520   5.724   5.635 -0.3841 -0.2152  0.2657
  844TIP3    H223948   6.393   5.784   5.693 -0.2059  0.6645 -0.2266
  845TIP3   OH223949   6.735   5.230  13.179 -0.2223  0.0963  0.1305
  845TIP3    H123950   6.686   5.156  13.214 -0.1702  0.8074  1.7818
  845TIP3    H223951   6.778   5.269  13.255  1.8547  0.2891 -1.0609
  846TIP3   OH223952   0.054   2.646   5.168  0.0141 -0.1281  0.7335
  846TIP3    H123953   0.071   2.740   5.172  0.7732 -0.2256  0.1803
  846TIP3    H223954  -0.017   2.631   5.230 -0.1378  0.8140  0.7977
  847TIP3   OH223955   0.018   0.994  11.788  0.8561 -0.0100  0.6356
  847TIP3    H123956  -0.075   0.994  11.809  0.3799 -0.4493 -1.3134
  847TIP3    H223957   0.022   1.015  11.695  2.7476  0.5530  0.8006
  848TIP3   OH223958   5.504   4.830   2.499  0.0779 -0.3207  0.3114
  848TIP3    H123959   5.439   4.832   2.570  0.8377  0.1198  1.0136
  848TIP3    H223960   5.504   4.740   2.469 -2.5904  0.1179 -1.3459
  849TIP3   OH223961   2.417   3.886   0.410 -0.2248 -0.0093  0.0006
  849TIP3    H123962   2.457   3.944   0.345  1.4694 -1.6145 -0.4875
  849TIP3    H223963   2.326   3.878   0.382 -0.0038  0.8696 -1.0365
  850TIP3   OH223964   3.720   6.478   6.771 -0.7584  0.4337 -0.4042
  850TIP3    H123965   3.634   6.437   6.757 -0.4504 -0.6805  0.7417
  850TIP3    H223966   3.761   6.479   6.685 -1.1436 -0.9054 -0.6250
  851TIP3   OH223967   3.813   2.203   4.970 -0.3167 -0.0251  0.0827
  851TIP3    H123968   3.794   2.286   5.015 -2.3434 -0.6562  0.4533
  851TIP3    H223969   3.776   2.214   4.883  2.1860  0.5753 -1.0034
  852TIP3   OH223970   3.715   0.388  13.152  0.0690 -0.7567  0.5074
  852TIP3    H123971   3.778   0.420  13.088 -1.1004  2.0750  0.6283
  852TIP3    H223972   3.663   0.323  13.105  1.3153 -1.1692 -0.3611
  853TIP3   OH223973   1.157   4.081  14.229  0.0587 -0.0260  0.5958
  853TIP3    H123974   1.221   4.025  14.184 -1.2408 -0.9674 -0.1594
  853TIP3    H223975   1.196   4.096  14.315  1.1320 -0.8632  0.2914
  854TIP3   OH223976   4.087   1.417  12.730 -0.3184  0.2947 -0.5031
  854TIP3    H123977   4.094   1.359  12.807  2.3506  0.1672 -0.7494
  854TIP3    H223978   4.014   1.381  12.680 -1.4734 -0.2410  1.4526
  855TIP3   OH223979   5.228   1.130   0.664  0.1288  0.8472  0.2888
  855TIP3    H123980   5.232   1.122   0.759 -0.2362  0.8719  0.3109
  855TIP3    H223981   5.167   1.203   0.650 -0.3198  0.4253  0.0262
  856TIP3   OH223982   4.969   4.427  17.308  0.1393  0.5700 -0.0722
  856TIP3    H123983   4.994   4.431  17.216 -2.2581 -0.0585 -0.8457
  856TIP3    H223984   5.046   4.394  17.353  1.7318  1.9063 -1.6623
  857TIP3   OH223985   1.534   4.783   1.650 -0.2380  0.5705 -0.1158
  857TIP3    H123986   1.613   4.836   1.662  0.1566  0.0882 -0.5555
  857TIP3    H223987   1.531   4.764   1.557  0.0947 -0.8869  0.1407
  858TIP3   OH223988   0.843   0.994   3.527  0.0969  0.0033 -0.1287
  858TIP3    H123989   0.768   1.022   3.473  0.1012 -0.7163 -0.5251
  858TIP3    H223990   0.918   0.999   3.468 -0.1774 -2.6249 -0.8359
  859TIP3   OH223991   4.792   4.268  15.005 -0.0865 -0.0099  0.7851
  859TIP3    H123992   4.790   4.187  15.057  1.5305 -1.9075 -1.8396
  859TIP3    H223993   4.869   4.315  15.038 -0.2737 -0.1589  1.4650
  860TIP3   OH223994   6.085   5.158   5.435 -0.6770 -0.1145 -0.0349
  860TIP3    H123995   6.164   5.120   5.474 -1.2921  0.0089  1.4231
  860TIP3    H223996   6.049   5.088   5.380 -0.2555 -0.6477  0.3531
  861TIP3   OH223997   4.342   4.531  15.352  0.3926  0.2949 -0.0894
  861TIP3    H123998   4.322   4.443  15.321  1.7766  0.1196 -0.5447
  861TIP3    H223999   4.430   4.524  15.388  1.2653  1.8575 -1.7598
  862TIP3   OH224000   2.762   0.292  13.297 -0.4578  0.1105  0.1752
  862TIP3    H124001   2.789   0.210  13.339  0.6623  0.5429  0.3455
  862TIP3    H224002   2.669   0.300  13.316 -0.3342 -0.5636  1.1106
  863TIP3   OH224003   4.797   0.294   0.669 -0.0503 -0.1320 -0.2967
  863TIP3    H124004   4.825   0.203   0.673  0.9811  0.0749 -1.7729
  863TIP3    H224005   4.778   0.318   0.760  0.2359 -1.6307  0.1838
  864TIP3   OH224006   2.341   4.649  13.511  0.4482  0.3023 -0.2422
  864TIP3    H124007   2.398   4.664  13.437  2.3370 -0.0886  1.0651
  864TIP3    H224008   2.399   4.650  13.587 -1.4421  0.9193  1.2700
  865TIP3   OH224009   4.685   4.829   4.458  0.3810 -0.0939  0.2898
  865TIP3    H124010   4.596   4.819   4.490  0.2034  0.9343  0.1322
  865TIP3    H224011   4.737   4.851   4.536  0.0145  2.0195 -0.0050
  866TIP3   OH224012   4.853   6.333  10.615  0.3543  0.2672 -0.4428
  866TIP3    H124013   4.767   6.310  10.579  0.6908 -0.3397 -0.8543
  866TIP3    H224014   4.833   6.368  10.702 -0.3500  0.5803 -0.7241
  867TIP3   OH224015   5.625   6.260   1.575 -0.5406 -0.3958 -0.3040
  867TIP3    H124016   5.621   6.223   1.663  0.9065 -0.0175 -0.0498
  867TIP3    H224017   5.535   6.288   1.557 -0.7272  0.2093  1.3609
  868TIP3   OH224018   0.234   4.778   4.141 -0.1924  0.8299  0.1333
  868TIP3    H124019   0.232   4.807   4.049 -1.3460  0.4156  0.0115
  868TIP3    H224020   0.304   4.713   4.144 -1.5338 -0.7333 -0.9662
  869TIP3   OH224021   1.521   2.965   6.027  0.0034 -0.4068  0.5484
  869TIP3    H124022   1.440   2.915   6.036 -0.5038  0.2295 -0.3522
  869TIP3    H224023   1.590   2.902   6.049 -0.7119 -1.0158  1.1250
  870TIP3   OH224024   1.717   4.292  11.069 -0.0173  0.0940 -0.9939
  870TIP3    H124025   1.694   4.267  10.980 -0.6377  3.3229 -1.8630
  870TIP3    H224026   1.812   4.304  11.066  0.3217 -2.0850 -0.5068
  871TIP3   OH224027   0.545   3.914   3.879 -0.6308  0.0475  0.0017
  871TIP3    H124028   0.570   3.823   3.891 -0.3915  0.2354  1.1057
  871TIP3    H224029   0.467   3.925   3.934  0.0742  0.8005  0.8867
  872TIP3   OH224030   6.003   1.277  11.782 -0.1235  0.6670 -0.5944
  872TIP3    H124031   5.926   1.280  11.839 -0.6071 -0.1980 -1.1804
  872TIP3    H224032   6.065   1.338  11.822  0.2394 -1.1539  1.8906
  873TIP3   OH224033   0.275   5.513   0.363  0.5711  0.1180 -0.2190
  873TIP3    H124034   0.367   5.523   0.338  0.7384  1.1414  0.7228
  873TIP3    H224035   0.268   5.559   0.447 -0.8262  0.1616 -0.3358
  874TIP3   OH224036   5.996   6.524   2.870  0.1789 -0.4460 -0.2894
  874TIP3    H124037   5.984   6.434   2.839  1.4239 -0.1391 -1.8070
  874TIP3    H224038   6.030   6.571   2.794  1.9785  0.7298  1.1458
  875TIP3   OH224039   3.702   0.710  15.593  0.7517  0.3087  0.7022
  875TIP3    H124040   3.695   0.735  15.501  1.5016  0.5682  0.7108
  875TIP3    H224041   3.640   0.638  15.603  0.9975 -0.0329 -0.1210
  876TIP3   OH224042   1.756   4.416   0.596  0.0693  0.4927  0.1693
  876TIP3    H124043   1.782   4.335   0.642  1.1322 -0.8189 -2.5385
  876TIP3    H224044   1.839   4.462   0.581 -0.2564  0.8651 -0.4846
  877TIP3   OH224045   5.446   0.280   3.838  0.0243 -0.0693 -0.4347
  877TIP3    H124046   5.460   0.205   3.780  1.2303 -0.7057  0.6347
  877TIP3    H224047   5.351   0.294   3.837 -0.0233 -0.3284 -2.1944
  878TIP3   OH224048   4.830   4.392  10.698  0.5027 -0.1765  0.5317
  878TIP3    H124049   4.879   4.312  10.718  0.2158 -0.3343  0.6157
  878TIP3    H224050   4.742   4.374  10.731  0.7811  0.7082  1.8413
  879TIP3   OH224051   4.168   5.418   1.207  0.1307 -0.0283 -0.2147
  879TIP3    H124052   4.119   5.363   1.268 -2.0594  1.2353 -0.7318
  879TIP3    H224053   4.187   5.361   1.132 -2.8612  0.0311 -1.1288
  880TIP3   OH224054   6.209   2.107  13.709 -0.5729 -0.0790  0.4460
  880TIP3    H124055   6.269   2.177  13.684  1.0307 -0.5049  2.7857
  880TIP3    H224056   6.176   2.133  13.795 -1.6017 -1.2171  0.4309
  881TIP3   OH224057   5.568   4.036   2.102 -0.0727 -0.6388  0.4816
  881TIP3    H124058   5.633   4.031   2.032  0.5495 -1.3297  1.0933
  881TIP3    H224059   5.541   3.945   2.117  0.9246 -0.6934  2.1587
  882TIP3   OH224060   2.255   0.969   1.472  0.4775  0.5934  0.6913
  882TIP3    H124061   2.251   0.991   1.379 -0.8282  1.2979  0.8956
  882TIP3    H224062   2.212   0.884   1.478 -0.5855  1.1156  0.7927
  883TIP3   OH224063   5.263   5.885   2.450  0.2789  0.4130  0.0869
  883TIP3    H124064   5.251   5.956   2.512 -1.4345 -0.8364  1.2399
  883TIP3    H224065   5.300   5.814   2.501  1.6573  0.2875 -0.9901
  884TIP3   OH224066   1.465   4.040  12.859  0.2633  0.0387  0.0290
  884TIP3    H124067   1.523   3.967  12.880  0.8197  0.8656  1.5457
  884TIP3    H224068   1.524   4.109  12.829 -0.0659  0.4239  0.2581
  885TIP3   OH224069   6.771   2.499  16.501 -0.0150  0.4991 -0.0592
  885TIP3    H124070   6.761   2.405  16.514  1.0596  0.0089 -2.3348
  885TIP3    H224071   6.682   2.532  16.489 -0.2335 -0.9457 -3.2754
  886TIP3   OH224072   5.068   2.891   4.609  0.1912 -0.3758  0.7465
  886TIP3    H124073   4.992   2.837   4.585  0.5867 -0.8788  0.6169
  886TIP3    H224074   5.040   2.938   4.688 -0.5089 -0.0136  0.2908
  887TIP3   OH224075   0.224   4.618   0.830 -0.4079 -0.0802 -0.1193
  887TIP3    H124076   0.263   4.674   0.897 -0.5607  0.1947 -0.2584
  887TIP3    H224077   0.191   4.679   0.764 -0.1130 -0.3551 -0.5271
  888TIP3   OH224078   0.071   5.913   2.422  0.2056  0.1588 -0.0517
  888TIP3    H124079   0.134   5.984   2.435 -1.7231  1.7244  1.4812
  888TIP3    H224080   0.046   5.920   2.330 -1.1889  2.6973  0.4159
  889TIP3   OH224081   4.808   0.281   3.552 -0.0311  0.1930 -0.0380
  889TIP3    H124082   4.843   0.195   3.576 -1.6832 -0.0950  1.5300
  889TIP3    H224083   4.714   0.273   3.564 -0.3789  1.8011 -1.3548
  890TIP3   OH224084   3.643   2.874   2.034 -0.0501 -0.1035  0.8921
  890TIP3    H124085   3.697   2.904   1.961  0.7897 -0.1701  1.4752
  890TIP3    H224086   3.591   2.951   2.059 -1.3275 -0.4330 -0.6081
  891TIP3   OH224087   2.036   5.824   4.589  0.0885  0.0072 -0.0436
  891TIP3    H124088   2.111   5.878   4.564 -0.5503  1.4203  0.9839
  891TIP3    H224089   2.057   5.738   4.553  0.2821  1.2855 -3.4709
  892TIP3   OH224090   6.330   1.010  15.733 -0.2803  0.1855  0.3436
  892TIP3    H124091   6.419   1.034  15.710 -0.6617 -0.2506 -1.8613
  892TIP3    H224092   6.275   1.077  15.692 -0.9719  0.7039  2.0467
  893TIP3   OH224093   1.598   0.845   4.823  0.2401  0.1030 -0.0040
  893TIP3    H124094   1.648   0.902   4.881 -0.0030  0.9313 -0.5988
  893TIP3    H224095   1.602   0.759   4.865  0.3859  0.6083  1.0396
  894TIP3   OH224096   1.171   0.114  13.580  0.1399  0.0072 -0.0829
  894TIP3    H124097   1.136   0.091  13.666  0.7802  1.4534  0.5998
  894TIP3    H224098   1.097   0.153  13.534 -0.3339 -1.2176 -0.3914
  895TIP3   OH224099   2.380   2.764  11.070  0.2375 -0.1584 -0.1614
  895TIP3    H124100   2.302   2.711  11.083 -1.0063  1.7703  0.6844
  895TIP3    H224101   2.403   2.752  10.978 -0.5816 -1.3640 -0.2275
  896TIP3   OH224102   6.511   6.737   3.034  0.5674 -0.0846 -0.1735
  896TIP3    H124103   6.534   6.644   3.027  3.0914  0.3577  0.9012
  896TIP3    H224104   6.418   6.741   3.011  0.3036 -2.8952  0.0397
  897TIP3   OH224105   5.667   2.104   0.058 -0.3100 -0.3644 -0.0176
  897TIP3    H124106   5.760   2.126   0.062 -0.5127  0.6593 -0.7317
  897TIP3    H224107   5.622   2.187   0.043 -1.3085 -0.9102 -0.1881
  898TIP3   OH224108   4.324   1.507   3.978  0.7523  0.7840  0.0357
  898TIP3    H124109   4.233   1.530   3.996  0.7409 -0.0639  1.2435
  898TIP3    H224110   4.332   1.512   3.883 -0.9315 -0.3917 -0.2316
  899TIP3   OH224111   4.908   3.437  15.188  0.0428 -0.2981 -0.6397
  899TIP3    H124112   4.925   3.508  15.126 -0.2346  0.5230  0.1944
  899TIP3    H224113   4.838   3.471  15.244 -1.0240 -1.7581 -1.0503
  900TIP3   OH224114   3.473   1.275   4.052  0.8587 -0.2411  0.7194
  900TIP3    H124115   3.496   1.302   3.962 -0.6778 -0.6362  0.1930
  900TIP3    H224116   3.485   1.355   4.103 -0.6284  0.6893 -0.2892
  901TIP3   OH224117   0.836   5.242   0.875  0.5101 -0.0928  0.0254
  901TIP3    H124118   0.894   5.175   0.840  0.5533 -0.6774  1.1604
  901TIP3    H224119   0.868   5.257   0.964 -0.2416  0.5661  0.1968
  902TIP3   OH224120   2.920   2.951   5.999  0.5526  0.8638  0.5338
  902TIP3    H124121   2.903   2.857   6.007  0.5045  0.8883  0.7416
  902TIP3    H224122   2.989   2.967   6.063  0.1000  1.0882  0.9783
  903TIP3   OH224123   1.493   2.570  12.282 -0.3563 -0.2808 -0.3049
  903TIP3    H124124   1.477   2.560  12.376  1.7102  0.6226  0.1922
  903TIP3    H224125   1.420   2.624  12.252  0.0928  1.3231  1.2633
  904TIP3   OH224126   3.555   4.633  13.179  0.1089  0.0667 -0.0377
  904TIP3    H124127   3.577   4.654  13.270 -1.2704  0.5812  0.1957
  904TIP3    H224128   3.578   4.540  13.170 -0.9515 -0.3508  1.2358
  905TIP3   OH224129   1.621   3.470   3.624 -0.3073  0.4155 -0.6169
  905TIP3    H124130   1.680   3.544   3.631 -0.1818  0.3602 -1.0781
  905TIP3    H224131   1.552   3.488   3.688  1.0274 -0.3014  1.1281
  906TIP3   OH224132   5.186   0.547   0.268 -0.3841 -0.3030 -0.1234
  906TIP3    H124133   5.241   0.625   0.264 -0.3121 -0.3967 -1.8122
  906TIP3    H224134   5.223   0.495   0.339  1.2211  0.0051 -0.6920
  907TIP3   OH224135   5.992   6.010  10.712  0.4483 -0.4651 -0.2577
  907TIP3    H124136   5.968   5.929  10.756 -2.4231  0.4220  0.0152
  907TIP3    H224137   6.042   6.060  10.778 -0.7801 -0.6053  0.8225
  908TIP3   OH224138   5.574   1.072   0.565  0.5720 -0.0874 -0.4964
  908TIP3    H124139   5.482   1.064   0.537 -0.1671 -2.2033  2.1694
  908TIP3    H224140   5.609   0.983   0.559  2.0440  0.4401 -0.0869
  909TIP3   OH224141   3.693   6.528  10.407  0.1770 -0.1120  0.1828
  909TIP3    H124142   3.772   6.494  10.364  0.5280  1.4027 -0.4358
  909TIP3    H224143   3.715   6.619  10.427 -0.9015 -0.0902  1.3247
  910TIP3   OH224144   4.078   1.841  12.380  0.2680 -0.1058 -0.0055
  910TIP3    H124145   4.088   1.930  12.414 -2.7034  0.0297  0.7802
  910TIP3    H224146   4.080   1.786  12.459  1.8487 -0.7628 -0.4661
  911TIP3   OH224147   6.557   3.353   5.401  0.6563  0.1456 -0.0554
  911TIP3    H124148   6.590   3.442   5.413  0.5075  0.2447 -0.3786
  911TIP3    H224149   6.604   3.319   5.325 -0.2670  0.4313 -0.7743
  912TIP3   OH224150   6.692   1.974   5.018 -0.0745 -0.3204  0.5613
  912TIP3    H124151   6.686   1.997   5.111 -2.6320  1.8457  0.0078
  912TIP3    H224152   6.754   2.038   4.982 -1.6692  1.1517  0.2795
  913TIP3   OH224153   1.407   4.071  15.988 -0.1244 -0.1644  0.5053
  913TIP3    H124154   1.428   4.090  16.080 -1.6116  1.9652  0.4898
  913TIP3    H224155   1.351   4.144  15.961 -0.7277 -1.3761 -1.7556
  914TIP3   OH224156   0.016   3.215  11.140 -0.0692 -0.0932 -0.4644
  914TIP3    H124157   0.055   3.128  11.147 -2.2269 -1.1273 -0.2674
  914TIP3    H224158   0.031   3.242  11.050  1.4632 -0.2227 -0.2655
  915TIP3   OH224159   4.552   2.413   2.004  0.0007 -0.0035  0.1080
  915TIP3    H124160   4.633   2.376   1.971  0.4740  2.9944 -2.5081
  915TIP3    H224161   4.483   2.361   1.962  0.6201  0.2205 -1.2311
  916TIP3   OH224162   1.241   1.907   2.169  0.3212 -0.6814  0.1549
  916TIP3    H124163   1.276   1.826   2.205 -0.0592 -2.2443 -2.6906
  916TIP3    H224164   1.274   1.909   2.079 -2.2629  0.6717 -0.8630
  917TIP3   OH224165   4.430   3.208  16.247  0.1157 -0.2640  0.3658
  917TIP3    H124166   4.423   3.124  16.292 -0.5088  0.5727  1.9275
  917TIP3    H224167   4.344   3.248  16.258  0.4282  0.6211 -0.2894
  918TIP3   OH224168   3.863   6.496  16.959 -0.0226 -0.4174 -0.5494
  918TIP3    H124169   3.768   6.509  16.948 -0.0711  1.5313  1.5324
  918TIP3    H224170   3.902   6.575  16.922  0.7841 -0.9118 -0.7877
  919TIP3   OH224171   4.093   2.048   1.827 -0.0039  0.5073  0.0899
  919TIP3    H124172   4.159   2.015   1.888 -0.4732 -0.9944 -0.1679
  919TIP3    H224173   4.111   2.001   1.746 -2.3014 -1.1339  0.4462
  920TIP3   OH224174   3.629   0.677   2.779 -0.1974 -0.0544  0.3667
  920TIP3    H124175   3.623   0.704   2.688 -0.3613 -0.8376  0.1376
  920TIP3    H224176   3.710   0.626   2.784  1.4789  2.5064  1.3489
  921TIP3   OH224177   5.251   1.131   1.199  0.6683  0.2254  0.2302
  921TIP3    H124178   5.205   1.119   1.282 -0.1765 -0.2378 -0.2853
  921TIP3    H224179   5.270   1.225   1.196  1.8470  0.0517  1.5066
  922TIP3   OH224180   0.501   0.371   1.456 -0.0275 -0.2765 -0.4070
  922TIP3    H124181   0.474   0.307   1.390 -0.7976 -1.9422  1.4390
  922TIP3    H224182   0.444   0.354   1.531  1.8718  0.4426  1.2984
  923TIP3   OH224183   3.798   0.054   3.548  0.1711 -0.4499  0.2060
  923TIP3    H124184   3.796  -0.035   3.513  0.0299 -0.0168 -0.9619
  923TIP3    H224185   3.887   0.085   3.527  1.0311 -1.0539  2.6359
  924TIP3   OH224186   0.586   3.333  13.535  0.3351  0.1001  0.0311
  924TIP3    H124187   0.633   3.411  13.566  0.4675  0.8559 -1.9336
  924TIP3    H224188   0.552   3.358  13.449  1.1465 -2.3021 -1.0810
  925TIP3   OH224189   5.197   0.727  16.505 -0.2391  0.2788  0.7570
  925TIP3    H124190   5.232   0.655  16.558  2.1271  0.0736 -0.9474
  925TIP3    H224191   5.238   0.806  16.541  0.5956  0.2492 -0.0986
  926TIP3   OH224192   4.490   5.998  12.678  0.2297 -0.4491 -0.3139
  926TIP3    H124193   4.467   6.026  12.590 -1.5499 -2.8643 -0.7249
  926TIP3    H224194   4.585   5.983  12.674  0.2616 -0.0338 -1.6618
  927TIP3   OH224195   1.658   1.063   0.120  0.2409  0.7663 -0.2125
  927TIP3    H124196   1.582   1.084   0.067  0.0840  0.4370 -0.1198
  927TIP3    H224197   1.731   1.060   0.058  0.5604  3.0090 -0.0515
  928TIP3   OH224198   5.681   0.615  15.975  0.0040  0.4120 -0.7931
  928TIP3    H124199   5.625   0.610  15.897  0.2459 -0.8649 -0.9048
  928TIP3    H224200   5.622   0.597  16.048 -0.0571  0.7662 -0.7541
  929TIP3   OH224201   3.334   4.250  15.023 -0.4291 -0.0021 -0.4204
  929TIP3    H124202   3.390   4.175  15.004  0.2619  0.2618  0.5533
  929TIP3    H224203   3.324   4.294  14.938  1.3951  0.3309 -0.4997
  930TIP3   OH224204   2.847   4.956   6.558  0.2770 -0.1677  0.7142
  930TIP3    H124205   2.846   4.912   6.472 -0.0999  0.3206  0.4615
  930TIP3    H224206   2.802   5.039   6.542  0.4090  0.0236  1.3386
  931TIP3   OH224207   0.349   1.097  12.924  0.1814 -0.0082  0.3255
  931TIP3    H124208   0.284   1.153  12.966  0.8560  1.3679 -0.4068
  931TIP3    H224209   0.362   1.025  12.986 -0.0662  1.0948  1.7055
  932TIP3   OH224210   5.970   0.988   2.098 -0.3417  0.3931 -0.1877
  932TIP3    H124211   5.897   1.045   2.122 -0.4590  0.6349 -1.0781
  932TIP3    H224212   6.047   1.031   2.135 -0.4917  0.8695 -0.4195
  933TIP3   OH224213   1.288   4.175  13.503 -0.7898  0.6495 -0.2741
  933TIP3    H124214   1.259   4.231  13.574 -1.7262 -0.7989  0.5092
  933TIP3    H224215   1.222   4.106  13.496  0.7551 -0.8922 -0.5971
  934TIP3   OH224216   1.201   1.000   1.406  0.0083  0.4424 -0.4104
  934TIP3    H124217   1.261   0.997   1.481 -0.2441 -0.7478 -0.2405
  934TIP3    H224218   1.132   0.938   1.429 -0.3958  0.5339 -1.3679
  935TIP3   OH224219   6.430   3.716   0.999 -0.3787 -0.0292  0.0556
  935TIP3    H124220   6.403   3.625   1.007 -3.0600  0.6430 -0.3394
  935TIP3    H224221   6.400   3.743   0.912 -0.0228  1.3588  0.3333
  936TIP3   OH224222   6.720   5.799   2.665 -0.6207  0.1375 -0.0007
  936TIP3    H124223   6.642   5.853   2.680 -1.0249  0.1038 -1.7946
  936TIP3    H224224   6.764   5.840   2.591 -0.4912 -1.4855 -0.8708
  937TIP3   OH224225   0.496   5.060  16.132 -0.7883  0.1237 -0.1527
  937TIP3    H124226   0.466   4.996  16.197  0.0940 -0.3716 -0.2165
  937TIP3    H224227   0.488   5.015  16.048 -0.2745  0.1281 -0.2095
  938TIP3   OH224228   4.149   5.948  12.809 -0.4923 -0.4093  0.2518
  938TIP3    H124229   4.233   5.903  12.804  0.0199  0.4683  0.7981
  938TIP3    H224230   4.095   5.891  12.864  0.3254 -0.1087  1.3986
  939TIP3   OH224231   4.029   3.151  14.794 -0.2330  0.2580 -0.0553
  939TIP3    H124232   4.120   3.170  14.815  0.0197  1.9892 -2.2482
  939TIP3    H224233   3.982   3.160  14.876  1.4916 -0.2411  1.0324
  940TIP3   OH224234   5.527   4.960  15.401 -0.4550  0.0061  0.5599
  940TIP3    H124235   5.561   4.878  15.367  0.4219  1.3129 -1.9080
  940TIP3    H224236   5.445   4.935  15.445 -0.1335 -2.1738  0.0286
  941TIP3   OH224237   4.445   5.986  11.606 -0.0301 -0.5003 -0.1827
  941TIP3    H124238   4.450   5.937  11.687  0.3050 -0.2273 -0.0353
  941TIP3    H224239   4.453   6.078  11.632 -2.0126 -0.2413 -0.3074
  942TIP3   OH224240   3.207   3.280   6.208 -0.2648  0.4096 -0.8232
  942TIP3    H124241   3.179   3.295   6.117 -2.0605  0.2391 -0.3295
  942TIP3    H224242   3.143   3.327   6.261 -0.0304 -0.6143  0.4193
  943TIP3   OH224243   0.624   0.992  14.338  0.2999 -0.5469 -0.1152
  943TIP3    H124244   0.712   0.964  14.365  0.9492  1.7906  0.4003
  943TIP3    H224245   0.568   0.967  14.412  0.6041 -1.5831 -0.2205
  944TIP3   OH224246   3.890   5.028  14.540  0.0321 -0.8554  0.5203
  944TIP3    H124247   3.969   4.982  14.570 -0.5216 -0.9486  1.9460
  944TIP3    H224248   3.832   5.026  14.616 -0.4622  1.1896  0.2376
  945TIP3   OH224249   2.690   0.825   6.190 -0.1001 -0.6804 -0.2945
  945TIP3    H124250   2.668   0.733   6.176 -0.6974 -0.4126 -1.2026
  945TIP3    H224251   2.683   0.838   6.284 -0.3374 -1.4841 -0.2003
  946TIP3   OH224252   4.537   5.830   4.953  0.5967 -0.1869 -0.2811
  946TIP3    H124253   4.566   5.775   5.026 -0.1500 -0.0462  0.1312
  946TIP3    H224254   4.541   5.919   4.987  0.6639 -0.0840 -0.5556
  947TIP3   OH224255   2.334   5.193   1.988 -0.2623  0.2066 -0.1054
  947TIP3    H124256   2.330   5.099   1.969 -2.3410  0.0474  0.8715
  947TIP3    H224257   2.299   5.235   1.909 -1.5025  0.0115  0.3304
  948TIP3   OH224258   1.295   3.502   2.794  0.3496  0.7869 -0.2493
  948TIP3    H124259   1.309   3.582   2.743 -1.3836  0.0322 -2.0224
  948TIP3    H224260   1.353   3.437   2.753 -1.2153  0.1182 -1.5320
  949TIP3   OH224261   2.227   1.966  15.009  0.2263 -0.0548 -0.0228
  949TIP3    H124262   2.198   1.876  14.994  0.6734 -0.3364  0.7361
  949TIP3    H224263   2.151   2.020  14.989 -0.1615 -0.6299 -0.1090
  950TIP3   OH224264   2.759   5.164   2.110 -0.1333  0.0367  0.0896
  950TIP3    H124265   2.702   5.235   2.082 -0.5136 -0.0842  0.5370
  950TIP3    H224266   2.842   5.208   2.134  0.2683  0.1145 -1.3711
  951TIP3   OH224267   4.123   0.623  14.751  0.1603  0.4463  0.4753
  951TIP3    H124268   4.065   0.691  14.786 -0.5155  0.1157  0.0103
  951TIP3    H224269   4.199   0.625  14.809  0.3365  1.8677  0.2461
  952TIP3   OH224270   4.738   6.064  12.942  0.2932  0.0271  0.4133
  952TIP3    H124271   4.748   6.034  12.852  1.1081 -3.1446  1.4408
  952TIP3    H224272   4.801   6.136  12.950  0.8332 -0.2078 -1.3094
  953TIP3   OH224273   0.607   5.830   3.808 -0.0697  0.7298  0.6251
  953TIP3    H124274   0.695   5.866   3.820 -0.2257  1.2325  0.2791
  953TIP3    H224275   0.556   5.869   3.879  0.1334 -0.0848  1.2360
  954TIP3   OH224276   4.446   1.121  16.017 -0.2860  0.1169  0.1011
  954TIP3    H124277   4.417   1.184  15.952 -3.2697  0.1888  1.3650
  954TIP3    H224278   4.503   1.171  16.075  2.5567  0.0142 -2.3660
  955TIP3   OH224279   6.694   4.730  12.866  0.1449  0.3546  0.5198
  955TIP3    H124280   6.661   4.716  12.777 -1.6279 -3.4713  1.6021
  955TIP3    H224281   6.630   4.789  12.906  0.1906  0.9835 -0.2936
  956TIP3   OH224282   3.149   6.697   0.010 -0.6601 -0.4136  0.2775
  956TIP3    H124283   3.077   6.744  -0.033 -1.1787  0.3442  1.9074
  956TIP3    H224284   3.124   6.692   0.102  2.2022  1.5847  1.3192
  957TIP3   OH224285   6.096   1.681   5.233  0.6348 -0.2993  0.0684
  957TIP3    H124286   6.058   1.600   5.267  0.3063  0.6743  2.2145
  957TIP3    H224287   6.190   1.671   5.247  0.5416 -0.0953  0.9297
  958TIP3   OH224288   1.003   1.808   2.267 -0.3382  0.2123  1.0154
  958TIP3    H124289   1.074   1.844   2.214  0.1326  0.7836  2.0053
  958TIP3    H224290   1.025   1.832   2.357 -0.5602 -1.6564  1.6161
  959TIP3   OH224291   6.320   3.724  13.811 -0.0263 -0.4687 -0.0524
  959TIP3    H124292   6.299   3.811  13.844  1.3151 -0.3110  0.4544
  959TIP3    H224293   6.235   3.684  13.794 -0.7612 -0.0226  2.2062
  960TIP3   OH224294   2.647   1.923   5.262  0.3095 -0.2807 -0.4411
  960TIP3    H124295   2.565   1.941   5.307 -0.6325 -0.4499 -2.0196
  960TIP3    H224296   2.641   1.831   5.237  0.8993 -0.2504 -0.7070
  961TIP3   OH224297   2.760   2.903  10.637 -0.4665  0.4002 -0.6569
  961TIP3    H124298   2.730   2.855  10.713  1.0233  0.9513  0.3265
  961TIP3    H224299   2.856   2.895  10.639 -0.4074 -0.6320 -3.1936
  962TIP3   OH224300   1.183   4.212   2.290  0.2167 -0.3789  0.1279
  962TIP3    H124301   1.134   4.274   2.237  0.5523  0.5088  0.8384
  962TIP3    H224302   1.274   4.241   2.285  0.6093 -1.6302 -0.6507
  963TIP3   OH224303   6.255   6.760  13.727  0.1984 -0.0002 -0.1789
  963TIP3    H124304   6.229   6.755  13.635  1.6319  0.9204 -0.6643
  963TIP3    H224305   6.303   6.678  13.743 -0.4864 -0.3936 -0.0864
  964TIP3   OH224306   4.843   6.746  16.102  0.8855  0.4786  0.6287
  964TIP3    H124307   4.937   6.764  16.105  0.6029  2.1829  0.4611
  964TIP3    H224308   4.819   6.753  16.009  0.1361  2.9591  0.9411
  965TIP3   OH224309   1.037   4.128   5.477 -0.4282 -0.4194  0.0797
  965TIP3    H124310   1.120   4.159   5.513 -0.6392 -0.2988  0.4685
  965TIP3    H224311   1.034   4.035   5.501 -1.8231  0.2297  2.8640
  966TIP3   OH224312   4.904   3.198   5.456  0.0423 -0.0684 -0.4268
  966TIP3    H124313   4.851   3.119   5.452  0.4672 -0.3063 -1.5733
  966TIP3    H224314   4.980   3.174   5.510 -0.7453  0.1342  0.8145
  967TIP3   OH224315   5.529   0.988   3.544  0.3319  0.2329  0.4574
  967TIP3    H124316   5.562   1.015   3.629 -0.4435 -0.1861  0.9002
  967TIP3    H224317   5.440   1.022   3.540  1.1894  2.5692 -1.2960
  968TIP3   OH224318   2.070   2.820  13.514  0.5612 -0.2749 -0.1956
  968TIP3    H124319   2.022   2.888  13.560 -2.2735 -1.5039 -1.1405
  968TIP3    H224320   2.158   2.823  13.552 -0.2708  1.9363  1.8013
  969TIP3   OH224321   1.692   1.887   5.878 -0.3086  0.2776  0.5517
  969TIP3    H124322   1.701   1.792   5.884  1.1097  0.2773 -0.8519
  969TIP3    H224323   1.601   1.904   5.903 -0.7090 -1.4852  0.4429
  970TIP3   OH224324   1.416   4.142   2.823 -0.2768  0.3881 -0.0806
  970TIP3    H124325   1.447   4.209   2.884  1.0155  0.4214 -0.7376
  970TIP3    H224326   1.491   4.085   2.810 -0.4118  0.5825 -1.9148
  971TIP3   OH224327   4.177   0.316  16.113 -0.2296  0.0240 -0.0664
  971TIP3    H124328   4.211   0.364  16.038  0.0129  0.2566  0.1886
  971TIP3    H224329   4.084   0.340  16.117 -0.1004  0.4997  0.0831
  972TIP3   OH224330   4.991   1.621  17.215  0.3891 -0.5889 -0.4262
  972TIP3    H124331   5.042   1.542  17.238  0.1791 -0.3658  0.8690
  972TIP3    H224332   4.909   1.587  17.179 -0.0255 -0.9788  0.8609
  973TIP3   OH224333   3.429   4.750  16.356  0.0751 -0.5215 -0.2552
  973TIP3    H124334   3.457   4.690  16.425 -0.3063 -0.1743  0.2132
  973TIP3    H224335   3.383   4.695  16.293 -0.9215 -0.6209  0.5435
  974TIP3   OH224336   3.452   3.888   4.859 -0.4056 -0.1253  0.1473
  974TIP3    H124337   3.536   3.895   4.815 -0.4251  0.5952  0.2154
  974TIP3    H224338   3.466   3.820   4.926  0.0820 -0.0926  0.0814
  975TIP3   OH224339   1.057   4.024  13.084  0.2051 -0.1879 -0.1782
  975TIP3    H124340   1.092   4.088  13.145  2.7087 -2.1672  0.6487
  975TIP3    H224341   1.134   3.979  13.049 -1.3718 -2.6576 -0.7757
  976TIP3   OH224342   6.467   0.835  14.120 -0.2173 -0.3349 -0.0536
  976TIP3    H124343   6.531   0.821  14.050 -1.1500  0.0752 -1.0190
  976TIP3    H224344   6.397   0.887  14.079 -0.7879 -0.0822  1.1867
  977TIP3   OH224345   5.982   6.750  12.387 -0.3614  0.1281 -0.3584
  977TIP3    H124346   5.950   6.693  12.317  0.4768  0.1854 -0.8027
  977TIP3    H224347   5.914   6.746  12.454  0.0359 -2.0321 -0.0169
  978TIP3   OH224348   2.205   2.988   4.728  0.1490  0.0024 -0.0791
  978TIP3    H124349   2.157   2.919   4.774  0.6219 -0.5141 -0.3375
  978TIP3    H224350   2.142   3.059   4.718 -0.9902 -1.1429 -1.5903
  979TIP3   OH224351   4.475   3.492  11.145 -0.3198  0.4123  0.7534
  979TIP3    H124352   4.428   3.575  11.149  0.7999  1.0315  2.0474
  979TIP3    H224353   4.413   3.426  11.176 -1.4703  0.6196 -1.0288
  980TIP3   OH224354   3.967   4.762   0.702  0.2776 -0.0051 -0.9398
  980TIP3    H124355   3.906   4.786   0.633  1.0755 -1.2401 -2.1369
  980TIP3    H224356   3.946   4.670   0.721  2.2698 -0.7400 -2.0028
  981TIP3   OH224357   2.156   1.564  11.578  0.1830  0.5501 -0.2488
  981TIP3    H124358   2.171   1.522  11.663  0.3349  0.5513 -0.2739
  981TIP3    H224359   2.191   1.652  11.588  2.1618 -0.0877 -0.9508
  982TIP3   OH224360   0.592   3.165  15.132 -0.2901  0.4901  0.3038
  982TIP3    H124361   0.587   3.070  15.137 -2.0556  0.3135 -2.4563
  982TIP3    H224362   0.585   3.195  15.223 -2.7441 -1.9579  1.0474
  983TIP3   OH224363   2.289   6.649  13.250 -0.0198 -0.0622  0.3631
  983TIP3    H124364   2.373   6.691  13.272  0.5772 -0.4980 -0.9727
  983TIP3    H224365   2.307   6.601  13.169 -1.8868  0.8772 -0.6779
  984TIP3   OH224366   5.295   4.227  14.528 -0.3326  0.1521  0.3509
  984TIP3    H124367   5.268   4.279  14.452 -1.5171 -1.3487 -0.3277
  984TIP3    H224368   5.227   4.160  14.535 -0.1408  0.1302  2.6410
  985TIP3   OH224369   2.166   2.991  14.654 -0.1204  0.1357 -0.8376
  985TIP3    H124370   2.207   3.051  14.717 -0.2700 -1.0477  0.4443
  985TIP3    H224371   2.114   3.048  14.597  0.3247  1.2897 -0.1382
  986TIP3   OH224372   3.649   0.540  14.464 -0.2503  0.2813  0.5940
  986TIP3    H124373   3.634   0.527  14.558 -1.3143 -2.5248  0.1415
  986TIP3    H224374   3.730   0.492  14.445 -0.9669 -0.6558 -0.1906
  987TIP3   OH224375   4.049   3.440   5.080 -0.0776  0.3194 -0.3209
  987TIP3    H124376   3.954   3.454   5.083  0.2863  3.8263 -1.1310
  987TIP3    H224377   4.072   3.415   5.169 -1.6525  0.4429  0.1538
  988TIP3   OH224378   4.630   0.368  14.049  0.2353 -0.3695  0.2328
  988TIP3    H124379   4.652   0.454  14.086  2.1878 -0.4403 -0.6436
  988TIP3    H224380   4.582   0.324  14.119 -0.6750  1.3555  0.7626
  989TIP3   OH224381   6.128   0.023  11.178 -0.4283 -0.5834  0.5051
  989TIP3    H124382   6.089   0.048  11.261 -0.4711  0.1520  0.2736
  989TIP3    H224383   6.075  -0.051  11.148  0.3612 -1.6621  1.7088
  990TIP3   OH224384   4.932   6.115   0.542 -0.0567  0.8016 -0.3735
  990TIP3    H124385   4.980   6.104   0.460  0.5687 -1.7230  0.2735
  990TIP3    H224386   4.868   6.184   0.522  0.9962  1.2521 -2.5312
  991TIP3   OH224387   5.534   4.667   6.479  1.0585 -0.1174 -0.2463
  991TIP3    H124388   5.495   4.754   6.474  2.3600  0.4121 -3.6302
  991TIP3    H224389   5.550   4.654   6.573 -1.9849  1.9006  0.7033
  992TIP3   OH224390   6.094   2.437  13.977  0.2249 -0.3790 -0.4736
  992TIP3    H124391   6.069   2.355  14.018 -1.9161  0.8048  0.7330
  992TIP3    H224392   6.183   2.421  13.945  0.0035 -3.0259 -0.0005
  993TIP3   OH224393   4.859   2.482   5.786  0.4835 -0.1650 -0.4589
  993TIP3    H124394   4.864   2.569   5.826  1.6196 -0.4277  0.0125
  993TIP3    H224395   4.787   2.438   5.833 -1.1758  1.0093 -1.7651
  994TIP3   OH224396   0.125   5.493  10.891  0.2805 -0.3044 -0.5901
  994TIP3    H124397   0.141   5.399  10.881  1.3717 -0.0488 -1.3134
  994TIP3    H224398   0.043   5.508  10.843 -0.6809 -1.1126  0.7262
  995TIP3   OH224399   4.767   2.328   2.519 -0.6671 -0.2438 -0.1897
  995TIP3    H124400   4.750   2.356   2.609 -0.6489  0.4667 -0.4010
  995TIP3    H224401   4.684   2.290   2.489 -1.0112  0.5299 -0.2386
  996TIP3   OH224402   2.645   3.762   5.710 -0.2835  0.0944 -0.0055
  996TIP3    H124403   2.590   3.824   5.662  0.0836 -0.7249 -1.5534
  996TIP3    H224404   2.728   3.761   5.661  0.0564 -0.8778  0.5684
  997TIP3   OH224405   1.370   5.749   0.288 -0.2590 -0.2402  0.1267
  997TIP3    H124406   1.337   5.660   0.287  0.2262 -0.4327 -1.2563
  997TIP3    H224407   1.316   5.796   0.225  0.2779  0.1269 -0.0737
  998TIP3   OH224408   5.711   1.272   3.988 -0.1961  0.1805  0.3418
  998TIP3    H124409   5.679   1.324   4.062 -1.4439 -0.3705  0.2216
  998TIP3    H224410   5.793   1.313   3.963 -0.5413  1.3361  1.0386
  999TIP3   OH224411   3.768   2.818   0.265  0.1492  0.1422  0.8872
  999TIP3    H124412   3.750   2.842   0.356  0.2669 -1.1058  1.2660
  999TIP3    H224413   3.682   2.794   0.229  0.2043 -0.0927  0.9064
 1000TIP3   OH224414   4.810   0.121  16.821 -0.1423  0.0109  0.7430
 1000TIP3    H124415   4.730   0.125  16.770 -0.5878  0.0271  1.4364
 1000TIP3    H224416   4.863   0.054  16.777 -1.2389 -1.2335  1.2797
 1001TIP3   OH224417   5.666   3.537  14.374 -0.0016  0.0680 -0.3080
 1001TIP3    H124418   5.680   3.513  14.465 -1.3789 -0.1611 -0.1278
 1001TIP3    H224419   5.579   3.579  14.373 -0.5446 -0.9843 -1.6798
 1002TIP3   OH224420   6.215   5.329   4.400 -0.2601  0.3298  0.5818
 1002TIP3    H124421   6.210   5.372   4.314 -2.1166 -1.1933 -0.1418
 1002TIP3    H224422   6.173   5.244   4.387  0.6511 -0.5106  2.6915
 1003TIP3   OH224423   1.198   1.402  15.184 -0.4427  0.5599  0.1640
 1003TIP3    H124424   1.235   1.422  15.270 -1.3324  0.2659  0.6205
 1003TIP3    H224425   1.180   1.488  15.146  0.2888  0.6988  0.1127
 1004TIP3   OH224426   3.284   2.297  11.921  0.0187  0.4134  0.0459
 1004TIP3    H124427   3.346   2.306  11.994  0.1165 -0.1957  0.0411
 1004TIP3    H224428   3.320   2.353  11.853  0.7107 -0.1336 -0.0470
 1005TIP3   OH224429   1.188   5.105   5.190 -0.6464 -0.6128  0.6971
 1005TIP3    H124430   1.183   5.024   5.139  1.6900  0.0064 -0.7054
 1005TIP3    H224431   1.142   5.170   5.137  0.2406 -0.3662  0.1972
 1006TIP3   OH224432   3.682   4.421  14.825  0.0473 -0.2132 -0.4822
 1006TIP3    H124433   3.681   4.338  14.777  2.5343 -1.3360  1.2210
 1006TIP3    H224434   3.728   4.482  14.768  0.2409 -0.6498 -0.7957
 1007TIP3   OH224435   1.650   3.993   5.053  0.0445 -0.3231 -0.5581
 1007TIP3    H124436   1.572   3.967   5.004 -2.0047 -0.3819  2.4317
 1007TIP3    H224437   1.619   4.065   5.109  1.7616 -1.1252  1.5812
 1008TIP3   OH224438   0.848   2.594  14.763  0.3053  0.2738  0.5487
 1008TIP3    H124439   0.813   2.580  14.851  0.0637  1.2333  0.6147
 1008TIP3    H224440   0.930   2.641  14.777  0.0783  0.7728  0.2561
 1009TIP3   OH224441   0.508   6.001   4.016 -0.4358 -0.6067 -0.3989
 1009TIP3    H124442   0.525   6.089   4.049  0.9802 -0.4268 -1.4880
 1009TIP3    H224443   0.512   5.945   4.093 -1.1696  0.2433  0.2838
 1010TIP3   OH224444   2.329   5.050  13.493  0.0666 -0.3778  0.1032
 1010TIP3    H124445   2.395   5.077  13.556 -0.2121 -0.4505  0.4264
 1010TIP3    H224446   2.379   5.026  13.415  0.4155 -0.3698  0.3231
 1011TIP3   OH224447   2.739   3.689  14.692  0.0297  0.2848  0.0959
 1011TIP3    H124448   2.745   3.783  14.679  1.3810  0.4550  1.6882
 1011TIP3    H224449   2.665   3.678  14.752 -0.4097  0.2820 -0.4409
 1012TIP3   OH224450   1.779   6.673   1.227 -0.0665 -0.2002  0.0443
 1012TIP3    H124451   1.769   6.581   1.203 -0.2513  0.0224 -0.7574
 1012TIP3    H224452   1.868   6.696   1.197  1.4577 -1.0631  3.4598
 1013TIP3   OH224453   5.966   3.964   0.038  0.7419  0.0867 -0.3720
 1013TIP3    H124454   5.929   4.046   0.007 -0.5951 -0.9619 -1.6842
 1013TIP3    H224455   5.896   3.900   0.026  1.4484 -1.0998  1.4499
 1014TIP3   OH224456   1.899   1.732   2.773  0.4668 -0.0342  0.0390
 1014TIP3    H124457   1.874   1.657   2.719  1.9303 -0.9026  0.4907
 1014TIP3    H224458   1.953   1.786   2.716 -0.9685  0.9554 -0.4279
 1015TIP3   OH224459   6.353   5.314   5.804 -0.3679  0.3858 -0.0243
 1015TIP3    H124460   6.323   5.226   5.827  1.3825  0.2477  2.1981
 1015TIP3    H224461   6.390   5.306   5.716  1.0220 -1.5083  0.6690
 1016TIP3   OH224462   3.972   2.666   0.529  0.0010 -0.3576 -0.0148
 1016TIP3    H124463   3.879   2.683   0.539 -0.0938 -0.8684  0.0323
 1016TIP3    H224464   4.016   2.737   0.576 -0.3121  0.9996 -1.6620
 1017TIP3   OH224465   1.549   2.113  13.765 -0.5448  0.3646  0.4062
 1017TIP3    H124466   1.636   2.151  13.762  0.1757 -1.2130  0.5217
 1017TIP3    H224467   1.509   2.150  13.844  0.7623 -0.4235  1.4654
 1018TIP3   OH224468   3.968   5.070   4.472 -0.3250 -0.7093 -0.3117
 1018TIP3    H124469   4.058   5.036   4.482 -0.5508 -0.8973  1.3354
 1018TIP3    H224470   3.980   5.162   4.450  0.2771 -0.7484 -0.1861
 1019TIP3   OH224471   5.405   4.798   3.019 -0.2638 -0.1712 -0.4247
 1019TIP3    H124472   5.372   4.749   2.944  1.1789  0.1256 -1.2875
 1019TIP3    H224473   5.407   4.733   3.090 -0.4614 -0.7765 -0.9610
 1020TIP3   OH224474   2.529   2.640  15.354  0.8125 -0.4310 -0.4920
 1020TIP3    H124475   2.605   2.687  15.387  1.2539 -1.3281 -0.1789
 1020TIP3    H224476   2.499   2.587  15.428 -0.9519  0.9035 -0.2056
 1021TIP3   OH224477   0.643   1.120   3.897 -0.1557  0.2925 -1.0602
 1021TIP3    H124478   0.725   1.078   3.869 -0.6514 -0.0939 -2.0034
 1021TIP3    H224479   0.599   1.142   3.815  0.0666  2.6689 -0.5942
 1022TIP3   OH224480   4.972   0.775  13.169 -0.4483 -0.0786  0.6283
 1022TIP3    H124481   5.052   0.824  13.188 -0.0535 -0.9175  1.2440
 1022TIP3    H224482   4.980   0.750  13.077 -1.2246  1.9901 -0.0427
 1023TIP3   OH224483   6.167   6.655   2.685  0.3375  0.1096 -0.5502
 1023TIP3    H124484   6.242   6.599   2.706  0.8685  0.8585 -0.4074
 1023TIP3    H224485   6.157   6.645   2.590  0.1712 -0.5285 -0.4724
 1024TIP3   OH224486   1.177   6.137   0.720 -0.6895  0.5326  0.1457
 1024TIP3    H124487   1.243   6.087   0.671  1.3398  1.5607  1.6781
 1024TIP3    H224488   1.144   6.076   0.785  0.5171  0.6376  0.8881
 1025TIP3   OH224489   0.377   3.031   1.563  0.3555  0.3548  0.4153
 1025TIP3    H124490   0.295   3.068   1.531 -0.9320 -0.2219  2.8127
 1025TIP3    H224491   0.355   2.997   1.649  3.3534  0.9754  1.5242
 1026TIP3   OH224492   4.630   1.169  15.673 -0.1708 -0.1645  0.4838
 1026TIP3    H124493   4.599   1.079  15.667 -0.2250 -0.0320 -2.4201
 1026TIP3    H224494   4.550   1.221  15.682 -0.2065 -0.3130  1.0743
 1027TIP3   OH224495   6.666   1.472   6.076 -0.1215 -0.6612  0.0308
 1027TIP3    H124496   6.672   1.440   5.986  0.6824 -1.2624  0.2862
 1027TIP3    H224497   6.669   1.567   6.068 -2.5281 -0.5983 -0.7431
 1028TIP3   OH224498   5.357   5.460   1.213  0.0844  0.4737  0.1647
 1028TIP3    H124499   5.322   5.480   1.126 -2.5543  2.8367  1.5725
 1028TIP3    H224500   5.432   5.518   1.222 -0.4902  1.2673 -0.0418
 1029TIP3   OH224501   0.255   1.850  11.939  0.2701 -0.2415 -0.1855
 1029TIP3    H124502   0.165   1.833  11.967 -1.2309 -0.9633 -4.6309
 1029TIP3    H224503   0.259   1.945  11.927 -0.9507 -0.4006 -2.5061
 1030TIP3   OH224504   1.618   4.125   0.551 -0.1163 -0.2460 -0.3170
 1030TIP3    H124505   1.549   4.163   0.605 -1.5638 -2.1256 -0.7493
 1030TIP3    H224506   1.597   4.153   0.462  0.6418  0.4923 -0.2837
 1031TIP3   OH224507   1.852   0.465   6.083  0.5453 -0.4791 -0.2041
 1031TIP3    H124508   1.782   0.420   6.035 -0.2919 -0.1201  0.6485
 1031TIP3    H224509   1.887   0.398   6.142 -1.4137  0.1392  1.8412
 1032TIP3   OH224510   1.542   3.368  13.354 -0.3558 -0.2488 -0.0300
 1032TIP3    H124511   1.507   3.287  13.390 -1.3237 -0.0256 -0.4520
 1032TIP3    H224512   1.582   3.343  13.271 -0.3903 -0.3440 -0.0172
 1033TIP3   OH224513   3.317   5.108   3.289  0.2156 -0.0850 -0.1225
 1033TIP3    H124514   3.331   5.180   3.227 -1.9686  0.3688 -0.1475
 1033TIP3    H224515   3.253   5.052   3.246  0.8178 -1.2977  0.5249
 1034TIP3   OH224516   6.026   3.376   4.255 -0.1690 -0.1547 -0.1805
 1034TIP3    H124517   5.999   3.401   4.343  1.0729  0.9633 -0.0920
 1034TIP3    H224518   6.012   3.455   4.202  0.4998 -0.3392 -0.6543
 1035TIP3   OH224519   0.092   4.831  14.646 -0.0812 -0.2561 -0.0676
 1035TIP3    H124520   0.052   4.860  14.728 -0.0287 -1.6687  0.4936
 1035TIP3    H224521   0.174   4.879  14.641 -0.1010 -0.1283  0.7014
 1036TIP3   OH224522   3.679   3.235   3.046  0.7895  0.3048  0.2917
 1036TIP3    H124523   3.666   3.327   3.025  0.7694  0.4239  0.8170
 1036TIP3    H224524   3.623   3.219   3.122 -1.4708 -0.8631 -1.4860
 1037TIP3   OH224525   6.698   2.420  15.170  0.3766  0.0902  0.3630
 1037TIP3    H124526   6.707   2.360  15.244  0.3069 -0.7152 -0.2689
 1037TIP3    H224527   6.712   2.365  15.093 -0.7354  0.6632 -0.2746
 1038TIP3   OH224528   3.534   3.682  16.426 -0.3609 -0.7299 -0.6088
 1038TIP3    H124529   3.602   3.622  16.455  0.2034  0.5086  0.7565
 1038TIP3    H224530   3.531   3.670  16.331  0.6836 -1.9072 -0.5239
 1039TIP3   OH224531   3.150   2.424  12.231  0.4405 -0.0904 -0.7479
 1039TIP3    H124532   3.119   2.453  12.145 -2.4348 -0.8322 -0.0548
 1039TIP3    H224533   3.145   2.502  12.286 -4.0544 -0.8512  0.2687
 1040TIP3   OH224534   2.493   1.222   1.282 -0.1092 -0.1482  0.1046
 1040TIP3    H124535   2.417   1.167   1.262  0.1828 -0.2195 -0.8568
 1040TIP3    H224536   2.522   1.254   1.197 -0.0079  1.1554  0.6028
 1041TIP3   OH224537   0.851   5.549  14.892  0.2344  0.6437 -0.3966
 1041TIP3    H124538   0.804   5.632  14.901  0.1725  0.5630  0.0746
 1041TIP3    H224539   0.880   5.547  14.801 -0.0855  1.0102 -0.5095
 1042TIP3   OH224540   2.886   5.957  12.488 -0.6211  0.1967  0.1283
 1042TIP3    H124541   2.887   5.949  12.392  0.2465  1.3175  0.0133
 1042TIP3    H224542   2.802   5.998  12.508 -0.1157  1.5252 -0.3393
 1043TIP3   OH224543   6.425   3.113   5.325 -0.0348 -0.0673 -0.4992
 1043TIP3    H124544   6.476   3.193   5.338  0.3810 -0.3853 -0.1364
 1043TIP3    H224545   6.360   3.137   5.259  0.3745  0.4417 -0.7308
 1044TIP3   OH224546   5.697   5.366  16.088 -0.3487 -0.5761 -0.4827
 1044TIP3    H124547   5.682   5.456  16.117  0.8078  0.2270 -2.1859
 1044TIP3    H224548   5.624   5.316  16.125 -1.4709  1.1951 -0.1742
 1045TIP3   OH224549   6.207   1.580   2.922  0.0252 -0.4179  0.2380
 1045TIP3    H124550   6.187   1.625   2.840 -0.0218 -0.4085  0.2546
 1045TIP3    H224551   6.227   1.490   2.895  2.0213  0.0515 -0.0109
 1046TIP3   OH224552   2.732   3.751   2.508 -0.5205 -0.4756  0.3367
 1046TIP3    H124553   2.660   3.774   2.567  0.6246 -0.9527  1.9776
 1046TIP3    H224554   2.740   3.656   2.516 -0.3358 -0.5491 -0.6080
 1047TIP3   OH224555   0.632   3.637  12.391  0.5301  0.1397  0.1862
 1047TIP3    H124556   0.666   3.725  12.406  0.4133 -0.0162  1.5263
 1047TIP3    H224557   0.699   3.579  12.428  0.9253 -0.3817 -1.2866
 1048TIP3   OH224558   5.609   2.082  16.003  0.1358 -0.0506 -0.5965
 1048TIP3    H124559   5.663   2.003  15.999  0.1248 -0.0905 -0.0156
 1048TIP3    H224560   5.663   2.150  15.964  0.7929  0.0075  0.3830
 1049TIP3   OH224561   3.686   3.281   1.732  0.4942  0.0099 -0.1283
 1049TIP3    H124562   3.628   3.215   1.770  0.8533 -0.8504 -1.0352
 1049TIP3    H224563   3.740   3.233   1.669  1.1077  1.0822 -0.4553
 1050TIP3   OH224564   3.859   1.549   1.482  0.2595  0.0341 -0.4317
 1050TIP3    H124565   3.777   1.523   1.525  1.1423 -0.5217  1.0062
 1050TIP3    H224566   3.877   1.480   1.419 -0.1148 -0.0895 -0.4039
 1051TIP3   OH224567   4.579   6.071   2.460  0.3020  0.6684 -0.2390
 1051TIP3    H124568   4.622   5.986   2.467 -1.0849 -0.1998 -1.6595
 1051TIP3    H224569   4.582   6.107   2.548  2.5697  0.0138  0.0198
 1052TIP3   OH224570   0.056   5.526   5.106  0.1022  0.0744  0.0904
 1052TIP3    H124571   0.016   5.569   5.031 -0.7971 -0.1793  0.4164
 1052TIP3    H224572   0.117   5.462   5.068 -2.8305 -2.5580 -0.5879
 1053TIP3   OH224573   3.143   1.065   3.726  1.0326 -0.0683  0.1170
 1053TIP3    H124574   3.174   1.112   3.648  0.7431  0.0198  0.0544
 1053TIP3    H224575   3.185   1.109   3.799  1.6513 -0.4257 -0.0146
 1054TIP3   OH224576   2.988   3.995   2.721 -0.0697  0.3720 -0.3211
 1054TIP3    H124577   2.969   3.901   2.731 -1.4253  0.6719  0.0596
 1054TIP3    H224578   3.081   4.002   2.744 -0.1014 -0.7915  0.2650
 1055TIP3   OH224579   0.045   3.849   1.655 -0.4652 -0.1855  0.2602
 1055TIP3    H124580   0.061   3.798   1.735 -1.1501 -0.5577  0.1677
 1055TIP3    H224581   0.023   3.783   1.589 -0.3062  0.1537 -0.1295
 1056TIP3   OH224582   2.639   4.520   4.555 -0.3528 -0.0067 -0.3626
 1056TIP3    H124583   2.643   4.614   4.536  0.0094 -0.1941 -1.2540
 1056TIP3    H224584   2.726   4.487   4.533 -0.5219 -0.5758 -0.1967
 1057TIP3   OH224585   3.791   0.467  14.108  0.1688 -0.1309  0.4038
 1057TIP3    H124586   3.821   0.557  14.095 -1.7340  0.5612  0.4435
 1057TIP3    H224587   3.812   0.447  14.199 -0.2939  0.6555  0.6872
 1058TIP3   OH224588   1.337   1.231   0.646 -0.2888  0.6665  0.1406
 1058TIP3    H124589   1.315   1.256   0.556 -1.0501 -1.3134 -0.2713
 1058TIP3    H224590   1.330   1.136   0.647 -0.5645  0.6543  2.3825
 1059TIP3   OH224591   2.108   4.818   1.205 -0.0757 -0.2028 -0.3799
 1059TIP3    H124592   2.026   4.796   1.250  0.0419 -2.0780 -0.9835
 1059TIP3    H224593   2.171   4.830   1.276  0.0530 -2.8813  0.0919
 1060TIP3   OH224594   4.730   0.790  16.600 -0.5207 -0.3382  0.0853
 1060TIP3    H124595   4.787   0.865  16.585 -1.9934  0.8516  0.2546
 1060TIP3    H224596   4.785   0.727  16.646  1.0753  0.1504 -1.0502
 1061TIP3   OH224597   6.770   0.257  16.982  0.3116  0.1567  0.4663
 1061TIP3    H124598   6.713   0.289  16.913  0.3786  1.1292  0.8548
 1061TIP3    H224599   6.764   0.161  16.976 -0.3818  0.2444 -0.2927
 1062TIP3   OH224600   1.137   0.772   3.198  0.0358  0.3684  0.2350
 1062TIP3    H124601   1.219   0.723   3.203 -0.9462 -1.7867 -2.3822
 1062TIP3    H224602   1.073   0.717   3.242 -0.1684  1.8672  1.9361
 1063TIP3   OH224603   1.041   1.988  12.952 -0.0148 -0.3241  0.2527
 1063TIP3    H124604   1.049   2.028  12.865 -1.8337  0.5590  0.4456
 1063TIP3    H224605   1.090   1.906  12.945  3.4044  1.5354 -0.3439
 1064TIP3   OH224606   5.827   5.531  10.741 -0.6361 -0.0409  0.2557
 1064TIP3    H124607   5.756   5.517  10.803 -0.9271  2.0571  0.4592
 1064TIP3    H224608   5.858   5.619  10.759  1.3654 -0.5235 -0.5161
 1065TIP3   OH224609   5.370   1.730  11.747 -0.2476 -0.0170  0.3377
 1065TIP3    H124610   5.372   1.796  11.816  0.7892 -0.3641  0.6575
 1065TIP3    H224611   5.419   1.769  11.675 -1.9188  0.6318 -0.5026
 1066TIP3   OH224612   3.911   0.098   0.697  0.0007  0.1042  0.2974
 1066TIP3    H124613   3.970   0.027   0.673  0.6898  0.7510  0.0217
 1066TIP3    H224614   3.907   0.094   0.793  1.1657  0.5497  0.3845
 1067TIP3   OH224615   3.040   0.279   5.349 -0.0247 -0.8507  0.0995
 1067TIP3    H124616   3.005   0.321   5.270 -0.1273  0.6721  0.9068
 1067TIP3    H224617   3.135   0.283   5.338 -0.0354 -0.5091  0.1148
 1068TIP3   OH224618   5.203   5.536   4.129 -0.1899 -0.1864 -0.2994
 1068TIP3    H124619   5.221   5.480   4.053 -1.6048  1.3771 -1.8883
 1068TIP3    H224620   5.212   5.625   4.096 -1.0403  0.5419  1.3255
 1069TIP3   OH224621   6.770   0.492   1.127 -0.6230  0.0897  0.3844
 1069TIP3    H124622   6.816   0.432   1.185 -0.6275 -1.4934 -1.1562
 1069TIP3    H224623   6.690   0.515   1.174  0.5941  1.0533  2.1132
 1070TIP3   OH224624   2.194   1.714  16.087 -0.1994  0.0435  0.4251
 1070TIP3    H124625   2.161   1.713  15.998  0.8845 -0.9810  0.0092
 1070TIP3    H224626   2.142   1.648  16.133  1.0195 -1.3898 -0.1658
 1071TIP3   OH224627   3.183   1.529   4.123 -0.6689 -0.2971 -0.5174
 1071TIP3    H124628   3.144   1.500   4.205 -1.4716 -1.8526 -1.4072
 1071TIP3    H224629   3.113   1.523   4.058 -0.9864  3.8508 -0.8452
 1072TIP3   OH224630   1.327   4.940  16.008 -0.0271 -0.5771 -0.4418
 1072TIP3    H124631   1.403   4.963  16.062 -0.5111  2.4600 -0.8864
 1072TIP3    H224632   1.293   4.860  16.048  1.3067 -0.0487  1.9854
 1073TIP3   OH224633   3.779   0.039  14.942 -0.2270 -0.1016  0.0095
 1073TIP3    H124634   3.793  -0.002  15.027  0.2765 -0.1725 -0.1065
 1073TIP3    H224635   3.847   0.001  14.886 -0.8235 -0.3883 -0.5375
 1074TIP3   OH224636   4.560   1.079  15.269  0.4047  0.1154  0.3086
 1074TIP3    H124637   4.634   1.108  15.323  2.3680 -2.6624 -0.6870
 1074TIP3    H224638   4.531   0.997  15.309 -0.4016 -0.1919 -0.8539
 1075TIP3   OH224639   2.110   4.410   2.436 -0.2879  0.5999 -0.7263
 1075TIP3    H124640   2.057   4.479   2.477 -0.0965  0.5900 -0.4648
 1075TIP3    H224641   2.071   4.328   2.467  1.2873  0.5589  1.3431
 1076TIP3   OH224642   5.617   5.463  13.344 -0.3466 -0.2117 -0.5421
 1076TIP3    H124643   5.575   5.545  13.368  1.7758  0.8274 -0.1524
 1076TIP3    H224644   5.601   5.405  13.418 -2.1421 -0.3161 -0.9593
 1077TIP3   OH224645   0.356   1.790  13.419 -0.0727  0.1546  0.3744
 1077TIP3    H124646   0.314   1.714  13.380  0.8994 -0.0799 -0.2502
 1077TIP3    H224647   0.349   1.858  13.351  0.9074 -0.0150  0.0853
 1078TIP3   OH224648   3.401   1.809   3.158 -0.1527  0.3755 -0.0190
 1078TIP3    H124649   3.388   1.790   3.250 -1.4482  1.1801 -0.0048
 1078TIP3    H224650   3.494   1.796   3.143 -0.2582 -1.7728  0.9050
 1079TIP3   OH224651   2.595   1.798   0.929  0.4043 -0.0784  0.2747
 1079TIP3    H124652   2.526   1.744   0.892  0.5006 -0.9290  1.2851
 1079TIP3    H224653   2.589   1.881   0.881 -0.6526 -0.4844 -0.3363
 1080TIP3   OH224654   6.064   2.080  11.778  0.0044  0.3290 -0.2207
 1080TIP3    H124655   6.114   2.158  11.753 -0.1815  0.6533  0.3875
 1080TIP3    H224656   5.977   2.095  11.742  0.0574  0.2470 -0.3852
 1081TIP3   OH224657   2.311   5.412   2.398  0.0910  0.2815  0.3385
 1081TIP3    H124658   2.241   5.390   2.459 -0.0145  1.4788  0.6879
 1081TIP3    H224659   2.329   5.504   2.416  2.8798 -0.3805  1.3961
 1082TIP3   OH224660   1.806   2.199   3.060  0.0293  0.3057  0.3971
 1082TIP3    H124661   1.802   2.109   3.027 -0.3544  0.5822 -0.3172
 1082TIP3    H224662   1.898   2.222   3.054 -0.2142  0.8752 -1.9467
 1083TIP3   OH224663   3.168   2.515  15.527 -0.6740  0.2151 -0.2333
 1083TIP3    H124664   3.094   2.572  15.507 -1.0069  0.3786  1.3536
 1083TIP3    H224665   3.135   2.455  15.594  0.4120 -0.2070 -0.0582
 1084TIP3   OH224666   6.595   6.165  15.973  0.4949  0.5632 -0.0656
 1084TIP3    H124667   6.690   6.171  15.967  0.3893  2.9752 -0.3871
 1084TIP3    H224668   6.563   6.234  15.915 -1.4433  0.1910  0.4791
 1085TIP3   OH224669   0.399   0.486  17.282 -0.2746  0.3175  0.0916
 1085TIP3    H124670   0.350   0.417  17.326 -0.1052  0.1017 -0.0569
 1085TIP3    H224671   0.343   0.564  17.290 -0.1038  0.3651  0.9737
 1086TIP3   OH224672   1.850   0.004  14.629  0.2142  0.4146  0.8836
 1086TIP3    H124673   1.810  -0.019  14.713  0.6050  2.9570  1.8852
 1086TIP3    H224674   1.816   0.092  14.610 -0.6719 -0.4669 -2.1956
 1087TIP3   OH224675   5.370   6.009   5.035 -0.3755  0.3159  0.4796
 1087TIP3    H124676   5.447   5.956   5.052  0.6988  1.9067  0.8114
 1087TIP3    H224677   5.369   6.022   4.940 -0.1748  0.3691  0.4846
 1088TIP3   OH224678   4.924   3.796  12.953 -0.6390 -0.0400 -0.1942
 1088TIP3    H124679   4.850   3.776  13.010  0.4993 -2.5834  0.5510
 1088TIP3    H224680   5.001   3.780  13.007  0.4702  0.6238 -1.5134
 1089TIP3   OH224681   6.592   1.695  13.998  0.3512  0.3927  0.1635
 1089TIP3    H124682   6.522   1.678  13.935  2.2415  0.2081 -2.0270
 1089TIP3    H224683   6.670   1.709  13.944  2.0879  0.3331  2.4935
 1090TIP3   OH224684   6.632   3.675   3.287 -0.0758 -0.4514 -0.3433
 1090TIP3    H124685   6.590   3.760   3.297 -1.3305 -1.1794  0.9249
 1090TIP3    H224686   6.718   3.695   3.250  0.0583  1.4695  0.8466
 1091TIP3   OH224687   4.364   5.255   6.079  0.4724  0.3099 -0.2757
 1091TIP3    H124688   4.297   5.312   6.041 -0.2215 -0.9966 -1.0776
 1091TIP3    H224689   4.445   5.280   6.034 -0.0354 -0.0853 -1.4287
 1092TIP3   OH224690   4.802   5.210  13.261  0.3074  0.6061  0.2993
 1092TIP3    H124691   4.789   5.121  13.295 -1.7908  0.6689 -0.2393
 1092TIP3    H224692   4.766   5.267  13.329 -0.0450  0.9491 -0.1728
 1093TIP3   OH224693   5.064   3.336   4.518  0.8598 -0.3789 -0.1285
 1093TIP3    H124694   5.112   3.298   4.591  0.2417 -1.5544 -0.3199
 1093TIP3    H224695   5.005   3.267   4.488 -0.1862  0.6662 -0.5960
 1094TIP3   OH224696   4.293   5.047   4.126 -0.2085 -0.3202  0.3044
 1094TIP3    H124697   4.243   4.991   4.186 -0.1489 -0.1128  0.5534
 1094TIP3    H224698   4.370   5.072   4.177  1.3974 -2.5499 -0.8462
 1095TIP3   OH224699   5.137   3.771  13.110  0.5355 -0.3804 -0.1352
 1095TIP3    H124700   5.213   3.712  13.109  0.5390 -0.3711 -0.4792
 1095TIP3    H224701   5.170   3.851  13.152  0.4060 -0.7828  0.7639
 1096TIP3   OH224702   3.273   1.528  10.747  0.1522 -0.2135 -0.6404
 1096TIP3    H124703   3.188   1.500  10.712 -0.1572  0.0798 -0.1429
 1096TIP3    H224704   3.294   1.462  10.814  0.0481  0.0173 -0.3784
 1097TIP3   OH224705   5.653   0.441   0.781 -0.1212 -0.4179  0.2828
 1097TIP3    H124706   5.595   0.467   0.853 -2.4192 -2.7976 -0.5447
 1097TIP3    H224707   5.731   0.406   0.825 -0.3185  0.6060  1.5098
 1098TIP3   OH224708   4.274   2.466   0.745 -0.1806  0.1158  0.4616
 1098TIP3    H124709   4.325   2.423   0.814 -1.0420 -0.9607  0.4662
 1098TIP3    H224710   4.304   2.557   0.746 -0.4414  0.2405  2.5449
 1099TIP3   OH224711   6.072   6.360  10.524  0.3194  0.1724  0.1774
 1099TIP3    H124712   6.162   6.328  10.532  0.1519 -0.9384 -1.6426
 1099TIP3    H224713   6.024   6.285  10.489 -1.3761  0.6870  1.2773
 1100TIP3   OH224714   5.196   2.680   0.269  0.0679  0.2186 -0.0341
 1100TIP3    H124715   5.155   2.625   0.336  2.1819  0.3862  1.5145
 1100TIP3    H224716   5.165   2.769   0.288 -0.9349  0.0104 -0.6102
 1101TIP3   OH224717   2.043   3.923   4.337  0.3357 -0.0291 -0.5516
 1101TIP3    H124718   2.084   3.838   4.321 -0.7627 -0.7373  0.2508
 1101TIP3    H224719   1.992   3.910   4.417  0.5414  1.5336 -0.1380
 1102TIP3   OH224720   3.076   6.009  15.930 -0.1492 -0.0333 -0.8013
 1102TIP3    H124721   3.080   6.090  15.880 -1.2466  1.0123  0.6962
 1102TIP3    H224722   2.992   6.013  15.976 -0.5556 -2.3686 -1.2028
 1103TIP3   OH224723   2.472   2.603  16.560 -0.2779  0.7537 -0.3672
 1103TIP3    H124724   2.411   2.612  16.487 -0.3832  0.9719 -0.2526
 1103TIP3    H224725   2.549   2.560  16.522 -0.8396 -0.3410 -0.3244
 1104TIP3   OH224726   2.420   1.038   5.227  0.3403 -0.0867  0.0622
 1104TIP3    H124727   2.409   1.105   5.294  3.0784  1.1198 -0.5693
 1104TIP3    H224728   2.443   0.958   5.275 -1.2266 -0.1852  0.7064
 1105TIP3   OH224729   0.385   1.556  11.684 -0.7759  0.4620 -0.5426
 1105TIP3    H124730   0.293   1.584  11.681 -0.4258  1.5911 -1.8823
 1105TIP3    H224731   0.427   1.619  11.743 -0.9172 -0.3175  0.4199
 1106TIP3   OH224732   4.070   3.222   3.725  0.6277 -0.6489 -1.2150
 1106TIP3    H124733   4.047   3.237   3.634  1.1382 -1.3846 -1.4787
 1106TIP3    H224734   4.006   3.272   3.775  1.3188  1.0551 -1.9879
 1107TIP3   OH224735   3.379   6.411  10.782  0.2091  0.4126  0.4066
 1107TIP3    H124736   3.463   6.379  10.749 -0.9807 -3.0205  0.2278
 1107TIP3    H224737   3.340   6.457  10.708  1.8909  2.0929  0.5097
 1108TIP3   OH224738   0.377   5.186   1.293 -1.0595  0.4361 -0.6309
 1108TIP3    H124739   0.379   5.179   1.389 -1.9960 -0.4001 -0.6523
 1108TIP3    H224740   0.283   5.189   1.272 -0.9726 -2.0235 -1.6680
 1109TIP3   OH224741   4.205   3.611   1.916 -0.4432 -0.2140 -0.3093
 1109TIP3    H124742   4.230   3.700   1.942  0.0988 -0.5175  0.2347
 1109TIP3    H224743   4.113   3.603   1.941 -0.9637  0.7214 -1.8001
 1110TIP3   OH224744   4.121   2.594  16.906  0.1493 -0.7787  0.1841
 1110TIP3    H124745   4.029   2.573  16.919 -0.3295 -0.5038 -2.3649
 1110TIP3    H224746   4.156   2.601  16.995 -2.5492  0.4009  1.2731
 1111TIP3   OH224747   3.492   4.717   1.341  0.1060 -0.4613  0.5225
 1111TIP3    H124748   3.420   4.662   1.309 -0.3674  0.1806  0.4646
 1111TIP3    H224749   3.448   4.791   1.384  0.7014  1.0584 -1.3796
 1112TIP3   OH224750   5.439   5.466   1.895 -0.2261 -0.7200 -0.2283
 1112TIP3    H124751   5.436   5.385   1.945  0.9780 -0.4608  0.2993
 1112TIP3    H224752   5.468   5.532   1.958 -1.7551  0.2642 -0.4928
 1113TIP3   OH224753   3.067   4.755   4.724 -0.0220  0.1043  0.4387
 1113TIP3    H124754   3.118   4.684   4.764  0.5683  0.3211  0.0743
 1113TIP3    H224755   3.015   4.790   4.796 -1.4274 -1.6262  0.3628
 1114TIP3   OH224756   6.757   5.113   5.805  0.7846  0.4015  0.1567
 1114TIP3    H124757   6.821   5.157   5.861  1.1085  0.7032 -0.4534
 1114TIP3    H224758   6.752   5.024   5.842  2.3322  0.0433 -0.4105
 1115TIP3   OH224759   0.761   4.848  15.338 -0.2500  0.2610 -0.0741
 1115TIP3    H124760   0.777   4.821  15.428  0.0420 -0.2486 -0.2774
 1115TIP3    H224761   0.741   4.767  15.292  0.0557  0.4608 -0.5654
 1116TIP3   OH224762   3.005   5.586   5.003 -0.0407 -0.9398 -0.0475
 1116TIP3    H124763   3.000   5.662   5.061 -0.4241  0.9269 -2.3506
 1116TIP3    H224764   2.919   5.582   4.962  1.0145 -0.4292 -2.4669
 1117TIP3   OH224765   3.299   0.753   4.082 -0.0678 -0.5139 -0.4096
 1117TIP3    H124766   3.278   0.664   4.054 -0.1197 -0.2811 -1.1271
 1117TIP3    H224767   3.379   0.775   4.034  1.0568 -0.8689  1.2171
 1118TIP3   OH224768   0.121   2.263  14.258 -0.4072  0.8355  0.3296
 1118TIP3    H124769   0.155   2.267  14.169  0.9693  0.2904  0.8081
 1118TIP3    H224770   0.027   2.250  14.247 -0.1854  0.2319 -1.0478
 1119TIP3   OH224771   1.794   2.579  11.177 -0.0591 -0.0313  0.7563
 1119TIP3    H124772   1.876   2.536  11.152 -0.2742 -0.0602  0.0665
 1119TIP3    H224773   1.757   2.609  11.094  0.4251  2.1035  1.2483
 1120TIP3   OH224774   3.874   0.424   1.948  0.2793  0.1216  0.0760
 1120TIP3    H124775   3.951   0.378   1.915  0.2024  2.1397 -3.3908
 1120TIP3    H224776   3.804   0.359   1.946  0.6458 -0.3077 -2.6026
 1121TIP3   OH224777   0.927   6.506   0.834 -0.2056 -0.4241  0.1770
 1121TIP3    H124778   1.004   6.542   0.879 -0.4496 -0.6916  0.8280
 1121TIP3    H224779   0.915   6.419   0.873 -0.9461 -0.3114  0.2175
 1122TIP3   OH224780   3.166   4.509   4.788 -0.5198 -0.0541 -0.1741
 1122TIP3    H124781   3.250   4.529   4.746  0.4727  1.6176  2.3859
 1122TIP3    H224782   3.157   4.414   4.781  1.7279 -0.3043 -0.2373
 1123TIP3   OH224783   2.230   2.261  11.996 -0.1413  0.3773 -0.2211
 1123TIP3    H124784   2.319   2.296  11.994  0.2423 -0.5484  0.0155
 1123TIP3    H224785   2.176   2.336  12.020  0.4684  1.1364 -1.0891
 1124TIP3   OH224786   0.265   2.748  14.365  0.2556  0.2514 -0.8305
 1124TIP3    H124787   0.272   2.749  14.461  2.1871  2.0253 -0.9199
 1124TIP3    H224788   0.352   2.723  14.335 -0.7434 -1.8235 -2.1607
 1125TIP3   OH224789   6.768   4.311  13.620 -0.0924 -0.3933  0.1345
 1125TIP3    H124790   6.852   4.276  13.593  0.7642  1.0185  0.8450
 1125TIP3    H224791   6.787   4.361  13.700 -1.1568  1.8936 -0.9467
 1126TIP3   OH224792   4.483   3.823   5.344 -0.3637 -0.0037 -0.2139
 1126TIP3    H124793   4.500   3.912   5.374  2.6783  0.1120 -1.9439
 1126TIP3    H224794   4.569   3.784   5.333 -1.4640 -1.9888 -2.8295
 1127TIP3   OH224795   3.344   5.219   5.244  0.0047 -0.1143 -0.0844
 1127TIP3    H124796   3.376   5.255   5.326  0.6069 -0.0818 -0.3270
 1127TIP3    H224797   3.410   5.245   5.179 -1.4206  1.5178 -0.9546
 1128TIP3   OH224798   5.825   3.094   6.047  0.4871 -0.6234  0.3587
 1128TIP3    H124799   5.909   3.118   6.088 -0.0295 -0.5110  1.3862
 1128TIP3    H224800   5.767   3.078   6.121 -0.4394 -0.5670 -0.3497
 1129TIP3   OH224801   4.321   3.289  14.012 -0.0580 -0.2976  0.2411
 1129TIP3    H124802   4.390   3.350  13.987 -1.4645  1.2196 -0.0892
 1129TIP3    H224803   4.365   3.204  14.020  1.1860 -0.2028 -3.7348
 1130TIP3   OH224804   0.901   6.279   2.290  0.1320 -0.2058  0.2809
 1130TIP3    H124805   0.900   6.368   2.327 -1.4952  0.2688 -0.8235
 1130TIP3    H224806   0.959   6.286   2.214  1.9738 -0.7354  1.5538
 1131TIP3   OH224807   0.465   1.747   3.998 -0.1050 -0.3074  0.2234
 1131TIP3    H124808   0.438   1.721   3.910 -0.0757 -2.9095  0.8940
 1131TIP3    H224809   0.383   1.750   4.049 -0.0760  0.7960  0.2411
 1132TIP3   OH224810   1.570   0.707  16.030  0.1608 -0.0826 -0.4019
 1132TIP3    H124811   1.646   0.668  15.987 -0.2340  0.6480 -1.7918
 1132TIP3    H224812   1.607   0.769  16.093  0.7265 -0.2459 -0.5699
 1133TIP3   OH224813   2.139   5.141   6.258  0.2051 -0.2895  0.0928
 1133TIP3    H124814   2.159   5.156   6.166  1.1091 -2.7544 -0.1966
 1133TIP3    H224815   2.094   5.056   6.259  1.3234 -0.9272  2.0029
 1134TIP3   OH224816   0.258   5.289  10.631  0.5335  0.0154 -0.2323
 1134TIP3    H124817   0.248   5.375  10.590 -0.8516  0.3528  0.7701
 1134TIP3    H224818   0.349   5.288  10.662  0.8512  0.7248 -1.0985
 1135TIP3   OH224819   3.457   0.737  11.745  0.4342  0.4530  0.4007
 1135TIP3    H124820   3.545   0.713  11.775  0.4600  1.2722  1.0120
 1135TIP3    H224821   3.431   0.666  11.686  1.5761  0.2969  0.0717
 1136TIP3   OH224822   3.578   6.536   6.449  0.1453 -0.2242  0.0710
 1136TIP3    H124823   3.490   6.562   6.425  0.9829  1.1698 -1.6592
 1136TIP3    H224824   3.567   6.448   6.487 -2.2509  0.8811  2.2846
 1137TIP3   OH224825   3.071   2.081  12.990  0.0472 -0.2619  0.6400
 1137TIP3    H124826   3.141   2.042  12.938  0.9297  0.7973  0.9866
 1137TIP3    H224827   2.993   2.071  12.937  0.6636 -0.5219 -0.2329
 1138TIP3   OH224828   0.822   3.138   1.702 -0.3419 -0.9437  0.0240
 1138TIP3    H124829   0.744   3.086   1.684 -0.1224 -1.2085 -0.1891
 1138TIP3    H224830   0.838   3.187   1.621 -1.1833  0.3164  0.5922
 1139TIP3   OH224831   4.725   6.757  10.541  0.3118 -0.0057 -0.1364
 1139TIP3    H124832   4.700   6.760  10.449  1.5274 -0.0662 -0.4946
 1139TIP3    H224833   4.821   6.761  10.540  0.5081 -2.3529  1.0016
 1140TIP3   OH224834   2.183   1.324   0.603 -0.1559 -0.1416  0.2292
 1140TIP3    H124835   2.156   1.344   0.513  2.8394 -1.7795 -1.2016
 1140TIP3    H224836   2.174   1.229   0.610 -0.5786 -0.0102  1.7768
 1141TIP3   OH224837   3.511   1.383  12.380  0.8115 -0.0498 -0.0995
 1141TIP3    H124838   3.552   1.354  12.461  0.5042 -0.7440 -0.1790
 1141TIP3    H224839   3.514   1.478  12.383 -0.6153 -0.0139  1.4633
 1142TIP3   OH224840   1.435   5.663   2.809  0.0378  0.0076  0.9792
 1142TIP3    H124841   1.380   5.586   2.797 -2.3533  1.6809  0.5888
 1142TIP3    H224842   1.459   5.661   2.902 -2.2185  0.1575  1.6119
 1143TIP3   OH224843   5.489   5.934  16.270  0.1664  0.4458  0.4840
 1143TIP3    H124844   5.562   5.979  16.227  1.0738 -0.2505  1.2422
 1143TIP3    H224845   5.531   5.865  16.322 -0.9831  0.5171  1.5557
 1144TIP3   OH224846   2.356   1.219   4.895  0.1841 -0.0491  0.2650
 1144TIP3    H124847   2.300   1.272   4.952 -0.9420 -0.1850 -0.6711
 1144TIP3    H224848   2.445   1.237   4.925 -0.3028  0.8559  1.2298
 1145TIP3   OH224849   0.672   3.909  12.370  0.4727 -1.0495  0.1671
 1145TIP3    H124850   0.717   3.969  12.430 -0.3527 -1.3872  1.1611
 1145TIP3    H224851   0.605   3.964  12.328  0.2544 -1.0894  0.4631
 1146TIP3   OH224852   0.567   1.397  15.752  0.2208  0.2608 -0.8509
 1146TIP3    H124853   0.621   1.382  15.830  1.4949  2.4917 -1.2291
 1146TIP3    H224854   0.538   1.310  15.726 -0.4060 -0.5492  2.2045
 1147TIP3   OH224855   0.081   0.945   1.104 -0.7971  0.9882  0.2859
 1147TIP3    H124856   0.135   0.867   1.093 -1.2450  0.5241  1.1955
 1147TIP3    H224857   0.004   0.929   1.050 -1.3196  0.3585  1.1836
 1148TIP3   OH224858   6.269   1.821  13.278  0.4055  0.2898  0.0855
 1148TIP3    H124859   6.352   1.794  13.317  0.9212 -0.0648 -1.2055
 1148TIP3    H224860   6.281   1.808  13.184 -0.3681  2.2492 -0.3366
 1149TIP3   OH224861   1.259   2.995  13.903  0.2341  0.1571 -0.0605
 1149TIP3    H124862   1.235   3.003  13.811 -0.0611 -0.7733 -0.0737
 1149TIP3    H224863   1.186   3.033  13.950  0.0453 -0.0436 -0.1900
 1150TIP3   OH224864   2.971   4.221   4.447  0.6076 -0.5092 -0.0298
 1150TIP3    H124865   2.955   4.284   4.517  1.2616  0.0813 -0.3997
 1150TIP3    H224866   2.888   4.216   4.399  1.1633  1.7847 -1.3480
 1151TIP3   OH224867   5.791   4.243   2.038  0.1016  0.3705 -0.2561
 1151TIP3    H124868   5.843   4.177   2.082  0.1282  0.2367 -0.4848
 1151TIP3    H224869   5.842   4.324   2.046  0.2738  0.2716 -0.3493
 1152TIP3   OH224870   0.888   1.331  11.138 -0.1953 -0.0630  0.0227
 1152TIP3    H124871   0.927   1.272  11.074 -0.7067  0.9558 -1.2661
 1152TIP3    H224872   0.797   1.303  11.144  0.1668 -1.0610  1.4143
 1153TIP3   OH224873   0.003   5.163  14.401 -0.2479 -0.0197  0.3893
 1153TIP3    H124874  -0.061   5.163  14.472 -1.2629 -0.2672 -0.5089
 1153TIP3    H224875   0.005   5.072  14.371 -0.4842  0.2515 -0.4695
 1154TIP3   OH224876   6.425   3.733   1.625  0.3904  0.0411 -0.3333
 1154TIP3    H124877   6.338   3.703   1.600  0.0869  1.8339 -1.5877
 1154TIP3    H224878   6.450   3.676   1.697 -1.2945 -1.3176 -0.7636
 1155TIP3   OH224879   6.067   1.996   3.152  0.1708  0.5768  0.7145
 1155TIP3    H124880   6.152   2.031   3.126 -0.0989  0.8022  0.1173
 1155TIP3    H224881   6.027   1.967   3.070 -0.2358  0.2636  1.0188
 1156TIP3   OH224882   2.466   6.514  16.231 -0.2776  0.5627 -0.7288
 1156TIP3    H124883   2.475   6.559  16.147 -0.9827  0.6564 -0.7633
 1156TIP3    H224884   2.552   6.475  16.248  0.4914  2.2761 -0.4921
 1157TIP3   OH224885   2.300   6.705  15.082  0.4264 -0.4835 -0.6007
 1157TIP3    H124886   2.382   6.675  15.044  0.7572  0.1038 -0.3801
 1157TIP3    H224887   2.232   6.665  15.029  0.8692  0.0472 -1.6057
 1158TIP3   OH224888   2.012   0.912  15.368 -0.4373  1.0254 -0.5145
 1158TIP3    H124889   2.007   0.894  15.274 -1.4854 -1.3317 -0.0844
 1158TIP3    H224890   2.085   0.858  15.398  1.0622  3.1184 -0.1748
 1159TIP3   OH224891   2.384   5.317   5.237  0.2759 -0.6050 -0.3438
 1159TIP3    H124892   2.466   5.365   5.250 -0.7437  1.1667 -0.1240
 1159TIP3    H224893   2.349   5.352   5.154 -2.0976  1.6191  1.4012
 1160TIP3   OH224894   3.232   6.233  17.206 -0.1211  0.1457 -0.0965
 1160TIP3    H124895   3.221   6.141  17.181  0.8095  0.2208 -0.8912
 1160TIP3    H224896   3.272   6.230  17.292 -0.8254 -0.1736  0.2285
 1161TIP3   OH224897   0.888   3.913   6.432  0.3148  0.0420  0.1279
 1161TIP3    H124898   0.836   3.877   6.360 -0.5320 -1.0614  1.2525
 1161TIP3    H224899   0.823   3.939   6.498  1.0662  1.1482  0.4725
 1162TIP3   OH224900   1.864   0.892   0.567 -0.2126 -0.2760  0.1387
 1162TIP3    H124901   1.904   0.871   0.483 -1.3491 -0.2048 -0.4430
 1162TIP3    H224902   1.829   0.981   0.557 -0.5665 -0.3531  0.5977
 1163TIP3   OH224903   6.654   1.851   0.768 -0.1534 -0.1039 -0.1252
 1163TIP3    H124904   6.580   1.858   0.829  1.2430  0.0427  1.6318
 1163TIP3    H224905   6.642   1.924   0.708 -0.7920  0.6710  0.9044
 1164TIP3   OH224906   4.002   5.273   1.382  0.1204  0.1886  0.4397
 1164TIP3    H124907   3.913   5.236   1.385  0.1076  0.1989  0.2366
 1164TIP3    H224908   4.054   5.215   1.437  0.4143 -0.9935 -1.0260
 1165TIP3   OH224909   1.217   5.518   1.959  0.6142 -0.0846  0.5082
 1165TIP3    H124910   1.217   5.503   2.054 -0.1812 -0.6078  0.4319
 1165TIP3    H224911   1.153   5.588   1.946 -1.7168 -2.1626  0.0687
 1166TIP3   OH224912   6.271   0.827   2.860  0.1150  0.2527 -0.3395
 1166TIP3    H124913   6.329   0.752   2.870  0.4250  0.4615 -0.5429
 1166TIP3    H224914   6.330   0.902   2.849 -0.1888  0.5591  0.0831
 1167TIP3   OH224915   1.022   4.572   6.073  0.2377 -0.3152 -0.8917
 1167TIP3    H124916   0.983   4.618   6.147  1.0164 -0.7121 -0.2180
 1167TIP3    H224917   1.083   4.509   6.112  1.0452 -0.1864 -1.8721
 1168TIP3   OH224918   2.863   3.650  15.798  0.1371 -0.7974  0.5859
 1168TIP3    H124919   2.813   3.613  15.871 -1.4606  1.0229  0.4795
 1168TIP3    H224920   2.798   3.690  15.741  1.4249 -1.3782 -1.4259
 1169TIP3   OH224921   2.705   3.922  12.578  0.2277 -0.5321 -0.5311
 1169TIP3    H124922   2.739   3.850  12.524 -1.7214 -1.3949 -0.6976
 1169TIP3    H224923   2.667   3.984  12.514  1.9711  0.7426 -0.3968
 1170TIP3   OH224924   6.146   0.136  12.873 -0.0986  0.1521 -0.4134
 1170TIP3    H124925   6.149   0.042  12.857  1.3838  0.2478 -0.7640
 1170TIP3    H224926   6.106   0.143  12.960  0.2624 -0.8264 -0.1527
 1171TIP3   OH224927   3.930   1.129  15.553 -0.4211 -0.6374 -0.3108
 1171TIP3    H124928   3.947   1.079  15.473 -1.8335  0.1433 -1.1426
 1171TIP3    H224929   3.916   1.062  15.620  0.2312 -1.3081 -0.8297
 1172TIP3   OH224930   0.221   3.507   4.433  0.3146 -0.4904  0.0170
 1172TIP3    H124931   0.248   3.439   4.371  0.5142 -0.8436  0.4816
 1172TIP3    H224932   0.129   3.488   4.451 -0.4390  0.9795 -1.9105
 1173TIP3   OH224933   4.377   5.093   4.722  0.5210  0.1989  0.2894
 1173TIP3    H124934   4.378   5.188   4.708  0.5613  0.1403 -0.0846
 1173TIP3    H224935   4.466   5.072   4.750  0.3572  0.3601  0.9639
 1174TIP3   OH224936   4.485   3.089  12.106  0.1912  0.4331 -0.6676
 1174TIP3    H124937   4.395   3.084  12.140  0.3483 -0.6465 -0.3540
 1174TIP3    H224938   4.506   2.999  12.082  1.3199  0.6071 -0.4022
 1175TIP3   OH224939   2.944   5.207  16.355  0.1125  0.6893  0.5653
 1175TIP3    H124940   2.886   5.172  16.288  0.8311  0.7443 -0.1012
 1175TIP3    H224941   2.958   5.134  16.415 -0.8554  0.7584  0.8852
 1176TIP3   OH224942   0.153   2.686   1.090  0.1775 -0.0722  0.0415
 1176TIP3    H124943   0.242   2.708   1.117  0.1904  1.2231 -0.8928
 1176TIP3    H224944   0.096   2.734   1.151  0.1832  1.1681 -0.8801
 1177TIP3   OH224945   4.080   1.889  12.862  0.1533 -0.1274 -0.1404
 1177TIP3    H124946   3.985   1.900  12.868  0.3448  1.2731  0.6075
 1177TIP3    H224947   4.098   1.811  12.916 -0.7249 -1.4678 -1.6936
 1178TIP3   OH224948   2.923   4.138  11.821  0.4138  0.2070  0.4476
 1178TIP3    H124949   2.973   4.171  11.746  0.3798 -0.7733 -0.0260
 1178TIP3    H224950   2.832   4.158  11.800  0.2729 -1.1745 -0.3945
 1179TIP3   OH224951   6.518   3.591   0.017  0.1690 -0.3661  0.0531
 1179TIP3    H124952   6.426   3.576  -0.005  0.5233 -0.3552 -1.5884
 1179TIP3    H224953   6.552   3.643  -0.056  1.3514  0.0996  0.9003
 1180TIP3   OH224954   0.121   3.625  13.693  0.2658 -0.4614  0.7412
 1180TIP3    H124955   0.080   3.552  13.739  0.5194 -2.1544 -1.5488
 1180TIP3    H224956   0.049   3.684  13.672 -0.2076 -0.8944  1.1157
 1181TIP3   OH224957   5.425   1.113  13.350 -0.3516  0.0605  0.3077
 1181TIP3    H124958   5.485   1.187  13.338  0.0437 -0.1810  0.7579
 1181TIP3    H224959   5.464   1.063  13.421  0.6124 -1.8377 -1.4527
 1182TIP3   OH224960   1.646   4.748   3.407 -0.2866 -0.2512 -0.4198
 1182TIP3    H124961   1.566   4.710   3.370  0.5199 -1.4739 -0.9801
 1182TIP3    H224962   1.669   4.819   3.347 -0.7153 -0.1702 -0.4899
 1183TIP3   OH224963   1.014   2.286   3.310 -0.0945 -0.2116  0.0490
 1183TIP3    H124964   0.965   2.368   3.317 -0.2972 -0.3383  0.1057
 1183TIP3    H224965   1.051   2.288   3.221 -1.6462 -0.9179 -0.6521
 1184TIP3   OH224966   0.006   4.387  12.948  0.2253 -0.5003 -0.9818
 1184TIP3    H124967  -0.078   4.397  12.993  0.9600  1.5861  0.0847
 1184TIP3    H224968   0.038   4.477  12.937  2.1714 -1.2204 -1.6242
 1185TIP3   OH224969   5.050   5.282   0.122 -0.0623 -0.1254  0.1464
 1185TIP3    H124970   5.085   5.213   0.066 -1.0787 -1.1645  0.7602
 1185TIP3    H224971   5.058   5.247   0.211 -2.0494 -0.1344  0.3521
 1186TIP3   OH224972   1.029   3.691  11.480  0.3109  0.5176 -0.6065
 1186TIP3    H124973   1.106   3.691  11.422  0.2325 -1.2914 -0.7643
 1186TIP3    H224974   0.958   3.659  11.425 -0.2565  0.8459 -0.0759
 1187TIP3   OH224975   0.791   6.050   2.934 -0.2872 -0.3432  0.2868
 1187TIP3    H124976   0.854   5.986   2.967 -0.0241  0.6911  1.8820
 1187TIP3    H224977   0.844   6.116   2.890 -0.2293  0.4545  1.5086
 1188TIP3   OH224978   5.908   5.597   1.538  0.2044  0.0542 -0.1747
 1188TIP3    H124979   5.939   5.541   1.466  0.6773  1.6498 -1.2754
 1188TIP3    H224980   5.815   5.611   1.519  0.0870 -0.3586  0.0980
 1189TIP3   OH224981   3.252   1.994  15.138  0.2448 -0.0395  0.5043
 1189TIP3    H124982   3.201   2.032  15.066  0.1869 -0.6978  0.1989
 1189TIP3    H224983   3.269   2.069  15.196 -2.4556 -0.0395  1.4608
 1190TIP3   OH224984   1.509   1.980   4.206  0.0947 -0.2877  0.1872
 1190TIP3    H124985   1.441   1.969   4.139  0.3075 -0.1746 -0.0444
 1190TIP3    H224986   1.464   1.960   4.289 -0.3551  0.2849  0.0877
 1191TIP3   OH224987   0.679   4.665   3.466  0.5030  0.1622 -0.3701
 1191TIP3    H124988   0.712   4.664   3.376  1.3888  0.7227 -0.0756
 1191TIP3    H224989   0.739   4.606   3.513 -0.0626 -0.2638 -0.1810
 1192TIP3   OH224990   5.704   4.768  11.142 -0.5904  0.2444 -0.2642
 1192TIP3    H124991   5.627   4.730  11.099 -0.0099 -1.1899 -0.0793
 1192TIP3    H224992   5.753   4.693  11.175  0.0773  1.2126  1.0371
 1193TIP3   OH224993   4.739   4.830  12.739 -0.2999 -0.1377 -0.3430
 1193TIP3    H124994   4.788   4.817  12.658  0.0496  0.8043 -0.2979
 1193TIP3    H224995   4.806   4.832  12.808 -0.4993  0.0196 -0.1495
 1194TIP3   OH224996   5.681   4.118   0.261 -0.7075  0.0472 -0.2894
 1194TIP3    H124997   5.677   4.080   0.349 -0.8174 -1.7411 -1.0293
 1194TIP3    H224998   5.762   4.168   0.260 -0.9639  0.5395  0.9785
 1195TIP3   OH224999   4.884   6.176   3.467 -0.5195  0.5944  0.4647
 1195TIP3    H125000   4.940   6.124   3.409 -0.4876  1.9746 -0.7991
 1195TIP3    H225001   4.795   6.154   3.438 -0.5000  1.3991 -0.2560
 1196TIP3   OH225002   0.141   3.744   0.077 -0.2460 -0.1143 -0.2810
 1196TIP3    H125003   0.165   3.779  -0.008  1.7070 -1.2034 -0.2314
 1196TIP3    H225004   0.189   3.799   0.140 -2.6584  1.5175  0.2849
 1197TIP3   OH225005   3.555   2.503   2.726 -0.0762 -0.1633  0.1406
 1197TIP3    H125006   3.650   2.517   2.719 -0.3177  1.3602 -0.4245
 1197TIP3    H225007   3.536   2.515   2.819 -0.0769  2.3943 -0.1180
 1198TIP3   OH225008   5.965   0.819  14.712 -0.0753  0.3752  0.3489
 1198TIP3    H125009   6.026   0.838  14.783 -0.1012 -0.5036  0.6106
 1198TIP3    H225010   5.958   0.724  14.710  0.5741  0.3278 -1.3697
 1199TIP3   OH225011   1.083   1.417   6.324 -0.0305 -0.5607 -0.1688
 1199TIP3    H125012   1.023   1.489   6.345  0.9343  0.3058 -0.2903
 1199TIP3    H225013   1.164   1.461   6.298  0.4137 -1.6995 -0.7468
 1200TIP3   OH225014   4.966   2.648  11.138  0.0035 -0.0561 -0.2185
 1200TIP3    H125015   5.002   2.560  11.142  0.2632 -0.0091 -1.2323
 1200TIP3    H225016   4.895   2.641  11.074  0.5639  0.6426 -0.9340
 1201TIP3   OH225017   2.778   0.140   2.446 -0.2223 -0.0049  0.5518
 1201TIP3    H125018   2.782   0.234   2.430 -1.2663 -0.0082  0.2483
 1201TIP3    H225019   2.837   0.103   2.380 -0.5281  0.3662  0.0642
 1202TIP3   OH225020   4.146   6.110  12.598  0.3933 -0.0404 -0.5069
 1202TIP3    H125021   4.103   6.195  12.605 -0.6297 -0.5234 -0.6778
 1202TIP3    H225022   4.150   6.078  12.688 -0.1718 -0.2566 -0.5544
 1203TIP3   OH225023   3.965   4.945   0.173  0.0361 -0.5129  0.1203
 1203TIP3    H125024   3.930   5.031   0.151 -1.2524 -0.9923  0.2018
 1203TIP3    H225025   3.977   4.901   0.088  1.0105 -0.1570  0.0573
 1204TIP3   OH225026   5.825   1.011   3.591 -0.3713  0.0251 -0.0489
 1204TIP3    H125027   5.746   1.027   3.540  0.2428  1.7279 -0.5245
 1204TIP3    H225028   5.897   1.021   3.529  0.2774 -0.9175  0.5115
 1205TIP3   OH225029   4.041   0.891   1.497  0.0868 -0.3270  0.2247
 1205TIP3    H125030   3.991   0.905   1.416 -1.0416 -1.5502  0.6823
 1205TIP3    H225031   4.123   0.937   1.482 -0.6936  0.7261 -1.0334
 1206TIP3   OH225032   1.323   6.703   5.757 -0.2470 -0.0225 -0.6791
 1206TIP3    H125033   1.361   6.693   5.670  1.0573 -0.1715 -0.1192
 1206TIP3    H225034   1.300   6.796   5.763 -0.3072 -0.0039 -1.1527
 1207TIP3   OH225035   6.016   1.689   4.950  0.4651 -0.9127 -0.5837
 1207TIP3    H125036   6.030   1.703   5.044  1.7545 -2.7510 -0.4540
 1207TIP3    H225037   6.034   1.775   4.911  0.0130 -0.1418  0.8118
 1208TIP3   OH225038   0.435   5.852   5.513 -0.4137  0.5633 -0.4598
 1208TIP3    H125039   0.488   5.832   5.436 -1.2051 -0.5700 -0.7412
 1208TIP3    H225040   0.492   5.905   5.569  0.9568 -0.4705 -0.8198
 1209TIP3   OH225041   1.981   3.955  15.545  0.1376 -0.1718 -0.0396
 1209TIP3    H125042   2.070   3.987  15.531  0.4409 -1.0776 -0.2693
 1209TIP3    H225043   1.992   3.878  15.601 -0.5918  0.2326  0.6877
 1210TIP3   OH225044   2.662   5.227   3.504 -0.4911 -1.0101 -0.3605
 1210TIP3    H125045   2.603   5.257   3.434 -1.2694  0.1527  0.7475
 1210TIP3    H225046   2.689   5.308   3.549  0.8853 -1.6387  0.0066
 1211TIP3   OH225047   3.279   0.588   3.659  0.1799  0.0242 -0.4572
 1211TIP3    H125048   3.219   0.652   3.699  0.2463 -0.0678 -0.2073
 1211TIP3    H225049   3.287   0.519   3.726 -0.3932 -0.5555 -0.9709
 1212TIP3   OH225050   4.094   6.478  10.194  0.6301 -0.3310  0.1093
 1212TIP3    H125051   4.160   6.416  10.163  0.6876 -1.1191  1.7342
 1212TIP3    H225052   4.042   6.429  10.257  1.0553  1.4363  1.9287
 1213TIP3   OH225053   0.511   4.708  15.647  0.1263 -0.2463 -0.1926
 1213TIP3    H125054   0.483   4.647  15.715 -1.8302  0.1602 -0.5829
 1213TIP3    H225055   0.430   4.739  15.607  1.1255  1.6069 -0.9008
 1214TIP3   OH225056   0.261   4.763   4.807 -0.5124 -0.3602  0.1085
 1214TIP3    H125057   0.312   4.748   4.727  0.9481 -0.6521  1.0575
 1214TIP3    H225058   0.241   4.857   4.806  1.4848  0.1178  0.4948
 1215TIP3   OH225059   5.972   4.334  14.578  0.0205  0.3430 -0.5044
 1215TIP3    H125060   5.978   4.365  14.488  0.8649  0.6207 -0.3616
 1215TIP3    H225061   5.965   4.239  14.570  1.3496  0.2521 -0.8473
 1216TIP3   OH225062   0.610   6.314  12.367  0.1234 -0.3987 -0.2316
 1216TIP3    H125063   0.526   6.337  12.327  0.2817  0.7969  0.0682
 1216TIP3    H225064   0.587   6.283  12.455  0.0409  0.9653  0.2541
 1217TIP3   OH225065   6.018   0.428  13.309  0.0653 -0.0726  0.0766
 1217TIP3    H125066   6.069   0.359  13.351  0.1063 -0.9040 -1.2847
 1217TIP3    H225067   5.927   0.398  13.314 -0.0309  0.2541  0.3548
 1218TIP3   OH225068   0.973   1.240  16.735  0.1990 -0.8443  0.2831
 1218TIP3    H125069   0.916   1.200  16.670 -0.5604  1.2765 -0.4280
 1218TIP3    H225070   1.048   1.180  16.740 -0.8498 -2.3220 -0.7001
 1219TIP3   OH225071   4.065   4.299  14.913 -0.3947 -0.1863  0.0366
 1219TIP3    H125072   3.976   4.300  14.948 -0.6103 -1.6504 -0.3770
 1219TIP3    H225073   4.088   4.206  14.912  1.0523  0.1600 -0.0915
 1220TIP3   OH225074   4.188   4.342   2.765  0.1138 -0.1898 -0.0791
 1220TIP3    H125075   4.260   4.398   2.794  1.5406 -1.1311 -1.6343
 1220TIP3    H225076   4.201   4.334   2.671 -1.7231 -0.8476 -0.3049
 1221TIP3   OH225077   3.594   1.221   2.738  0.2231 -0.1811 -0.6305
 1221TIP3    H125078   3.618   1.313   2.747  1.1922 -0.5261  0.4931
 1221TIP3    H225079   3.625   1.197   2.651 -1.1611  0.8582 -1.4556
 1222TIP3   OH225080   3.328   6.094   3.566 -0.8074  0.2254 -0.0035
 1222TIP3    H125081   3.419   6.079   3.538  0.2200  4.1971  0.5826
 1222TIP3    H225082   3.325   6.057   3.654  0.4478  0.4813  0.1784
 1223TIP3   OH225083   1.428   2.654  14.348  0.0274 -0.1346 -0.2237
 1223TIP3    H125084   1.491   2.701  14.293  0.9198 -0.1117  0.7708
 1223TIP3    H225085   1.394   2.721  14.407  0.2749 -0.4447  0.2861
 1224TIP3   OH225086   3.077   5.121   3.583 -0.3424 -0.2052 -0.4260
 1224TIP3    H125087   3.126   5.045   3.552 -0.3431 -0.1913 -0.4612
 1224TIP3    H225088   3.097   5.127   3.676 -0.8420 -0.6243 -0.2871
 1225TIP3   OH225089   2.153   0.552  14.155  0.1851  0.6760  0.4545
 1225TIP3    H125090   2.135   0.461  14.177  2.7538 -0.4397 -1.5492
 1225TIP3    H225091   2.163   0.595  14.240  0.9902 -1.3997  1.4981
 1226TIP3   OH225092   4.087   1.551   3.221 -0.1407  0.1543 -0.7564
 1226TIP3    H125093   4.000   1.590   3.215 -0.9106 -1.6358 -2.5622
 1226TIP3    H225094   4.076   1.479   3.284  0.0044 -0.0887 -1.0044
 1227TIP3   OH225095   1.575   1.906  14.520  0.4656  0.1890 -0.2868
 1227TIP3    H125096   1.643   1.845  14.490 -0.8791 -1.9480  0.7925
 1227TIP3    H225097   1.497   1.881  14.470 -0.8759 -1.0150  2.2623
 1228TIP3   OH225098   6.116   0.425   2.232  0.5821  0.4106  0.4183
 1228TIP3    H125099   6.061   0.498   2.261  2.0752  1.3033  1.1471
 1228TIP3    H225100   6.055   0.356   2.209 -0.8560  0.5127  3.3983
 1229TIP3   OH225101   3.431   3.686   5.068  0.3865  0.5247 -0.1083
 1229TIP3    H125102   3.354   3.739   5.088 -0.2525 -0.3365 -0.2121
 1229TIP3    H225103   3.450   3.639   5.149  0.4396  0.2921 -0.2555
 1230TIP3   OH225104   1.278   1.480  15.452 -0.0597 -0.5641 -0.1648
 1230TIP3    H125105   1.248   1.566  15.482  1.5031  0.5503 -1.6103
 1230TIP3    H225106   1.319   1.441  15.529 -1.1505 -0.2265  0.6242
 1231TIP3   OH225107   3.675   3.225   2.162  0.6135 -0.3393  0.1377
 1231TIP3    H125108   3.627   3.304   2.136 -1.5507 -1.7065 -0.3055
 1231TIP3    H225109   3.761   3.234   2.121 -0.1677  0.9896 -1.3160
 1232TIP3   OH225110   0.103   3.273  10.891  0.3617  0.1357 -0.0103
 1232TIP3    H125111   0.085   3.361  10.858 -0.4020 -0.2102 -0.5443
 1232TIP3    H225112   0.143   3.227  10.817  2.5748  0.5768  0.8386
 1233TIP3   OH225113   4.855   1.643  11.366 -0.0706  0.1330  0.0048
 1233TIP3    H125114   4.920   1.691  11.315 -0.1188 -0.1495 -0.3287
 1233TIP3    H225115   4.897   1.559  11.384 -0.3071 -0.0130 -0.1282
 1234TIP3   OH225116   6.026   6.477   0.522 -0.5272  0.4801 -0.4563
 1234TIP3    H125117   5.955   6.470   0.585 -0.2710 -1.8392 -0.3492
 1234TIP3    H225118   6.106   6.478   0.574 -0.3763  0.4834 -0.6832
 1235TIP3   OH225119   5.672   3.879   5.029 -0.0995 -0.0290 -0.0628
 1235TIP3    H125120   5.651   3.940   5.099  1.8704 -0.5959  1.1083
 1235TIP3    H225121   5.664   3.793   5.069 -1.9546 -0.5717 -1.4465
 1236TIP3   OH225122   6.028   6.445   5.658 -0.2598 -0.8253  0.6210
 1236TIP3    H125123   5.965   6.452   5.730 -0.4070  0.6140  0.3810
 1236TIP3    H225124   6.039   6.535   5.626  2.1821 -0.9508  0.8758
 1237TIP3   OH225125   3.689   2.753  14.302  0.1124 -0.0507 -0.7293
 1237TIP3    H125126   3.773   2.707  14.297 -0.6926 -1.7912  0.5667
 1237TIP3    H225127   3.627   2.694  14.259 -0.7320  0.4259 -0.1917
 1238TIP3   OH225128   5.377   6.307  16.992 -0.4342 -0.0646 -0.2192
 1238TIP3    H125129   5.386   6.375  16.925 -1.1716 -0.1550 -0.4228
 1238TIP3    H225130   5.359   6.355  17.073 -0.8997 -0.0060 -0.3535
 1239TIP3   OH225131   4.339   4.422  11.799 -0.6938 -0.0330 -0.8473
 1239TIP3    H125132   4.294   4.338  11.791 -0.3128 -0.1719 -1.6993
 1239TIP3    H225133   4.429   4.404  11.773 -0.6123  0.6428 -1.0695
 1240TIP3   OH225134   5.781   4.799   1.980  0.0039 -0.1465 -0.5730
 1240TIP3    H125135   5.852   4.836   1.927  1.4063 -0.1388  1.2119
 1240TIP3    H225136   5.717   4.769   1.916  2.8372 -2.7143 -2.4999
 1241TIP3   OH225137   5.412   1.612   1.616  0.7523 -0.3082  0.0596
 1241TIP3    H125138   5.361   1.605   1.696  1.4773  0.2087  0.5822
 1241TIP3    H225139   5.496   1.649   1.644  0.5799  1.0753 -1.1018
 1242TIP3   OH225140   6.578   4.557   1.545  0.0732  0.0214 -0.1770
 1242TIP3    H125141   6.538   4.523   1.466  0.3138  0.2368 -0.3962
 1242TIP3    H225142   6.670   4.569   1.521 -0.2245  2.0209 -0.5282
 1243TIP3   OH225143   4.482   6.749   5.801 -0.4729 -0.3295  0.0026
 1243TIP3    H125144   4.484   6.683   5.732  1.3579 -0.4356  0.1237
 1243TIP3    H225145   4.550   6.721   5.863 -0.5586  0.9766  0.7085
 1244TIP3   OH225146   4.396   0.751   4.282  0.0077 -0.2630  0.6976
 1244TIP3    H125147   4.446   0.778   4.360 -0.9238  1.0623  0.8788
 1244TIP3    H225148   4.340   0.680   4.313 -0.0433 -0.0357  1.1427
 1245TIP3   OH225149   6.159   3.570   3.871  0.0120  0.1295  0.2675
 1245TIP3    H125150   6.149   3.548   3.778  0.2920  1.0136  0.0144
 1245TIP3    H225151   6.166   3.665   3.872  2.4843  0.0246  0.9216
 1246TIP3   OH225152   4.572   0.110  16.661 -0.5152 -0.3608 -0.2647
 1246TIP3    H125153   4.508   0.173  16.695  0.5271  0.2165  0.7061
 1246TIP3    H225154   4.528   0.025  16.669 -1.1789  0.0262  0.3566
 1247TIP3   OH225155   4.202   2.132  16.471 -0.0924 -0.0302 -0.2435
 1247TIP3    H125156   4.238   2.178  16.546  0.4155 -0.1706 -0.3994
 1247TIP3    H225157   4.269   2.068  16.447  0.1145  0.5825 -1.3380
 1248TIP3   OH225158   4.457   0.379   5.442  0.0943  0.0751 -0.1364
 1248TIP3    H125159   4.490   0.467   5.424 -0.1137  0.2893  0.5248
 1248TIP3    H225160   4.453   0.373   5.537  1.7624 -1.2531 -0.0850
 1249TIP3   OH225161   5.569   5.844   5.969 -0.0560 -0.1153 -0.0650
 1249TIP3    H125162   5.515   5.922   5.986  0.7142  0.9813 -2.2415
 1249TIP3    H225163   5.581   5.804   6.055 -1.1211  1.7379  1.0208
 1250TIP3   OH225164   5.806   1.395   0.576  0.3513  0.5846  0.4153
 1250TIP3    H125165   5.835   1.359   0.660 -0.2583  0.3544  0.5373
 1250TIP3    H225166   5.809   1.321   0.515  2.7983  1.2111 -0.3127
 1251TIP3   OH225167   3.381   4.831  13.663 -0.2423 -0.1466  0.5749
 1251TIP3    H125168   3.408   4.822  13.755 -0.1754 -2.2444  0.4000
 1251TIP3    H225169   3.442   4.895  13.627 -0.1657  0.6003  1.9405
 1252TIP3   OH225170   4.537   5.207   2.042  0.4723  0.0829  0.0658
 1252TIP3    H125171   4.510   5.156   1.965  0.2336  1.7883 -1.0408
 1252TIP3    H225172   4.513   5.297   2.020  1.8027  0.8348  1.5101
 1253TIP3   OH225173   1.245   4.083   4.174 -0.5081 -0.2218  0.2661
 1253TIP3    H125174   1.282   4.171   4.186  1.3492 -0.9848  0.5468
 1253TIP3    H225175   1.157   4.098   4.140  1.2100  1.8282 -4.1820
 1254TIP3   OH225176   4.316   0.661   2.432  0.2950  0.4840 -0.1499
 1254TIP3    H125177   4.372   0.645   2.509 -0.3170  2.6835  0.8270
 1254TIP3    H225178   4.359   0.613   2.361  0.0123 -3.0286  1.8199
 1255TIP3   OH225179   1.984   5.603  17.320  0.5433 -0.3738  0.4880
 1255TIP3    H125180   1.922   5.677  17.321  0.4064 -0.4947  1.2551
 1255TIP3    H225181   1.937   5.532  17.364  0.4952 -1.0769 -0.6602
 1256TIP3   OH225182   6.398   1.190  16.534 -0.3549  0.1593 -0.7041
 1256TIP3    H125183   6.373   1.163  16.622  1.7726 -0.7938 -0.3597
 1256TIP3    H225184   6.485   1.228  16.543 -0.8557  1.8441 -2.1323
 1257TIP3   OH225185   4.753   5.146  16.123 -0.3959 -0.0166 -0.0214
 1257TIP3    H125186   4.663   5.149  16.156 -0.8483  0.2462 -1.2119
 1257TIP3    H225187   4.756   5.215  16.057  1.0945  0.8911  0.9626
 1258TIP3   OH225188   3.776   0.241  13.931 -0.1275 -0.2633 -0.3824
 1258TIP3    H125189   3.731   0.317  13.968  0.2886  0.4264 -1.2697
 1258TIP3    H225190   3.864   0.245  13.967  1.0019  1.6946 -3.0637
 1259TIP3   OH225191   1.633   2.588   3.591  0.4827  0.0419 -0.2004
 1259TIP3    H125192   1.577   2.596   3.513  0.2695 -0.3272 -0.0828
 1259TIP3    H225193   1.592   2.646   3.655 -1.4351 -2.3534  0.8666
 1260TIP3   OH225194   4.249   2.923   0.217  0.4310  0.4286 -0.5465
 1260TIP3    H125195   4.196   2.945   0.140 -0.6618 -0.0794  0.0510
 1260TIP3    H225196   4.247   2.827   0.220 -0.2467  0.4641  0.5924
 1261TIP3   OH225197   0.597   5.948  12.854  0.2451  0.0800 -0.1500
 1261TIP3    H125198   0.614   6.042  12.853 -1.0026  0.3250 -0.0905
 1261TIP3    H225199   0.527   5.936  12.790  0.2609 -0.7788 -0.0150
 1262TIP3   OH225200   3.440   4.149  12.169 -0.3894  0.0704 -0.4013
 1262TIP3    H125201   3.522   4.152  12.120 -0.8099 -0.5182 -1.1728
 1262TIP3    H225202   3.395   4.071  12.136 -1.2147  0.3298  0.0718
 1263TIP3   OH225203   1.695   4.235   0.948 -0.2148  0.2540 -0.0353
 1263TIP3    H125204   1.737   4.166   0.999  1.0109  1.2523  0.3681
 1263TIP3    H225205   1.616   4.195   0.914 -0.3495 -0.8806  1.4855
 1264TIP3   OH225206   4.217   0.304  12.882  0.5439  0.1749 -0.5672
 1264TIP3    H125207   4.185   0.365  12.816 -3.0377 -0.7966  0.0387
 1264TIP3    H225208   4.194   0.344  12.965  2.1198 -0.0707  0.0206
 1265TIP3   OH225209   0.950   4.965  17.233  0.2683  0.0491 -0.3241
 1265TIP3    H125210   0.953   5.045  17.180 -1.2371  0.6611  0.4479
 1265TIP3    H225211   1.040   4.953  17.263  0.6941  0.9533 -1.1624
 1266TIP3   OH225212   0.180   6.098  11.093  0.2556  0.2357  0.3298
 1266TIP3    H125213   0.181   6.025  11.030 -1.1873  1.6465 -1.4420
 1266TIP3    H225214   0.121   6.069  11.162  0.2412 -0.5413  0.0117
 1267TIP3   OH225215   6.087   6.518  10.743 -0.4457  0.1384 -0.2733
 1267TIP3    H125216   6.132   6.595  10.708  2.2813 -0.7810  0.8583
 1267TIP3    H225217   6.077   6.460  10.668  2.1284 -0.3791 -0.3359
 1268TIP3   OH225218   1.136   4.146   5.807  0.1612 -0.3813 -0.0199
 1268TIP3    H125219   1.110   4.054   5.802 -0.6933 -0.1502  0.0029
 1268TIP3    H225220   1.216   4.145   5.861 -1.0582 -0.8965  1.8658
 1269TIP3   OH225221   5.713   6.494   1.309  0.3974 -0.3448 -0.3397
 1269TIP3    H125222   5.782   6.480   1.375 -1.6180  0.6437  2.1652
 1269TIP3    H225223   5.644   6.433   1.334 -0.7819  0.6963 -0.9469
 1270TIP3   OH225224   0.255   0.465   5.488  0.0434  0.3073  0.5856
 1270TIP3    H125225   0.163   0.491   5.494  0.3410  1.2585  1.2642
 1270TIP3    H225226   0.303   0.547   5.477  0.9760  0.0635  2.3396
 1271TIP3   OH225227   0.717   4.345  17.043  0.1178  0.1611  0.4479
 1271TIP3    H125228   0.806   4.339  17.010 -0.0615 -1.6166  0.1752
 1271TIP3    H225229   0.719   4.300  17.128 -0.1898  1.5637  1.2351
 1272TIP3   OH225230   3.131   0.039  13.261 -0.3538  0.8424 -0.7344
 1272TIP3    H125231   3.185   0.116  13.279  0.4048 -0.1006  1.3440
 1272TIP3    H225232   3.066   0.039  13.331 -1.1837  0.3186 -1.4937
 1273TIP3   OH225233   0.569   6.615   5.094 -0.1934 -0.1276  0.1337
 1273TIP3    H125234   0.646   6.631   5.039 -0.1332  0.3053  0.3354
 1273TIP3    H225235   0.503   6.582   5.034  0.2999 -0.9794  0.0401
 1274TIP3   OH225236   3.888   4.445   4.024  0.1479  0.0511  0.0267
 1274TIP3    H125237   3.866   4.375   3.963  0.5070  1.9078 -2.4007
 1274TIP3    H225238   3.982   4.436   4.038 -0.2068 -1.4372  1.8279
 1275TIP3   OH225239   4.640   2.486  12.696  0.2129  0.8758 -0.2445
 1275TIP3    H125240   4.690   2.418  12.741  0.9302  1.1140 -0.6664
 1275TIP3    H225241   4.582   2.437  12.636  0.5421  0.6282 -0.3634
 1276TIP3   OH225242   2.790   3.846   0.615  0.4929 -0.4291 -0.2504
 1276TIP3    H125243   2.784   3.864   0.709 -0.0480 -0.4907 -0.2696
 1276TIP3    H225244   2.883   3.857   0.595  0.5086  0.2886  0.1495
 1277TIP3   OH225245   2.454   2.790   0.293  0.3176  0.0791  0.5076
 1277TIP3    H125246   2.378   2.735   0.311  1.8809 -3.2483 -1.9665
 1277TIP3    H225247   2.519   2.764   0.358  0.6350 -0.0377  0.1458
 1278TIP3   OH225248   3.975   6.360   2.329 -0.0750 -0.0885  0.6597
 1278TIP3    H125249   3.968   6.449   2.294 -0.6738  0.5012  2.1941
 1278TIP3    H225250   4.069   6.342   2.330 -0.0073  0.0856 -0.6651
 1279TIP3   OH225251   6.489   4.160   5.901  0.5463  0.2918  0.4610
 1279TIP3    H125252   6.538   4.101   5.844 -1.3878 -0.6551 -0.3025
 1279TIP3    H225253   6.397   4.143   5.880 -0.1184  2.4712  1.3494
 1280TIP3   OH225254   2.682   5.755  13.083 -0.1779 -0.2087  0.7414
 1280TIP3    H125255   2.658   5.677  13.132 -0.8008 -0.1330  0.5646
 1280TIP3    H225256   2.763   5.786  13.124 -1.5575  0.8245  2.8372
 1281TIP3   OH225257   3.566   2.711  15.503 -0.0841  0.0874  0.0022
 1281TIP3    H125258   3.569   2.806  15.495 -1.4215  0.2725  1.2609
 1281TIP3    H225259   3.473   2.689  15.496  0.0680 -0.9869  1.0137
 1282TIP3   OH225260   2.732   3.295  13.863  0.2582 -0.5487  0.0956
 1282TIP3    H125261   2.791   3.258  13.928 -0.9136 -0.1075  1.4495
 1282TIP3    H225262   2.647   3.300  13.906 -0.3343  0.7249 -1.1060
 1283TIP3   OH225263   2.933   5.720  11.796 -0.3716 -0.0338 -0.1842
 1283TIP3    H125264   2.922   5.628  11.821 -0.8251 -0.0829 -0.5341
 1283TIP3    H225265   2.870   5.732  11.725 -0.0656  0.4580 -0.3719
 1284TIP3   OH225266   1.648   1.482  11.118  0.1144  0.2547 -0.4630
 1284TIP3    H125267   1.728   1.532  11.102  0.6704 -1.1232 -2.3413
 1284TIP3    H225268   1.663   1.439  11.202  0.6516  1.2350 -0.0355
 1285TIP3   OH225269   5.996   1.908   4.260  0.1389  0.2293  0.5467
 1285TIP3    H125270   5.998   1.871   4.172 -0.0571 -1.2938  1.1574
 1285TIP3    H225271   6.088   1.913   4.287  0.2363  1.1573  0.1010
 1286TIP3   OH225272   5.711   1.281  11.941 -0.0103 -0.3268 -0.7494
 1286TIP3    H125273   5.629   1.232  11.928 -0.4168 -0.2992  1.3506
 1286TIP3    H225274   5.720   1.334  11.862 -0.9932 -1.7429 -1.8846
 1287TIP3   OH225275   3.844   2.844  14.932  0.7228 -0.2812  0.0018
 1287TIP3    H125276   3.793   2.833  14.852  1.2373 -1.3172 -0.2056
 1287TIP3    H225277   3.796   2.796  14.999  0.5083  0.2354  0.2203
 1288TIP3   OH225278   2.092   5.849   0.966 -0.1673  0.5467  0.2329
 1288TIP3    H125279   2.058   5.810   0.885  0.0309  0.4283  0.2066
 1288TIP3    H225280   2.178   5.808   0.978 -0.0478  0.8232  0.3172
 1289TIP3   OH225281   2.151   2.800  16.799 -0.2677 -0.2420 -0.1891
 1289TIP3    H125282   2.235   2.793  16.752 -0.2435  0.1486 -0.2023
 1289TIP3    H225283   2.103   2.868  16.752  1.5651  3.7161  3.0959
 1290TIP3   OH225284   2.909   2.379  17.105  0.0070 -0.3184  0.6731
 1290TIP3    H125285   2.861   2.459  17.128 -0.6371 -0.6038  0.3255
 1290TIP3    H225286   2.841   2.314  17.087  0.5126 -1.2280  1.8880
 1291TIP3   OH225287   4.502   1.812  16.167  0.1775  0.3710 -0.2387
 1291TIP3    H125288   4.443   1.853  16.230 -0.1319 -0.7187  0.2038
 1291TIP3    H225289   4.444   1.770  16.103  0.4879  1.3699 -1.2026
 1292TIP3   OH225290   1.083   4.188   6.559 -0.0841  0.0542 -0.2136
 1292TIP3    H125291   1.109   4.281   6.556 -0.3010  0.1661  0.9184
 1292TIP3    H225292   0.998   4.188   6.603 -0.7001 -0.5791 -1.3597
 1293TIP3   OH225293   1.024   6.715  12.421  0.2276 -0.0220 -0.2608
 1293TIP3    H125294   1.090   6.696  12.488 -1.8259  1.7632  2.4841
 1293TIP3    H225295   0.969   6.637  12.418  1.0241 -0.5772 -0.7971
 1294TIP3   OH225296   2.767   5.833   0.318  0.4937  0.1842 -0.2781
 1294TIP3    H125297   2.754   5.748   0.276 -1.1678  0.1433  0.2681
 1294TIP3    H225298   2.704   5.890   0.276  0.7599  0.8546  0.2190
 1295TIP3   OH225299   3.544   6.575  11.360  0.2816  0.0246  0.3639
 1295TIP3    H125300   3.556   6.501  11.300  0.7192  1.1151 -0.9456
 1295TIP3    H225301   3.628   6.621  11.359  0.0137  0.5528  1.1462
 1296TIP3   OH225302   4.987   6.103  17.104 -0.5343  0.2724  0.4189
 1296TIP3    H125303   5.065   6.052  17.128 -0.1639  0.4190 -0.4283
 1296TIP3    H225304   4.968   6.076  17.014 -2.5631 -1.1182  1.1944
 1297TIP3   OH225305   4.116   3.128  17.064  0.2777  0.3344 -0.0284
 1297TIP3    H125306   4.058   3.060  17.031  1.7473 -1.3031  0.6100
 1297TIP3    H225307   4.057   3.200  17.087 -1.3773 -0.8313 -0.3968
 1298TIP3   OH225308   2.463   1.860   3.285 -0.3515  0.2362  0.2675
 1298TIP3    H125309   2.498   1.948   3.267  0.7030 -0.0722  0.7629
 1298TIP3    H225310   2.528   1.800   3.249  0.6097 -0.3760  2.8045
 1299TIP3   OH225311   0.940   2.864  15.543  0.7574  0.3950  0.2162
 1299TIP3    H125312   0.947   2.780  15.497 -2.0225  1.1057 -1.7736
 1299TIP3    H225313   0.897   2.842  15.626  0.0893 -0.1871 -0.2651
 1300TIP3   OH225314   6.189   3.770  15.796 -0.3795  0.0894  0.2375
 1300TIP3    H125315   6.142   3.687  15.802 -0.9514  0.4318  0.5357
 1300TIP3    H225316   6.155   3.822  15.868 -0.0749  0.6122  0.0081
 1301TIP3   OH225317   5.193   1.014  12.784  0.1494  0.2383  0.3359
 1301TIP3    H125318   5.255   1.087  12.784 -1.1879  1.4473  0.8433
 1301TIP3    H225319   5.108   1.056  12.771 -0.6128 -1.3085  0.1160
 1302TIP3   OH225320   0.327   2.211   6.822  0.1855 -0.5682  0.4095
 1302TIP3    H125321   0.353   2.270   6.751 -1.6045 -0.5364 -0.2674
 1302TIP3    H225322   0.410   2.178   6.858  1.1487  0.3518 -0.8958
 1303TIP3   OH225323   0.624   2.869   6.050 -0.0062  0.3852  0.1924
 1303TIP3    H125324   0.605   2.830   5.964 -2.3452  0.4980  0.5989
 1303TIP3    H225325   0.676   2.803   6.095 -1.8574 -1.3054 -0.0103
 1304TIP3   OH225326   3.543   1.343  10.518  0.4453 -0.1202  0.1961
 1304TIP3    H125327   3.499   1.421  10.482 -0.4281 -0.9857 -0.6879
 1304TIP3    H225328   3.590   1.376  10.595 -0.3159  1.1852  0.1480
 1305TIP3   OH225329   4.380   6.730   3.589  0.1053 -0.1520 -0.3549
 1305TIP3    H125330   4.351   6.821   3.599  1.3261  0.3357 -1.0321
 1305TIP3    H225331   4.434   6.730   3.510 -0.2139 -1.5648 -0.6035
 1306TIP3   OH225332   6.276   1.607  15.359  0.5280 -0.3893  0.1951
 1306TIP3    H125333   6.217   1.557  15.303  2.0571 -1.1636 -0.7623
 1306TIP3    H225334   6.227   1.686  15.380 -0.5015 -0.5894 -1.3178
 1307TIP3   OH225335   1.647   2.598  12.721 -0.0309  0.1664 -0.0668
 1307TIP3    H125336   1.658   2.689  12.694 -0.6368 -0.1940 -1.6554
 1307TIP3    H225337   1.690   2.593  12.807 -0.6204  2.0997  0.3910
 1308TIP3   OH225338   4.293   3.886   6.875  0.1303  0.2783  0.1398
 1308TIP3    H125339   4.379   3.878   6.916  0.2070  0.8958  0.1120
 1308TIP3    H225340   4.268   3.796   6.853  0.4175  0.0195  0.8546
 1309TIP3   OH225341   2.314   0.737   4.196 -0.4851 -0.5619  0.0271
 1309TIP3    H125342   2.230   0.700   4.169 -0.4724 -0.3106 -0.3679
 1309TIP3    H225343   2.378   0.667   4.179 -0.5231 -0.5183 -0.2962
 1310TIP3   OH225344   2.133   5.539   3.831  0.1394  0.5059  0.3200
 1310TIP3    H125345   2.206   5.480   3.812  0.0946  0.3505  0.6192
 1310TIP3    H225346   2.161   5.624   3.797  0.3087  0.3666  0.1118
 1311TIP3   OH225347   3.419   1.334  14.786  0.0232  0.1098 -0.0916
 1311TIP3    H125348   3.470   1.378  14.855 -0.3292 -0.6084  0.6514
 1311TIP3    H225349   3.468   1.255  14.767 -0.2845 -0.0804 -0.1033
 1312TIP3   OH225350   1.888   4.910  17.031 -0.3492 -0.1818 -0.3934
 1312TIP3    H125351   1.795   4.913  17.056 -0.2037  1.1765  0.0486
 1312TIP3    H225352   1.912   5.001  17.017  0.8142 -0.5599 -0.9518
 1313TIP3   OH225353   4.120   0.739   3.418  0.5003 -0.5924  0.5648
 1313TIP3    H125354   4.186   0.750   3.486  1.9416 -2.1318 -0.4896
 1313TIP3    H225355   4.113   0.644   3.406 -0.2257 -0.3894 -0.9220
 1314TIP3   OH225356   2.575   2.270   1.625 -0.3015 -0.5871  0.1208
 1314TIP3    H125357   2.498   2.255   1.570 -0.1595  0.0879 -0.2727
 1314TIP3    H225358   2.541   2.319   1.700 -0.6570 -2.2520  1.1123
 1315TIP3   OH225359   1.284   2.767   5.454 -0.6138  0.1373  0.4835
 1315TIP3    H125360   1.313   2.677   5.470 -0.2392  0.3411  1.0175
 1315TIP3    H225361   1.347   2.821   5.503 -0.0514  0.7671 -0.8712
 1316TIP3   OH225362   0.144   5.223  16.186  0.2843  0.4709  0.5752
 1316TIP3    H125363   0.080   5.294  16.183  0.5761  0.8162  1.8171
 1316TIP3    H225364   0.102   5.150  16.140 -0.4500  1.1143  0.2044
 1317TIP3   OH225365   1.071   3.720   3.970  0.4496  0.3426 -0.2837
 1317TIP3    H125366   1.139   3.785   3.954 -1.8984  2.8005 -1.1040
 1317TIP3    H225367   1.035   3.744   4.055  0.6549 -0.9988  0.1956
 1318TIP3   OH225368   2.078   0.549  12.188  0.8726  0.7550  0.5903
 1318TIP3    H125369   2.036   0.610  12.248  0.8692  0.2272  1.1285
 1318TIP3    H225370   2.007   0.497  12.151  0.9985  0.1232  1.2105
 1319TIP3   OH225371   1.828   2.576  15.749  0.1273 -0.0536  0.0556
 1319TIP3    H125372   1.830   2.661  15.705 -0.7510 -0.0750 -0.0502
 1319TIP3    H225373   1.917   2.562  15.780  0.0923  1.2812  0.7874
 1320TIP3   OH225374   3.799   3.443  12.019  0.4245 -0.2083  0.1109
 1320TIP3    H125375   3.774   3.529  12.053  2.1845  0.4162 -0.0784
 1320TIP3    H225376   3.860   3.462  11.948  1.0164 -1.6204  0.2050
 1321TIP3   OH225377   2.480   5.584  16.880  0.1607 -0.2751 -0.2808
 1321TIP3    H125378   2.435   5.529  16.944  1.2846  0.1606  0.9320
 1321TIP3    H225379   2.546   5.527  16.842  0.9062  0.0314  0.5183
 1322TIP3   OH225380   3.609   3.788  15.148 -0.1609  0.5883  0.4178
 1322TIP3    H125381   3.658   3.718  15.106  0.9452  0.9196  1.1248
 1322TIP3    H225382   3.584   3.846  15.076  1.9294  1.2914  0.1910
 1323TIP3   OH225383   2.146   5.630   6.324  0.2431  0.8339 -0.4666
 1323TIP3    H125384   2.147   5.541   6.361  0.6266  0.9515 -0.1959
 1323TIP3    H225385   2.057   5.639   6.290  0.4940 -0.0176 -1.3946
 1324TIP3   OH225386   0.994   6.721  16.440 -0.1572 -0.1912 -0.0643
 1324TIP3    H125387   0.980   6.790  16.375 -0.3860  0.2210  0.4165
 1324TIP3    H225388   0.932   6.740  16.510  0.8526  0.0367  0.8028
 1325TIP3   OH225389   6.041   0.641  15.883 -0.0944 -0.0876  0.8395
 1325TIP3    H125390   5.947   0.635  15.868 -0.2812  0.4925  1.7159
 1325TIP3    H225391   6.050   0.661  15.976  0.7987  2.1120  0.3429
 1326TIP3   OH225392   5.648   2.879  15.280 -0.4590  0.0879  0.0102
 1326TIP3    H125393   5.647   2.800  15.333  2.2019 -0.2087 -0.2811
 1326TIP3    H225394   5.610   2.852  15.196  1.4871 -1.2576 -0.5032
 1327TIP3   OH225395   6.185   1.066   6.000  0.0444 -0.1993  0.2967
 1327TIP3    H125396   6.139   1.113   6.069 -0.1196  0.4098 -0.2168
 1327TIP3    H225397   6.166   0.973   6.017  0.0284 -0.0577  1.0718
 1328TIP3   OH225398   4.268   0.061  11.744 -0.2856  0.2214 -0.2888
 1328TIP3    H125399   4.337   0.004  11.709 -0.5409 -0.5708  0.4526
 1328TIP3    H225400   4.271   0.045  11.839 -1.8352 -0.2267 -0.2935
 1329TIP3   OH225401   1.165   1.057  13.419 -0.0515 -0.5395  0.3851
 1329TIP3    H125402   1.198   1.123  13.480  0.0872 -1.4180  1.2882
 1329TIP3    H225403   1.215   1.071  13.338  0.4853 -0.0083  0.8050
 1330TIP3   OH225404   4.677   3.565   0.675 -0.3912 -0.3236  0.1993
 1330TIP3    H125405   4.741   3.571   0.747  0.6021  0.7134 -0.7315
 1330TIP3    H225406   4.612   3.631   0.696  1.3862  2.0368 -1.2120
 1331TIP3   OH225407   6.551   3.440   2.288  0.0506 -0.0988  0.1887
 1331TIP3    H125408   6.547   3.528   2.325 -1.3059  0.3667 -0.9567
 1331TIP3    H225409   6.642   3.431   2.259  0.2915  0.7998  0.6269
 1332TIP3   OH225410   5.409   0.641  11.434 -0.2667  0.4267 -0.0213
 1332TIP3    H125411   5.390   0.671  11.345 -0.7526 -0.3952 -0.2029
 1332TIP3    H225412   5.502   0.618  11.433 -0.5854 -0.9532 -0.7348
 1333TIP3   OH225413   4.203   5.784  11.626  0.3398 -0.0136 -0.1847
 1333TIP3    H125414   4.160   5.844  11.688 -0.2199 -0.0475 -0.5360
 1333TIP3    H225415   4.280   5.832  11.596  0.8077 -0.1280  0.7910
 1334TIP3   OH225416   5.410   6.119   2.880 -0.3243  0.1393  1.0025
 1334TIP3    H125417   5.360   6.167   2.946 -0.9073 -1.8507  2.0933
 1334TIP3    H225418   5.501   6.132   2.904 -0.5064  0.0690  1.7589
 1335TIP3   OH225419   2.634   2.741  16.108  0.0292  0.3646 -0.0804
 1335TIP3    H125420   2.668   2.750  16.019  0.0010 -0.8013 -0.2216
 1335TIP3    H225421   2.567   2.810  16.115 -0.2999  0.1733 -1.1225
 1336TIP3   OH225422   0.348   1.669   4.961  0.2574  0.3824 -0.0226
 1336TIP3    H125423   0.385   1.604   5.021 -1.4067 -1.0206 -0.4297
 1336TIP3    H225424   0.298   1.728   5.018 -0.9375 -0.6751  0.0668
 1337TIP3   OH225425   5.448   0.147   3.309  0.2404  0.6487 -0.2313
 1337TIP3    H125426   5.447   0.225   3.364  1.2894  0.2312  0.4183
 1337TIP3    H225427   5.485   0.176   3.226  0.6076  0.8525 -0.0005
 1338TIP3   OH225428   2.058   2.719   3.992  0.4622 -0.0835  0.0109
 1338TIP3    H125429   2.029   2.765   3.913 -0.4245 -1.7347 -0.6739
 1338TIP3    H225430   2.093   2.788   4.048 -2.6569  1.7623 -0.0895
 1339TIP3   OH225431   2.506   4.484   3.060  0.3089 -0.5211  0.5116
 1339TIP3    H125432   2.420   4.500   3.023  0.2089 -0.9896  0.5418
 1339TIP3    H225433   2.509   4.539   3.139  0.5298  0.4845 -0.1825
 1340TIP3   OH225434   3.190   0.475   4.787  0.3921  0.3047 -0.7614
 1340TIP3    H125435   3.226   0.561   4.764  0.6557  0.3501 -0.2052
 1340TIP3    H225436   3.128   0.494   4.858  1.1800 -0.0677  0.0482
 1341TIP3   OH225437   0.601   5.186  11.245 -0.1264 -0.0781 -0.1514
 1341TIP3    H125438   0.695   5.187  11.266 -0.2622  1.0695  0.4484
 1341TIP3    H225439   0.598   5.174  11.150  0.6889  1.5486 -0.4128
 1342TIP3   OH225440   2.422   6.152   4.031  0.2460 -0.4557  0.9276
 1342TIP3    H125441   2.490   6.086   4.043  1.6375  0.5187 -0.9981
 1342TIP3    H225442   2.458   6.212   3.966 -1.8836  0.9387  0.9262
 1343TIP3   OH225443   1.600   0.521  14.434  0.2168 -0.3511  0.7912
 1343TIP3    H125444   1.691   0.543  14.453  0.3393 -0.7757  0.7179
 1343TIP3    H225445   1.563   0.601  14.396  1.2016 -0.8409 -1.3761
 1344TIP3   OH225446   1.369   4.391   0.356 -0.2586  0.0832 -0.3496
 1344TIP3    H125447   1.330   4.312   0.393 -1.4404  0.9864  0.3962
 1344TIP3    H225448   1.362   4.379   0.261 -1.3969 -0.2546 -0.2380
 1345TIP3   OH225449   1.165   6.606   4.653  0.5576 -0.7436 -0.1109
 1345TIP3    H125450   1.171   6.696   4.622 -0.5576 -1.3296 -2.2351
 1345TIP3    H225451   1.255   6.573   4.646  1.0396  0.2538  1.0040
 1346TIP3   OH225452   4.085   2.876   0.638 -0.0560  0.1791 -0.5541
 1346TIP3    H125453   4.109   2.920   0.557 -0.3761  1.3541 -0.0236
 1346TIP3    H225454   4.088   2.944   0.705 -0.1747 -0.6880  0.3577
 1347TIP3   OH225455   4.488   5.967   5.452  0.8941  0.2529 -0.4207
 1347TIP3    H125456   4.538   5.992   5.529 -1.2900 -0.1311  1.2095
 1347TIP3    H225457   4.553   5.964   5.381  3.5087 -1.9157  1.8444
 1348TIP3   OH225458   2.532   0.995  12.670 -0.5159  0.6710 -0.1041
 1348TIP3    H125459   2.543   1.085  12.701 -0.7961  0.8626 -0.5483
 1348TIP3    H225460   2.591   0.988  12.594 -0.8231  0.6209 -0.3416
 1349TIP3   OH225461   4.335   5.965  13.975  0.0682 -0.0521  0.1126
 1349TIP3    H125462   4.299   5.877  13.967  0.5910 -0.2447 -0.1749
 1349TIP3    H225463   4.353   5.976  14.069 -1.1860  0.2368  0.3400
 1350TIP3   OH225464   1.618   6.420  13.000  0.1887 -0.5212 -0.1911
 1350TIP3    H125465   1.538   6.368  12.993 -0.6859  0.8463 -0.8143
 1350TIP3    H225466   1.623   6.467  12.917  2.0072 -1.0436 -0.4224
 1351TIP3   OH225467   0.712   0.331  15.224 -0.5053 -0.2152  0.8549
 1351TIP3    H125468   0.745   0.244  15.246 -1.5869 -0.3976  1.8724
 1351TIP3    H225469   0.682   0.322  15.133  2.4606  0.0808 -0.2569
 1352TIP3   OH225470   1.254   3.794  15.277  0.5244  0.5251  0.0442
 1352TIP3    H125471   1.201   3.797  15.198  0.0665 -0.1480  0.3137
 1352TIP3    H225472   1.327   3.854  15.260 -0.1443  1.2047 -0.4598
 1353TIP3   OH225473   2.780   0.195   5.366  0.0619 -0.2165  0.0627
 1353TIP3    H125474   2.736   0.202   5.450 -0.2995  0.4121 -0.1698
 1353TIP3    H225475   2.870   0.225   5.383 -0.4651  1.5910 -0.1182
 1354TIP3   OH225476   3.892   4.162  12.573  1.3400  0.1317  0.7053
 1354TIP3    H125477   3.840   4.093  12.532 -0.2552  0.5315  1.9636
 1354TIP3    H225478   3.983   4.139  12.552  0.7561 -1.3523 -0.3885
 1355TIP3   OH225479   3.318   1.203   6.101 -0.0646  0.2219 -0.3773
 1355TIP3    H125480   3.279   1.166   6.180  0.5490  0.9089  0.2603
 1355TIP3    H225481   3.281   1.292   6.096 -2.2373 -0.6697 -2.3793
 1356TIP3   OH225482   5.979   3.344   2.817  0.3400  0.1798  0.0423
 1356TIP3    H125483   5.953   3.320   2.728  0.8435 -1.3583  0.2814
 1356TIP3    H225484   6.054   3.288   2.836  1.2657  1.6349  0.8600
 1357TIP3   OH225485   3.339   6.215   2.505  0.2674  0.2230  1.0086
 1357TIP3    H125486   3.414   6.214   2.565  0.8007 -1.5375  0.3861
 1357TIP3    H225487   3.303   6.303   2.513  4.3091  2.3376 -1.0447
 1358TIP3   OH225488   5.905   6.690   3.281 -0.5332  0.3486 -0.0257
 1358TIP3    H125489   5.961   6.615   3.303  0.3680  0.6032 -1.3424
 1358TIP3    H225490   5.853   6.659   3.207 -0.8534  0.7195  0.0434
 1359TIP3   OH225491   0.513   5.451  11.298 -0.1009 -0.3464 -0.7970
 1359TIP3    H125492   0.547   5.367  11.267 -2.3282 -1.4935 -0.3172
 1359TIP3    H225493   0.429   5.462  11.252 -0.9276  0.5025  0.8281
 1360TIP3   OH225494   5.258   4.529  13.908 -0.0079 -0.2501  0.3647
 1360TIP3    H125495   5.325   4.477  13.951 -1.7863 -0.9466  2.4703
 1360TIP3    H225496   5.287   4.535  13.817  1.8323 -2.2784  0.7328
 1361TIP3   OH225497   4.398   6.426   0.329  0.2546  0.2673  0.1948
 1361TIP3    H125498   4.428   6.515   0.313  0.4203  0.5855  2.0758
 1361TIP3    H225499   4.332   6.435   0.398  0.8326 -1.1311  0.9764
 1362TIP3   OH225500   4.607   5.119  14.887 -0.0246  0.4240 -0.5232
 1362TIP3    H125501   4.581   5.028  14.903  0.4567  0.4915  0.8339
 1362TIP3    H225502   4.528   5.170  14.903  0.2095  0.3995  0.9080
 1363TIP3   OH225503   6.608   6.287  17.175 -0.7008  0.3229 -0.2480
 1363TIP3    H125504   6.606   6.199  17.210 -0.3257 -0.1411 -1.3336
 1363TIP3    H225505   6.527   6.328  17.207 -0.4851 -0.1305  0.9242
 1364TIP3   OH225506   3.996   6.445  17.189  0.2759  0.2956  0.0529
 1364TIP3    H125507   4.081   6.404  17.174  0.8334  1.7662 -0.9744
 1364TIP3    H225508   3.959   6.458  17.102 -0.5964  0.5069  0.4433
 1365TIP3   OH225509   3.083   3.377  12.126  0.0213 -0.0767  0.2440
 1365TIP3    H125510   3.140   3.451  12.147  0.1952  0.8596 -2.9669
 1365TIP3    H225511   3.127   3.333  12.053 -1.6643 -1.4497 -0.0087
 1366TIP3   OH225512   5.492   4.954   5.943  0.1421  0.9253 -0.6630
 1366TIP3    H125513   5.442   4.890   5.994  0.4499  2.6896  2.0523
 1366TIP3    H225514   5.430   5.025   5.926  0.4006  0.9173 -1.7274
 1367TIP3   OH225515   4.292   3.307  12.603 -0.0726 -0.0212 -0.2137
 1367TIP3    H125516   4.342   3.229  12.627 -0.8694 -0.3246  0.4822
 1367TIP3    H225517   4.242   3.281  12.526  1.4883  0.5577 -1.4853
 1368TIP3   OH225518   6.082   5.713  16.028  0.3584 -0.3155 -0.5373
 1368TIP3    H125519   6.026   5.683  15.957 -0.5586 -1.5635  0.6664
 1368TIP3    H225520   6.042   5.678  16.107  1.8339  0.2995  0.5325
 1369TIP3   OH225521   0.799   2.809  17.180 -0.1293 -0.0448  0.3073
 1369TIP3    H125522   0.736   2.759  17.232  0.9402  0.7295  2.4505
 1369TIP3    H225523   0.883   2.796  17.224  0.5644  1.8958 -0.3180
 1370TIP3   OH225524   4.179   3.539  11.270 -0.7888 -0.0367  0.5834
 1370TIP3    H125525   4.193   3.577  11.183 -0.9494 -1.3498 -0.0394
 1370TIP3    H225526   4.200   3.446  11.259 -2.8125 -0.6583  1.4142
 1371TIP3   OH225527   3.747   0.125   4.816  0.1247 -0.4700  0.0068
 1371TIP3    H125528   3.806   0.196   4.843 -2.1791  0.7502  2.2755
 1371TIP3    H225529   3.720   0.149   4.727  0.1368  1.0094  0.3681
 1372TIP3   OH225530   4.536   2.661  16.620  0.4657  0.7381 -0.1278
 1372TIP3    H125531   4.531   2.754  16.641 -0.9104  0.4970  0.7536
 1372TIP3    H225532   4.456   2.623  16.657  1.2142 -0.8771 -0.0512
 1373TIP3   OH225533   5.318   0.256  12.901 -0.2768 -0.2940  0.2851
 1373TIP3    H125534   5.382   0.299  12.958  0.1813 -0.0678 -0.3890
 1373TIP3    H225535   5.297   0.322  12.834 -1.4365 -0.2593  0.6473
 1374TIP3   OH225536   4.921   2.166   0.466  0.3364  0.9959 -0.1473
 1374TIP3    H125537   4.977   2.091   0.446  0.6296  1.1609  0.0533
 1374TIP3    H225538   4.849   2.129   0.518  0.4795  0.8533 -0.0515
 1375TIP3   OH225539   1.420   2.103  15.981  0.0723 -0.0236 -0.2494
 1375TIP3    H125540   1.418   2.106  16.077  2.2853 -0.2971 -0.1474
 1375TIP3    H225541   1.486   2.038  15.960 -2.1099 -1.8040 -2.0434
 1376TIP3   OH225542   3.666   2.515   3.974  0.0658  0.6110  0.9375
 1376TIP3    H125543   3.615   2.439   3.945 -0.9389  1.9211 -0.9651
 1376TIP3    H225544   3.600   2.583   3.989  1.1500  2.3094 -1.4060
 1377TIP3   OH225545   5.010   3.058   3.192  0.7325 -0.4181 -0.8313
 1377TIP3    H125546   5.055   3.108   3.261 -1.0193 -0.6910  0.5795
 1377TIP3    H225547   4.964   3.125   3.141 -0.0386 -0.4066 -0.1390
 1378TIP3   OH225548   0.285   0.101   0.255 -0.0843 -0.0272  0.0835
 1378TIP3    H125549   0.371   0.081   0.217 -0.2479 -0.7276  0.0666
 1378TIP3    H225550   0.234   0.021   0.241  0.0631 -0.5928  2.3575
 1379TIP3   OH225551   3.024   0.558   1.758 -0.2029 -0.1067 -0.1216
 1379TIP3    H125552   3.022   0.473   1.714  1.2608 -0.3113  0.1498
 1379TIP3    H225553   3.078   0.543   1.836  0.2965  1.1243 -0.2130
 1380TIP3   OH225554   4.147   6.015  15.719  0.3377 -0.0060  0.2782
 1380TIP3    H125555   4.178   6.005  15.809  1.8205 -0.2311 -0.2244
 1380TIP3    H225556   4.124   6.108  15.712 -2.4219 -0.5031  1.6317
 1381TIP3   OH225557   5.610   6.682   2.249 -0.6112 -1.2350  0.1309
 1381TIP3    H125558   5.543   6.699   2.182 -1.2533  1.0416  1.2328
 1381TIP3    H225559   5.613   6.763   2.300  0.5660 -2.5344  2.2528
 1382TIP3   OH225560   1.916   1.636   1.011  0.2384  0.2566 -0.4625
 1382TIP3    H125561   1.829   1.599   0.999  0.7388 -1.4064  0.5656
 1382TIP3    H225562   1.976   1.564   0.988  1.3026  0.9814 -0.0510
 1383TIP3   OH225563   4.362   4.871  14.839  0.4866 -0.0304  0.0301
 1383TIP3    H125564   4.304   4.947  14.841 -0.8109 -0.9273 -1.3286
 1383TIP3    H225565   4.303   4.796  14.835  1.7402 -1.0667  0.4209
 1384TIP3   OH225566   0.605   4.088   0.473  0.0664 -0.4871 -0.2777
 1384TIP3    H125567   0.536   4.134   0.521  0.7399 -0.3940  0.6389
 1384TIP3    H225568   0.589   3.995   0.493 -0.1028 -0.5030 -0.4885
 1385TIP3   OH225569   2.887   3.381  15.751  0.0734  0.5453  0.2330
 1385TIP3    H125570   2.793   3.376  15.731  0.0220  0.8051  0.4134
 1385TIP3    H225571   2.909   3.473  15.739  0.6030  0.2626 -1.1458
 1386TIP3   OH225572   2.211   2.296   1.827 -0.3104 -0.2317  0.0691
 1386TIP3    H125573   2.196   2.286   1.921  1.7613  0.2729  0.5057
 1386TIP3    H225574   2.195   2.209   1.790 -1.6849 -0.3035  0.7729
 1387TIP3   OH225575   5.177   0.430   6.006  0.2519 -0.1016 -0.5765
 1387TIP3    H125576   5.220   0.357   6.051  1.4563  0.3401 -0.9722
 1387TIP3    H225577   5.085   0.423   6.031  0.9013  0.3551  2.2865
 1388TIP3   OH225578   0.563   3.986  16.827  0.1997  0.1870 -0.4582
 1388TIP3    H125579   0.611   4.064  16.800 -0.3731  0.7412  0.0885
 1388TIP3    H225580   0.489   3.982  16.767 -0.7963  1.1355  0.6492
 1389TIP3   OH225581   6.458   4.841  16.480 -0.2951 -0.3148  0.1485
 1389TIP3    H125582   6.460   4.936  16.475 -2.1448 -0.2600 -0.0959
 1389TIP3    H225583   6.407   4.813  16.404 -0.6775 -1.4385  0.7845
 1390TIP3   OH225584   1.593   1.081   4.040 -0.1395 -0.1939 -0.5095
 1390TIP3    H125585   1.548   1.041   4.114 -1.6898  0.0349 -1.2979
 1390TIP3    H225586   1.590   1.175   4.059  1.0298 -0.2347 -0.0262
 1391TIP3   OH225587   5.632   3.964  14.540 -0.3938  0.4647  0.1990
 1391TIP3    H125588   5.648   3.870  14.551 -2.4195 -0.0387 -0.6602
 1391TIP3    H225589   5.577   3.988  14.615 -0.5414  0.7782 -0.0075
 1392TIP3   OH225590   0.984   5.980   4.113 -0.3400  0.1936  0.1126
 1392TIP3    H125591   1.077   5.975   4.094  0.1694 -1.1485  2.5160
 1392TIP3    H225592   0.979   6.030   4.195 -1.7097  0.1039  0.1083
 1393TIP3   OH225593   5.040   2.406   6.041  0.3977  0.3906  0.3057
 1393TIP3    H125594   5.098   2.430   5.969  0.2927 -0.7401 -0.1735
 1393TIP3    H225595   4.973   2.351   6.000 -1.3630  2.1285  0.7387
 1394TIP3   OH225596   4.685   0.943   0.474  0.9590  0.1059 -0.4980
 1394TIP3    H125597   4.691   0.898   0.390 -0.1698 -0.9406 -0.0531
 1394TIP3    H225598   4.607   0.998   0.466  0.4640 -0.4948  0.0709
 1395TIP3   OH225599   1.650   0.959  17.028  0.2239 -0.1900 -0.1761
 1395TIP3    H125600   1.692   1.035  17.069  0.2559  1.4199 -2.9444
 1395TIP3    H225601   1.565   0.992  16.998 -0.4101 -1.6971 -0.1316
 1396TIP3   OH225602   4.893   1.069  13.328  0.1868 -0.6379 -0.1302
 1396TIP3    H125603   4.986   1.051  13.345 -0.3291 -1.4000  2.1303
 1396TIP3    H225604   4.870   1.008  13.257  0.8452 -2.2422  0.9677
 1397TIP3   OH225605   0.261   3.500   1.750 -0.0250 -0.2316  0.1678
 1397TIP3    H125606   0.305   3.571   1.703  0.0641  0.3720  1.1449
 1397TIP3    H225607   0.330   3.435   1.765  0.5081  0.5979  1.4679
 1398TIP3   OH225608   2.294   0.385   4.047  0.2001 -0.5028  0.2870
 1398TIP3    H125609   2.341   0.465   4.021  0.3639 -0.9695 -0.9413
 1398TIP3    H225610   2.204   0.400   4.016  0.4367 -1.1410 -0.7438
 1399TIP3   OH225611   6.687   1.415   4.216  0.4969  0.0969 -0.0384
 1399TIP3    H125612   6.696   1.323   4.238 -1.0846 -0.4347 -1.3997
 1399TIP3    H225613   6.717   1.422   4.125  1.0000  1.0150  0.1790
 1400TIP3   OH225614   2.139   2.083   4.735 -0.5528  0.2255  0.0964
 1400TIP3    H125615   2.177   2.157   4.783  1.0351  0.4589 -1.4126
 1400TIP3    H225616   2.162   2.100   4.644  0.2990 -2.3551 -0.2609
 1401TIP3   OH225617   0.727   3.794  10.866  0.1687 -0.1259  0.0628
 1401TIP3    H125618   0.682   3.799  10.950  0.7584 -0.6559  0.4283
 1401TIP3    H225619   0.789   3.867  10.867  0.8834 -0.7227  0.5354
 1402TIP3   OH225620   3.472   3.388  12.287  0.2706 -0.2212 -0.0322
 1402TIP3    H125621   3.449   3.295  12.279 -0.6449 -0.1601  1.6012
 1402TIP3    H225622   3.552   3.388  12.339 -1.4527 -0.0212  2.8204
 1403TIP3   OH225623   1.749   5.518  12.353 -0.0918 -0.1543 -0.5728
 1403TIP3    H125624   1.694   5.530  12.276 -1.5301  3.3165  0.7844
 1403TIP3    H225625   1.688   5.518  12.427  1.4940  1.1659  0.8291
 1404TIP3   OH225626   6.383   1.554   3.996  0.0441 -0.1786 -0.4424
 1404TIP3    H125627   6.310   1.613   3.976 -1.4415 -1.7182  0.1998
 1404TIP3    H225628   6.445   1.567   3.924 -0.4712  1.7702 -0.5673
 1405TIP3   OH225629   1.296   3.084   4.231 -0.2042 -0.0357 -0.1096
 1405TIP3    H125630   1.294   3.051   4.321 -0.7727 -1.3657 -0.5859
 1405TIP3    H225631   1.211   3.127   4.220 -0.7812 -1.2333 -0.4802
 1406TIP3   OH225632   1.385   2.012   4.925 -0.3426 -0.7306 -0.3737
 1406TIP3    H125633   1.396   1.973   5.012  0.4408  1.4777  0.5851
 1406TIP3    H225634   1.473   2.012   4.888 -0.5517 -0.9793 -0.8844
 1407TIP3   OH225635   6.379   5.617  11.348 -0.2298 -0.2754  0.3706
 1407TIP3    H125636   6.376   5.664  11.432 -0.2941 -0.8628  0.6985
 1407TIP3    H225637   6.471   5.623  11.321 -0.3666  0.6294  0.0667
 1408TIP3   OH225638   5.050   6.484  11.629 -0.6766 -0.0105 -0.3899
 1408TIP3    H125639   5.004   6.420  11.575  0.6607 -0.3254 -1.1865
 1408TIP3    H225640   5.139   6.485  11.595 -0.4394  1.6258  0.2011
 1409TIP3   OH225641   3.252   0.784  11.134 -0.3983 -0.1260 -0.3010
 1409TIP3    H125642   3.281   0.801  11.044  1.7482  1.9544  0.7040
 1409TIP3    H225643   3.264   0.690  11.145  0.5294 -0.2166 -1.7831
 1410TIP3   OH225644   5.509   0.535   1.000  0.0810  0.0253 -0.1003
 1410TIP3    H125645   5.488   0.623   0.970 -0.9620 -0.3925 -0.6316
 1410TIP3    H225646   5.470   0.530   1.088  0.7331  0.3164  0.2099
 1411TIP3   OH225647   4.126   6.366   2.895  0.0078  0.2994  0.1803
 1411TIP3    H125648   4.137   6.372   2.800 -0.1227  1.9833  0.2398
 1411TIP3    H225649   4.044   6.319   2.907 -0.8529  1.5417 -0.6009
 1412TIP3   OH225650   1.655   1.614   0.685  0.2623 -0.4269  0.6080
 1412TIP3    H125651   1.735   1.561   0.684  0.7024  0.2045  1.3882
 1412TIP3    H225652   1.658   1.661   0.769 -0.6538  0.0211  0.4039
 1413TIP3   OH225653   0.283   1.149   4.468  0.0174  0.7158 -0.0881
 1413TIP3    H125654   0.300   1.126   4.377 -0.7725 -2.1885  0.3703
 1413TIP3    H225655   0.368   1.141   4.512 -0.1847 -1.7118  0.0281
 1414TIP3   OH225656   5.447   3.433   4.134 -0.1121 -0.3362 -0.3574
 1414TIP3    H125657   5.498   3.467   4.060  0.1231 -0.1102 -0.0890
 1414TIP3    H225658   5.409   3.511   4.174 -1.7616 -0.5770 -1.3509
 1415TIP3   OH225659   1.652   4.441   5.287 -0.0837 -0.1497 -0.3997
 1415TIP3    H125660   1.574   4.412   5.334  0.3569  0.5860  0.8194
 1415TIP3    H225661   1.724   4.431   5.350  0.6589  0.0609 -1.1901
 1416TIP3   OH225662   2.469   5.977  11.517  0.3932 -0.1835  0.5107
 1416TIP3    H125663   2.500   6.066  11.528 -0.4131  0.2855 -0.7704
 1416TIP3    H225664   2.447   5.948  11.606  2.3283  0.2240  1.1667
 1417TIP3   OH225665   0.829   1.798   1.760  0.2443 -0.1905  0.5641
 1417TIP3    H125666   0.736   1.777   1.757 -0.7125  3.1718  1.8183
 1417TIP3    H225667   0.868   1.726   1.810 -1.6199 -1.6969 -0.0164
 1418TIP3   OH225668   6.631   1.008  15.680  0.2051 -0.2004  0.4618
 1418TIP3    H125669   6.664   1.091  15.645  0.4302 -0.5739 -0.2512
 1418TIP3    H225670   6.662   1.006  15.770  2.2595 -0.5502 -0.1755
 1419TIP3   OH225671   5.661   5.118   2.515  0.7639 -0.1648 -0.0928
 1419TIP3    H125672   5.663   5.164   2.431 -0.4760 -1.2873 -0.7805
 1419TIP3    H225673   5.596   5.048   2.503 -2.0169  1.6163  2.7820
 1420TIP3   OH225674   5.775   3.445   0.876  0.3920 -0.3110 -0.3327
 1420TIP3    H125675   5.720   3.377   0.837  0.8826 -2.4272  2.3050
 1420TIP3    H225676   5.716   3.492   0.936  0.7529 -0.6144  0.2763
 1421TIP3   OH225677   1.267   5.852   5.026 -0.4559  0.0094 -0.2682
 1421TIP3    H125678   1.344   5.796   5.013 -0.6546  0.0034 -1.5147
 1421TIP3    H225679   1.289   5.905   5.102  0.7130 -0.1200 -0.4977
 1422TIP3   OH225680   0.547   1.238  13.855  0.1887 -0.6720  0.0389
 1422TIP3    H125681   0.619   1.187  13.893 -0.0415 -2.7172 -2.0826
 1422TIP3    H225682   0.474   1.224  13.915  1.1999  0.6461  1.6979
 1423TIP3   OH225683   1.359   2.630   1.419  0.2428  0.4790 -0.2956
 1423TIP3    H125684   1.279   2.679   1.434  0.3355  0.0286  2.0693
 1423TIP3    H225685   1.402   2.627   1.504  1.5603 -1.3936 -0.9472
 1424TIP3   OH225686   5.867   6.046  13.975  0.0770  0.5328 -0.4029
 1424TIP3    H125687   5.852   6.048  13.880  1.6563  0.2538 -0.6740
 1424TIP3    H225688   5.940   6.106  13.990 -0.3874  0.8526  0.6975
 1425TIP3   OH225689   2.740   3.532  12.785  0.0103 -0.0367 -0.0751
 1425TIP3    H125690   2.648   3.556  12.791  0.2515  1.1046 -0.7378
 1425TIP3    H225691   2.769   3.567  12.701  0.6138 -1.9429 -0.7050
 1426TIP3   OH225692   1.111   0.185  16.643  0.6918  0.3906 -0.1688
 1426TIP3    H125693   1.154   0.266  16.615 -0.5821  2.3471  2.9758
 1426TIP3    H225694   1.020   0.197  16.616  0.0070  1.1417  2.2806
 1427TIP3   OH225695   3.355   0.962   0.643 -0.0752 -0.8980  0.4231
 1427TIP3    H125696   3.268   0.999   0.651 -0.2664 -1.3051  0.2806
 1427TIP3    H225697   3.343   0.884   0.589  0.8882  0.7395 -2.3303
 1428TIP3   OH225698   4.385   6.398  12.684 -0.0597  0.2838 -0.2104
 1428TIP3    H125699   4.397   6.483  12.644  0.5746  1.2593  1.9014
 1428TIP3    H225700   4.452   6.343  12.645  0.3901  1.1216 -0.6334
 1429TIP3   OH225701   3.716   2.878   0.612 -0.9939  0.3936  0.3503
 1429TIP3    H125702   3.669   2.933   0.675  0.2135 -0.0214  1.6862
 1429TIP3    H225703   3.701   2.789   0.643  0.5975  0.2518  0.7952
 1430TIP3   OH225704   0.790   1.632  14.506 -0.8442  0.0394 -0.1586
 1430TIP3    H125705   0.706   1.595  14.477 -1.3943  0.3805  0.9413
 1430TIP3    H225706   0.851   1.609  14.436 -1.8488 -0.2247 -0.9891
 1431TIP3   OH225707   6.514   1.599   0.203 -0.2109 -0.0279  0.5308
 1431TIP3    H125708   6.421   1.619   0.208  0.1999  1.6196  3.6007
 1431TIP3    H225709   6.543   1.640   0.121 -1.9076  0.6731  0.2423
 1432TIP3   OH225710   3.992   5.647  14.113  0.0963 -0.5738  0.0148
 1432TIP3    H125711   3.933   5.721  14.097  0.0456 -0.2241  1.6479
 1432TIP3    H225712   4.025   5.661  14.202  2.1703 -1.0970 -0.6141
 1433TIP3   OH225713   4.844   5.900   5.864 -0.0120  0.0768  0.3302
 1433TIP3    H125714   4.755   5.905   5.898 -0.6409 -3.0073 -0.5502
 1433TIP3    H225715   4.847   5.816   5.818  2.9740  0.6991 -0.8135
 1434TIP3   OH225716   5.377   1.949  13.302 -0.0997  0.1834 -0.4005
 1434TIP3    H125717   5.327   1.965  13.221 -0.0574  1.9827 -0.1036
 1434TIP3    H225718   5.466   1.978  13.281  0.2467 -0.6327 -0.1135
 1435TIP3   OH225719   5.449   6.479  17.243  0.1885 -0.2226 -0.0029
 1435TIP3    H125720   5.363   6.519  17.227  0.4788  0.2077 -0.5160
 1435TIP3    H225721   5.460   6.483  17.338 -0.5659 -0.7178  0.1224
 1436TIP3   OH225722   3.914   5.115  16.652  0.5781  0.1826  0.4289
 1436TIP3    H125723   3.836   5.146  16.606 -1.1797  0.2442  3.2176
 1436TIP3    H225724   3.978   5.185  16.640 -1.3956  2.3867  1.8376
 1437TIP3   OH225725   1.367   5.297  15.261  0.0194 -0.0190  0.0328
 1437TIP3    H125726   1.417   5.224  15.226 -1.0374 -0.7367 -0.0370
 1437TIP3    H225727   1.291   5.257  15.302 -2.4473  1.1065 -2.9993
 1438TIP3   OH225728   3.335   6.330  11.066 -0.0129  0.4215 -0.0006
 1438TIP3    H125729   3.422   6.362  11.091 -1.0450  2.6996  0.9844
 1438TIP3    H225730   3.323   6.359  10.976  0.9541 -1.6592 -0.8763
 1439TIP3   OH225731   1.989   0.516   0.310  0.5869  0.0336  0.4835
 1439TIP3    H125732   1.942   0.528   0.228 -1.6894 -1.7427  1.4073
 1439TIP3    H225733   2.078   0.490   0.284  0.1968  0.4236 -1.3696
 1440TIP3   OH225734   1.017   0.134  12.865 -0.2144  0.1288 -0.4358
 1440TIP3    H125735   1.007   0.143  12.960 -0.2373  1.7389 -0.5507
 1440TIP3    H225736   0.965   0.057  12.843 -0.7303  0.0935  0.7804
 1441TIP3   OH225737   3.556   5.832  12.362  0.6664 -0.3119 -0.1021
 1441TIP3    H125738   3.587   5.742  12.352 -0.8553 -1.5144  3.9964
 1441TIP3    H225739   3.461   5.826  12.350  0.6451  0.9321 -0.6639
 1442TIP3   OH225740   5.967   0.343   5.291  0.6783 -0.5795 -0.1548
 1442TIP3    H125741   6.024   0.407   5.333  1.3865 -1.0753 -0.3427
 1442TIP3    H225742   6.024   0.295   5.231  0.1847 -1.4440  0.0417
 1443TIP3   OH225743   2.329   4.361  15.020  0.1643  0.2159  0.2576
 1443TIP3    H125744   2.320   4.452  14.992 -0.1867 -0.3459 -1.5892
 1443TIP3    H225745   2.413   4.358  15.066  0.1366  1.4772  0.4266
 1444TIP3   OH225746   6.730   3.368   3.076  0.1146  0.5178 -1.3871
 1444TIP3    H125747   6.757   3.395   3.164 -1.3933  0.3813 -0.8643
 1444TIP3    H225748   6.811   3.336   3.035  0.4021 -2.1944  0.9534
 1445TIP3   OH225749   1.413   3.166  16.930 -0.0278 -0.3310  0.7809
 1445TIP3    H125750   1.466   3.230  16.883  0.2954  0.0186  1.6158
 1445TIP3    H225751   1.448   3.081  16.901  1.1009 -0.1073  1.4239
 1446TIP3   OH225752   2.136   4.154  15.080  0.3211 -0.0785  0.5513
 1446TIP3    H125753   2.225   4.144  15.048  0.8744  1.5952  1.4303
 1446TIP3    H225754   2.123   4.079  15.138  0.6168 -1.1017 -0.6557
 1447TIP3   OH225755   4.530   1.340  10.874 -0.4980 -0.3254  0.3271
 1447TIP3    H125756   4.528   1.417  10.817  1.5925 -0.4981 -0.0581
 1447TIP3    H225757   4.488   1.271  10.823  1.0965 -0.4036 -0.9464
 1448TIP3   OH225758   1.712   3.001  10.594 -0.5899 -0.3300 -0.2833
 1448TIP3    H125759   1.778   2.998  10.663 -1.1907  0.3833  0.3537
 1448TIP3    H225760   1.630   3.016  10.641 -1.0072  0.1928 -1.1551
 1449TIP3   OH225761   6.593   1.470  14.880 -0.7113  0.6543  0.7899
 1449TIP3    H125762   6.554   1.466  14.792  0.0387  1.9615  0.3687
 1449TIP3    H225763   6.605   1.378  14.904 -3.2592  0.1846  0.6284
 1450TIP3   OH225764   6.644   0.713   3.209  0.4503  0.2261 -0.0047
 1450TIP3    H125765   6.678   0.778   3.270  0.4100  0.4995 -0.2714
 1450TIP3    H225766   6.673   0.629   3.244  1.8994  0.4744 -0.5307
 1451TIP3   OH225767   0.359   5.001   0.045 -0.3584 -0.5803  0.0011
 1451TIP3    H125768   0.363   4.980   0.138  1.2734 -0.5020 -0.0322
 1451TIP3    H225769   0.291   4.942   0.011 -1.4786 -0.1230  1.3380
 1452TIP3   OH225770   2.166   4.941   4.138 -0.0893  0.1468  0.6533
 1452TIP3    H125771   2.130   4.986   4.061  1.8435  1.8752  0.6785
 1452TIP3    H225772   2.089   4.917   4.189 -1.3185  2.6845  0.1963
 1453TIP3   OH225773   2.268   4.855  17.276 -0.5169  0.4470  0.2751
 1453TIP3    H125774   2.315   4.880  17.355 -0.3143 -0.0051  0.3050
 1453TIP3    H225775   2.329   4.797  17.229 -0.4808  1.0144 -0.4018
 1454TIP3   OH225776   1.275   3.500  11.797 -0.1102 -0.1814  0.3624
 1454TIP3    H125777   1.202   3.544  11.841 -0.6879 -0.8214  0.0634
 1454TIP3    H225778   1.342   3.492  11.865 -1.3678 -2.0675  1.4611
 1455TIP3   OH225779   0.063   5.456   0.069 -0.3619  0.5578 -0.3469
 1455TIP3    H125780   0.113   5.382   0.103 -1.9224  0.3095  1.5964
 1455TIP3    H225781  -0.028   5.425   0.068 -0.7131  1.4829 -2.3507
 1456TIP3   OH225782   3.944   3.512  11.819 -0.2182  0.2787  0.3230
 1456TIP3    H125783   3.892   3.590  11.795 -0.7741 -0.3680 -0.6624
 1456TIP3    H225784   3.974   3.478  11.735  1.7873  0.5919  0.8754
 1457TIP3   OH225785   1.175   3.280  12.522  0.0036 -0.0066 -0.0721
 1457TIP3    H125786   1.112   3.351  12.533 -0.1801 -0.3387  1.1618
 1457TIP3    H225787   1.157   3.221  12.595  2.0056  0.0772  0.5362
 1458TIP3   OH225788   6.361   6.124  11.922  0.0095 -0.0313 -0.0114
 1458TIP3    H125789   6.305   6.047  11.914  0.1944 -0.3386  1.4604
 1458TIP3    H225790   6.438   6.103  11.868 -0.7416 -0.0854 -1.1016
 1459TIP3   OH225791   4.761   1.096   5.082  0.2612 -0.7985  0.1385
 1459TIP3    H125792   4.723   1.027   5.136 -0.9834  0.1931  0.5687
 1459TIP3    H225793   4.793   1.161   5.145 -2.0914  0.8374 -0.2407
 1460TIP3   OH225794   5.854   5.692  15.851  0.1653  0.3606 -0.3750
 1460TIP3    H125795   5.878   5.669  15.761  2.1188  1.6099 -0.2427
 1460TIP3    H225796   5.830   5.784  15.847 -1.9508 -0.1239  0.0492
 1461TIP3   OH225797   6.762   0.994   0.548 -0.4233  0.0904 -0.4725
 1461TIP3    H125798   6.824   1.052   0.592 -1.0960  1.8773 -1.7843
 1461TIP3    H225799   6.752   0.920   0.609  2.3476  0.0982  0.1223
 1462TIP3   OH225800   0.746   6.060  16.124  0.1193  0.3244 -1.1632
 1462TIP3    H125801   0.675   6.005  16.092  2.7949 -2.6811 -2.5050
 1462TIP3    H225802   0.766   6.024  16.211  1.3259 -0.3319 -1.6863
 1463TIP3   OH225803   3.168   1.277  16.934 -0.2343 -0.2357 -0.4689
 1463TIP3    H125804   3.191   1.256  16.844 -1.2678  0.4110 -0.9098
 1463TIP3    H225805   3.130   1.195  16.968 -0.4112 -0.3080 -0.8290
 1464TIP3   OH225806   3.883   2.544  15.684  0.3093  0.1472  0.0226
 1464TIP3    H125807   3.863   2.598  15.607  0.3303  0.8132  0.4782
 1464TIP3    H225808   3.953   2.591  15.729  3.7877 -2.5891 -2.0169
 1465TIP3   OH225809   6.651   5.358  11.219  0.2003  0.0995 -0.7068
 1465TIP3    H125810   6.661   5.321  11.131  1.3889 -2.0536  0.2479
 1465TIP3    H225811   6.562   5.333  11.246 -0.1966  0.8376 -1.2947
 1466TIP3   OH225812   5.463   4.411  16.505 -0.2013 -0.5136 -0.1623
 1466TIP3    H125813   5.489   4.332  16.459 -1.1896 -1.0049  0.0831
 1466TIP3    H225814   5.398   4.452  16.448  1.9493  1.3828 -1.3892
 1467TIP3   OH225815   6.280   3.849  14.959 -0.2457  0.4774  0.1443
 1467TIP3    H125816   6.254   3.939  14.979 -2.0937  0.2140 -0.9134
 1467TIP3    H225817   6.345   3.858  14.889 -2.6215  0.9432 -2.1257
 1468TIP3   OH225818   2.782   4.802   1.004 -0.6363  0.3797 -0.4695
 1468TIP3    H125819   2.728   4.736   0.961  0.1172  0.1847 -1.1542
 1468TIP3    H225820   2.871   4.769   0.996 -0.4826  0.2588  1.4459
 1469TIP3   OH225821   3.594   1.502   0.555  0.3486  0.0491 -0.2130
 1469TIP3    H125822   3.652   1.426   0.552  0.3461  0.0695 -0.8812
 1469TIP3    H225823   3.630   1.563   0.490  0.6310  0.8319  0.6459
 1470TIP3   OH225824   0.751   0.822  14.660 -0.1997  0.1475  0.1579
 1470TIP3    H125825   0.660   0.850  14.656  0.3830  2.1441  0.2049
 1470TIP3    H225826   0.752   0.740  14.610 -1.6737  1.0423 -1.4489
 1471TIP3   OH225827   5.897   2.609   2.570  0.1865 -0.3400 -0.6978
 1471TIP3    H125828   5.901   2.543   2.501 -0.5355 -2.4409  1.1691
 1471TIP3    H225829   5.813   2.653   2.556 -0.4703 -1.5091 -0.5302
 1472TIP3   OH225830   4.105   3.829   6.129  0.4502 -0.0085 -0.3406
 1472TIP3    H125831   4.068   3.878   6.203 -2.7536 -1.2826 -0.9349
 1472TIP3    H225832   4.056   3.858   6.053  2.6521  0.1699 -1.8064
 1473TIP3   OH225833   1.873   1.621  15.045  0.2985 -0.1985  0.0166
 1473TIP3    H125834   1.834   1.569  15.116 -0.6027 -0.0247 -0.3397
 1473TIP3    H225835   1.804   1.627  14.979  0.7909  0.4879 -0.4463
 1474TIP3   OH225836   4.514   4.729  15.943 -0.2339 -0.2449 -0.0481
 1474TIP3    H125837   4.439   4.727  15.883 -0.8297  0.1941  0.6572
 1474TIP3    H225838   4.474   4.737  16.030  0.6602  0.8721  0.2776
 1475TIP3   OH225839   3.344   0.200  12.085  0.0271  0.1088 -0.3648
 1475TIP3    H125840   3.425   0.216  12.036 -0.0529  0.6835 -0.3173
 1475TIP3    H225841   3.284   0.269  12.055 -0.2849 -0.0231 -0.0502
 1476TIP3   OH225842   4.794   0.684   0.729 -0.8611  0.6137  0.0217
 1476TIP3    H125843   4.857   0.631   0.778 -0.6297  2.3071  1.6690
 1476TIP3    H225844   4.725   0.623   0.704  1.0354 -1.1473 -1.2121
 1477TIP3   OH225845   1.889   3.782   4.910 -0.2026 -0.0605 -0.3182
 1477TIP3    H125846   1.809   3.759   4.861 -1.6859  2.1403  0.8901
 1477TIP3    H225847   1.868   3.763   5.001  1.2951 -0.9471 -0.1222
 1478TIP3   OH225848   4.010   5.076  11.923  0.4892 -0.0515 -0.5353
 1478TIP3    H125849   4.018   5.066  11.828 -0.6588 -3.0259 -0.4297
 1478TIP3    H225850   3.928   5.125  11.934  0.0938 -0.5697 -1.0794
 1479TIP3   OH225851   6.719   0.605   2.233 -0.1500 -0.0076  0.0459
 1479TIP3    H125852   6.665   0.564   2.165  0.8364 -0.3545 -0.5530
 1479TIP3    H225853   6.722   0.540   2.303 -1.2508  0.3911  0.4836
 1480TIP3   OH225854   3.139   6.662  16.715  0.1707  0.1054  0.6318
 1480TIP3    H125855   3.078   6.653  16.642 -1.3574  2.5777  1.5026
 1480TIP3    H225856   3.147   6.573  16.751 -0.1640 -0.8859 -1.5891
 1481TIP3   OH225857   4.566   0.965  13.732 -0.1666 -0.2869  0.6711
 1481TIP3    H125858   4.575   1.018  13.812 -0.1498 -0.3245  0.6946
 1481TIP3    H225859   4.477   0.983  13.702 -0.4759 -0.9362  1.1780
 1482TIP3   OH225860   3.574   1.044  15.156 -0.3253 -0.4118  0.4877
 1482TIP3    H125861   3.515   1.062  15.230  0.8484  1.1923  1.0733
 1482TIP3    H225862   3.640   1.113  15.160 -0.7784  0.3352 -2.7020
 1483TIP3   OH225863   4.322   3.999  12.261 -0.6028  0.6051 -0.1616
 1483TIP3    H125864   4.407   4.037  12.236 -0.1606 -0.8985 -1.1236
 1483TIP3    H225865   4.288   3.962  12.179  0.3184 -3.4623  1.0597
 1484TIP3   OH225866   0.313   1.822  10.751  0.4936  0.3612  0.5190
 1484TIP3    H125867   0.328   1.887  10.819 -2.1294  2.0074 -0.3359
 1484TIP3    H225868   0.241   1.768  10.783  0.3535  0.0791 -0.2328
 1485TIP3   OH225869   5.263   3.383  11.684 -0.1733 -0.5421  0.4096
 1485TIP3    H125870   5.254   3.407  11.592 -0.6617 -1.2828  0.2550
 1485TIP3    H225871   5.187   3.423  11.727  0.7799  0.9732  0.7543
 1486TIP3   OH225872   2.685   2.251  11.477  0.3930  0.3120  0.8130
 1486TIP3    H125873   2.749   2.307  11.433  0.1589  1.9859  2.4736
 1486TIP3    H225874   2.642   2.203  11.407  0.9186  1.9030 -0.6544
 1487TIP3   OH225875   0.384   3.794  11.296 -0.1850 -0.1124  0.0422
 1487TIP3    H125876   0.358   3.721  11.241  0.4327 -1.1925  1.1310
 1487TIP3    H225877   0.462   3.830  11.254  0.0196 -0.6394 -0.0306
 1488TIP3   OH225878   4.976   3.090   3.525  0.4898  0.4245 -0.2996
 1488TIP3    H125879   4.884   3.069   3.542  0.5763  1.6805  2.0597
 1488TIP3    H225880   5.016   3.005   3.503 -0.7598 -0.5198  0.9148
 1489TIP3   OH225881   0.660   3.262  15.371  0.0265 -0.0790 -0.0003
 1489TIP3    H125882   0.739   3.212  15.352 -0.9149 -1.3274 -0.7339
 1489TIP3    H225883   0.689   3.331  15.431  1.0652 -2.4995  2.4664
 1490TIP3   OH225884   1.499   0.082   3.102  0.4302  0.6279  0.6378
 1490TIP3    H125885   1.445   0.135   3.161  1.7795  1.1968  1.4002
 1490TIP3    H225886   1.586   0.123   3.106  0.9177 -0.2460 -0.5793
 1491TIP3   OH225887   0.778   4.297  13.896  0.5043 -0.7341  0.0145
 1491TIP3    H125888   0.857   4.302  13.843  1.5310  0.2006  1.5583
 1491TIP3    H225889   0.809   4.298  13.987 -1.3308  1.9665  0.7237
 1492TIP3   OH225890   4.217   6.739  17.042  0.3298  0.0418 -0.1223
 1492TIP3    H125891   4.157   6.700  16.978  1.6528 -1.7129 -0.3800
 1492TIP3    H225892   4.164   6.754  17.120 -0.7273 -0.1912 -0.7813
 1493TIP3   OH225893   1.526   6.019   4.628 -0.0124 -0.3486  0.7006
 1493TIP3    H125894   1.604   6.075   4.625 -1.4591  1.8562  1.4225
 1493TIP3    H225895   1.519   5.984   4.539  1.6950 -0.4950  0.5792
 1494TIP3   OH225896   4.816   3.412   2.236  0.3951 -0.2489  0.3843
 1494TIP3    H125897   4.865   3.482   2.280  0.0394  0.2417  0.0272
 1494TIP3    H225898   4.792   3.450   2.151 -0.9521 -0.3135  0.7001
 1495TIP3   OH225899   5.735   2.651  11.858 -0.1900  0.1027  0.2233
 1495TIP3    H125900   5.807   2.607  11.812 -0.0884  0.6164 -0.1231
 1495TIP3    H225901   5.713   2.725  11.802 -1.4329 -0.4070  0.0009
 1496TIP3   OH225902   2.315   5.619  14.471 -0.2869 -0.1218  0.3620
 1496TIP3    H125903   2.296   5.605  14.564 -1.2200 -0.3301  0.1550
 1496TIP3    H225904   2.315   5.714  14.460 -2.3884 -0.0932  0.1784
 1497TIP3   OH225905   2.924   5.665  12.243  0.3127 -0.3162  0.3095
 1497TIP3    H125906   2.953   5.695  12.157 -0.3547  0.6678  0.4141
 1497TIP3    H225907   3.004   5.666  12.296  1.2093 -3.0839 -0.8261
 1498TIP3   OH225908   3.725   0.600   4.901 -0.1081 -0.2141 -0.1000
 1498TIP3    H125909   3.662   0.565   4.965  0.4622 -2.1790 -0.5393
 1498TIP3    H225910   3.810   0.594   4.946  0.6056 -3.5159 -1.5861
 1499TIP3   OH225911   1.487   6.242  15.283 -0.0088  0.5591  0.3601
 1499TIP3    H125912   1.494   6.259  15.377 -3.5339 -0.4219  0.9748
 1499TIP3    H225913   1.576   6.222  15.255  1.1622  0.7763  3.5119
 1500TIP3   OH225914   2.157   2.142   1.111  0.3055 -0.1285 -0.0946
 1500TIP3    H125915   2.069   2.118   1.137 -0.6880 -0.8571 -3.5399
 1500TIP3    H225916   2.158   2.238   1.114 -1.6672  0.0903 -2.5256
 1501TIP3   OH225917   3.762   5.039  14.200 -0.7415 -0.2303 -0.0683
 1501TIP3    H125918   3.750   4.984  14.123 -0.9013  1.9890 -1.7058
 1501TIP3    H225919   3.816   5.112  14.170 -0.9847  0.8272  1.8752
 1502TIP3   OH225920   6.213   3.436  12.622  0.1376 -0.6904  0.2134
 1502TIP3    H125921   6.138   3.451  12.565  1.9054 -1.3013 -2.4643
 1502TIP3    H225922   6.256   3.521  12.629  1.2469 -1.0801 -1.4556
 1503TIP3   OH225923   1.900   4.343  15.487  0.1230 -0.3582  0.4138
 1503TIP3    H125924   1.946   4.364  15.406 -0.0766  0.3769  0.4864
 1503TIP3    H225925   1.808   4.332  15.461  0.1508 -0.6980  0.4502
 1504TIP3   OH225926   6.730   4.934  16.725 -0.0450 -0.2894 -0.2680
 1504TIP3    H125927   6.704   4.885  16.648 -1.5286 -2.0000  1.2122
 1504TIP3    H225928   6.652   4.933  16.782  1.5509 -0.8108  2.0681
 1505TIP3   OH225929   3.985   4.570  14.129  0.5248  0.1992  0.0153
 1505TIP3    H125930   4.019   4.483  14.152  2.8753  1.2690  0.8945
 1505TIP3    H225931   3.912   4.583  14.190 -0.6412 -1.5683 -0.8971
 1506TIP3   OH225932   2.464   0.384   5.345  0.7954  0.2002  0.2486
 1506TIP3    H125933   2.444   0.346   5.430  1.7134 -0.9777 -0.0374
 1506TIP3    H225934   2.396   0.451   5.332 -0.7968 -1.2218  0.8432
 1507TIP3   OH225935   1.413   1.045   5.887 -0.7224 -0.4968 -0.1605
 1507TIP3    H125936   1.448   1.101   5.818 -0.6988  0.7793  0.8432
 1507TIP3    H225937   1.489   1.026   5.943 -0.7952 -1.2780 -0.3122
 1508TIP3   OH225938   6.402   3.962  10.691  0.4011  0.2254 -0.0301
 1508TIP3    H125939   6.323   3.923  10.728  0.5429 -0.1918 -0.1601
 1508TIP3    H225940   6.429   4.028  10.755 -0.3521  0.7477 -0.2414
 1509TIP3   OH225941   5.516   2.077  15.035  0.0632  0.1987  0.1000
 1509TIP3    H125942   5.543   2.014  14.969 -0.9062  1.6030 -1.7505
 1509TIP3    H225943   5.593   2.088  15.092  0.8975 -1.1191 -0.7384
 1510TIP3   OH225944   0.657   2.421  17.314 -0.2358 -0.1379 -0.2917
 1510TIP3    H125945   0.710   2.436  17.236 -1.7348  1.8056 -0.9894
 1510TIP3    H225946   0.575   2.385  17.282 -0.4624 -0.3647  0.5096
 1511TIP3   OH225947   1.672   5.373  13.750 -0.0745 -0.1065 -0.8959
 1511TIP3    H125948   1.707   5.420  13.675  2.5886  0.7006  0.6857
 1511TIP3    H225949   1.738   5.306  13.769 -0.3107  0.1524  1.0802
 1512TIP3   OH225950   1.243   2.835   4.804  0.2119  1.0708  0.0021
 1512TIP3    H125951   1.331   2.804   4.782  0.8662  2.9733 -0.2274
 1512TIP3    H225952   1.195   2.833   4.721 -1.1926 -3.3360  0.6635
 1513TIP3   OH225953   2.835   5.628   5.404 -0.2976  0.4445  0.9053
 1513TIP3    H125954   2.769   5.583   5.456 -2.2962  0.9940 -1.0257
 1513TIP3    H225955   2.863   5.563   5.339  1.1479  0.1949  1.7443
 1514TIP3   OH225956   3.385   4.996  14.408 -0.0311 -0.9063  0.0898
 1514TIP3    H125957   3.477   4.972  14.399 -0.0285 -1.1217  0.6667
 1514TIP3    H225958   3.368   5.055  14.334  1.3699  1.5605  1.6006
 1515TIP3   OH225959   2.977   6.158  12.004  0.5296 -0.4431  0.3437
 1515TIP3    H125960   3.059   6.191  12.040  2.8554 -1.5977 -3.3481
 1515TIP3    H225961   2.934   6.235  11.969 -0.2027  0.2027  2.4737
 1516TIP3   OH225962   1.933   1.200  15.919  0.0340  0.5594 -0.2810
 1516TIP3    H125963   1.946   1.257  15.843  0.2078  3.3070  1.6708
 1516TIP3    H225964   2.020   1.167  15.939 -0.0047 -0.1409 -1.2015
 1517TIP3   OH225965   2.819   5.746  11.553  0.1014  0.2239 -0.0469
 1517TIP3    H125966   2.880   5.697  11.497  0.3916 -1.7362  1.8219
 1517TIP3    H225967   2.850   5.836  11.549  0.7712 -0.0429 -2.1075
 1518TIP3   OH225968   0.548   2.885  14.719  0.0628  0.1537  0.5154
 1518TIP3    H125969   0.558   2.980  14.729  0.7348  0.2163 -0.5676
 1518TIP3    H225970   0.455   2.869  14.735 -0.2184  1.1116 -0.0616
 1519TIP3   OH225971   5.274   1.441   5.719 -0.0330 -0.2378  0.3548
 1519TIP3    H125972   5.206   1.407   5.777 -0.4713  1.0927  0.6767
 1519TIP3    H225973   5.331   1.492   5.777  0.1371  0.2220 -0.2041
 1520TIP3   OH225974   5.397   2.079  16.320  0.0248 -0.3122  0.3382
 1520TIP3    H125975   5.439   1.995  16.339  1.0434 -0.0251 -0.5740
 1520TIP3    H225976   5.443   2.112  16.243 -1.8348  0.0519 -0.6663
 1521TIP3   OH225977   0.884   5.893  16.305  0.1927 -0.0788 -0.3503
 1521TIP3    H125978   0.908   5.841  16.382 -1.0973  0.1419  0.2259
 1521TIP3    H225979   0.961   5.888  16.249  0.8093 -1.0474  0.5228
 1522TIP3   OH225980   6.090   2.638   2.874  0.3077  0.2809 -0.1651
 1522TIP3    H125981   6.112   2.718   2.921  0.6044  0.5998 -0.8461
 1522TIP3    H225982   6.051   2.667   2.792  1.7388 -0.2303 -1.0740
 1523TIP3   OH225983   3.035   2.955  11.247  0.2113 -0.3796  0.1685
 1523TIP3    H125984   3.128   2.979  11.253 -0.2625  1.7334  0.0282
 1523TIP3    H225985   3.022   2.936  11.154  0.9467 -2.9859  0.5193
 1524TIP3   OH225986   6.532   0.488   1.285 -0.0388 -0.3866 -0.2035
 1524TIP3    H125987   6.544   0.423   1.354 -0.2595 -0.4600 -0.2348
 1524TIP3    H225988   6.474   0.553   1.324 -0.5326 -0.6605 -0.4748
 1525TIP3   OH225989   1.466   4.112   0.270  0.7422  0.2974  0.1329
 1525TIP3    H125990   1.497   4.172   0.202 -0.5669  0.7052 -0.1143
 1525TIP3    H225991   1.508   4.028   0.248  2.5976  1.0778  0.5030
 1526TIP3   OH225992   4.774   0.181  11.035 -0.1617  0.0969  0.1250
 1526TIP3    H125993   4.734   0.107  11.081  1.1028 -0.2950  0.6508
 1526TIP3    H225994   4.749   0.168  10.943 -1.5966  0.1422  0.4866
 1527TIP3   OH225995   3.300   2.201  11.510  0.0674 -0.0127  0.6027
 1527TIP3    H125996   3.334   2.144  11.441  1.4123  0.9376  0.4520
 1527TIP3    H225997   3.310   2.149  11.590  3.8252  0.8722  0.8865
 1528TIP3   OH225998   1.956   6.282   3.420  0.3101 -0.4617 -0.4679
 1528TIP3    H125999   1.893   6.259   3.488 -1.3471 -0.0732 -1.8018
 1528TIP3    H226000   2.017   6.342   3.463 -0.5838 -0.3714  0.7126
 1529TIP3   OH226001   0.049   0.838   3.376  0.1815  0.0376 -0.2929
 1529TIP3    H126002   0.126   0.813   3.325 -0.5467  1.0878 -1.9885
 1529TIP3    H226003   0.083   0.857   3.463  1.6642 -0.6014 -0.7085
 1530TIP3   OH226004   6.624   6.746   1.758  0.2491 -0.6132  0.6274
 1530TIP3    H126005   6.639   6.679   1.824 -0.3432 -0.8462  0.5342
 1530TIP3    H226006   6.601   6.697   1.679  0.7328 -0.3287  0.3079
 1531TIP3   OH226007   6.165   2.402  15.287 -0.2473 -0.3162 -0.3072
 1531TIP3    H126008   6.180   2.473  15.225  2.7794 -1.6564 -1.2981
 1531TIP3    H226009   6.163   2.445  15.373 -0.1615  1.1083 -0.9898
 1532TIP3   OH226010   1.273   1.483  14.799 -0.2005 -0.1244  0.2632
 1532TIP3    H126011   1.338   1.530  14.746  0.0076 -0.4788  0.1974
 1532TIP3    H226012   1.233   1.550  14.854 -2.3895  0.7966 -2.2349
 1533TIP3   OH226013   1.626   5.787  12.736  0.0298  0.5401  0.5630
 1533TIP3    H126014   1.541   5.780  12.779 -1.4942  0.4102 -2.2358
 1533TIP3    H226015   1.615   5.857  12.671  2.7223  1.9069  1.4027
 1534TIP3   OH226016   1.298   6.541   2.063  0.0429  0.1280 -0.1747
 1534TIP3    H126017   1.384   6.578   2.041 -0.3152  1.7892  1.0323
 1534TIP3    H226018   1.271   6.496   1.983  0.5859  2.4201 -1.7610
 1535TIP3   OH226019   2.035   1.652   3.702 -0.4204 -0.5071 -0.3340
 1535TIP3    H126020   2.046   1.557   3.693 -2.4853 -0.8693  0.4157
 1535TIP3    H226021   1.980   1.662   3.779 -1.0992  1.2614 -1.0118
 1536TIP3   OH226022   3.030   6.758   6.511  0.0057  0.3874  0.1358
 1536TIP3    H126023   3.046   6.679   6.561 -0.9561  0.0384 -0.0887
 1536TIP3    H226024   2.937   6.754   6.489  0.0988  1.2416 -0.4548
 1537TIP3   OH226025   6.765   1.214   4.556 -0.0268 -0.4972 -0.1930
 1537TIP3    H126026   6.847   1.216   4.506 -1.3856  0.1511 -2.5783
 1537TIP3    H226027   6.734   1.305   4.554 -0.9815 -0.8000  0.3375
 1538TIP3   OH226028   1.687   2.148   4.021  0.3798  0.4238 -0.4882
 1538TIP3    H126029   1.737   2.229   4.009  0.6524  0.5044  1.0348
 1538TIP3    H226030   1.604   2.177   4.060  0.3349  0.0010 -0.2708
 1539TIP3   OH226031   4.836   0.605  12.042  0.4899 -0.4597 -0.5657
 1539TIP3    H126032   4.929   0.606  12.018  0.0783 -0.4785 -2.3033
 1539TIP3    H226033   4.797   0.544  11.979 -0.8741  0.3820 -0.5585
 1540TIP3   OH226034   4.684   0.182   1.146 -0.1029  0.8471 -0.2562
 1540TIP3    H126035   4.604   0.139   1.117 -0.2564  0.3554  0.8768
 1540TIP3    H226036   4.751   0.114   1.141 -0.0156  0.9128  0.0129
 1541TIP3   OH226037   2.297   3.227  11.905  0.8467  0.5651 -0.3468
 1541TIP3    H126038   2.387   3.194  11.904  0.7953  0.4038 -0.0362
 1541TIP3    H226039   2.262   3.203  11.819  0.7850 -0.2795 -0.0987
 1542TIP3   OH226040   0.724   1.986  15.343 -0.3073 -0.3529  0.4769
 1542TIP3    H126041   0.688   2.071  15.318 -1.1793 -0.5728  0.9347
 1542TIP3    H226042   0.672   1.960  15.420  0.5822 -0.8618  0.9235
 1543TIP3   OH226043   3.086   0.776   3.754  0.1222  0.1125  0.3211
 1543TIP3    H126044   3.098   0.870   3.746  0.1510 -0.0210 -1.7303
 1543TIP3    H226045   3.024   0.753   3.685  1.5317 -1.6090 -0.4604
 1544TIP3   OH226046   1.404   1.554   0.263  0.7483  0.1561 -0.2142
 1544TIP3    H126047   1.406   1.596   0.349  0.2258 -0.2919  0.0236
 1544TIP3    H226048   1.314   1.565   0.233  0.6436 -0.6585 -0.2150
 1545TIP3   OH226049   6.471   1.911   3.158  0.3130 -0.2886 -0.4873
 1545TIP3    H126050   6.507   1.822   3.161 -0.3959 -0.6368 -1.6303
 1545TIP3    H226051   6.501   1.947   3.075 -1.4536 -0.3983 -1.2300
 1546TIP3   OH226052   3.974   1.940  13.287 -0.3727  0.1173  0.1100
 1546TIP3    H126053   3.966   1.864  13.230  0.0256 -0.9881  1.4782
 1546TIP3    H226054   3.970   2.015  13.228 -0.7239 -0.9580 -1.2750
 1547TIP3   OH226055   2.385   4.338   4.585 -0.4536 -0.0752 -0.1675
 1547TIP3    H126056   2.360   4.370   4.672  0.6774 -2.4579  1.1358
 1547TIP3    H226057   2.480   4.348   4.583 -0.4330 -0.4088 -0.9835
 1548TIP3   OH226058   4.516   3.762   0.875 -0.1348 -0.0181 -0.1927
 1548TIP3    H126059   4.595   3.815   0.863  0.1203  0.0687  1.4967
 1548TIP3    H226060   4.451   3.800   0.817  0.7115  0.7076 -0.6736
 1549TIP3   OH226061   1.944   6.139   4.727 -0.5441  0.0118  0.1686
 1549TIP3    H126062   1.949   6.235   4.725 -0.1009 -0.0082 -1.9642
 1549TIP3    H226063   1.900   6.116   4.646 -1.6940 -1.5771  1.1933
 1550TIP3   OH226064   5.836   6.385  16.602 -0.0289 -0.1299 -0.6258
 1550TIP3    H126065   5.848   6.425  16.689  1.0686 -0.0378 -0.8047
 1550TIP3    H226066   5.913   6.413  16.552  0.1909 -1.5364 -1.1142
 1551TIP3   OH226067   0.933   3.393  17.219  0.7459  0.3268  0.0723
 1551TIP3    H126068   0.901   3.382  17.309 -1.3641 -1.8846 -0.8392
 1551TIP3    H226069   1.001   3.326  17.210  1.4042  0.9693  0.1842
 1552TIP3   OH226070   2.315   5.936  13.805 -0.0090 -0.4219  0.3764
 1552TIP3    H126071   2.349   5.852  13.836  0.0257 -0.0401  1.4074
 1552TIP3    H226072   2.387   5.998  13.819 -1.1360  0.4540  2.8591
 1553TIP3   OH226073   3.771   6.168  14.422  0.2503  0.0952 -0.3615
 1553TIP3    H126074   3.718   6.104  14.373 -0.3434  0.1010  0.2609
 1553TIP3    H226075   3.814   6.220  14.354  0.0237 -0.3774 -0.8779
 1554TIP3   OH226076   5.811   6.685  12.799 -0.0444  0.0645 -0.0069
 1554TIP3    H126077   5.839   6.648  12.883  0.2496 -0.8023 -0.4780
 1554TIP3    H226078   5.801   6.779  12.817  0.5583 -0.0192  0.8525
 1555TIP3   OH226079   3.648   4.537   2.908  0.6480 -0.6766 -0.0530
 1555TIP3    H126080   3.670   4.621   2.868  0.7793 -1.2193 -1.1375
 1555TIP3    H226081   3.713   4.476   2.874  0.6044 -1.2179  0.7834
 1556TIP3   OH226082   6.250   3.795   2.704  0.0532  0.3465  0.4186
 1556TIP3    H126083   6.290   3.849   2.636 -0.8826  0.2078 -0.2702
 1556TIP3    H226084   6.261   3.705   2.672 -1.7286  0.3578 -0.3406
 1557TIP3   OH226085   4.744   4.230   1.291  0.1750 -0.6674  0.0004
 1557TIP3    H126086   4.661   4.222   1.337 -0.8580  1.2721 -1.3694
 1557TIP3    H226087   4.796   4.291   1.344  0.8996 -2.1046  1.0107
 1558TIP3   OH226088   3.968   4.141   2.560  0.0523 -0.2234 -0.1581
 1558TIP3    H126089   3.921   4.219   2.531  0.7806  0.3051  0.0644
 1558TIP3    H226090   3.989   4.158   2.652  0.9582 -0.3010 -0.3378
 1559TIP3   OH226091   4.339   2.292   4.563 -0.5671  0.2797 -0.5525
 1559TIP3    H126092   4.268   2.345   4.599 -0.1578  0.6235 -0.2459
 1559TIP3    H226093   4.367   2.237   4.636 -0.4192  0.2533 -0.6286
 1560TIP3   OH226094   1.693   4.129  14.180 -0.1074 -0.1612  0.0437
 1560TIP3    H126095   1.600   4.136  14.158 -0.4682  0.6099  1.6671
 1560TIP3    H226096   1.732   4.210  14.146  0.0341 -0.5783 -0.8211
 1561TIP3   OH226097   4.831   4.292   3.400  0.0401  0.5732 -0.4294
 1561TIP3    H126098   4.774   4.279   3.324 -0.3984  0.9030 -0.1630
 1561TIP3    H226099   4.797   4.231   3.466 -1.0335  1.8557  0.2808
 1562TIP3   OH226100   5.084   1.863   1.338  0.0135 -0.2662  0.2144
 1562TIP3    H126101   5.127   1.910   1.410 -0.0102  0.2745 -0.1183
 1562TIP3    H226102   5.050   1.783   1.379 -0.6267  0.3699  0.9709
 1563TIP3   OH226103   1.250   1.345   1.539 -0.1742 -0.2712  0.1505
 1563TIP3    H126104   1.182   1.319   1.477 -2.2925 -1.8452  2.8984
 1563TIP3    H226105   1.332   1.335   1.491 -1.7396  1.3746 -3.2206
 1564TIP3   OH226106   0.702   3.809   1.551  0.3670  0.1693  0.3479
 1564TIP3    H126107   0.729   3.889   1.595 -4.4566  0.7125  2.9598
 1564TIP3    H226108   0.718   3.739   1.614 -0.8723  0.0026  0.4994
 1565TIP3   OH226109   5.792   1.721  17.106 -0.1246  0.0183  0.3554
 1565TIP3    H126110   5.741   1.779  17.050  2.8034  0.9954 -1.5645
 1565TIP3    H226111   5.860   1.777  17.143  1.0254 -1.6166  0.8460
 1566TIP3   OH226112   6.441   3.072  10.634 -0.0112  0.0671 -0.5401
 1566TIP3    H126113   6.389   2.994  10.655 -0.8534  1.0390  1.3141
 1566TIP3    H226114   6.376   3.136  10.606  0.3629  0.8059  0.2440
 1567TIP3   OH226115   2.027   0.964   4.853  0.3648  0.0722 -0.4825
 1567TIP3    H126116   2.049   1.031   4.918  0.9348 -0.6329  0.0739
 1567TIP3    H226117   2.050   1.003   4.769 -1.3265  1.4047 -0.3975
 1568TIP3   OH226118   3.613   0.046  16.079  0.1881  0.4046 -0.1010
 1568TIP3    H126119   3.663  -0.003  16.144  2.0175  1.7429 -0.3901
 1568TIP3    H226120   3.608  -0.012  16.003  1.3312  0.2076 -0.0483
 1569TIP3   OH226121   6.060   6.203  15.240  0.2414 -0.4047  0.2196
 1569TIP3    H126122   6.048   6.236  15.151  0.2668 -0.1473  0.3089
 1569TIP3    H226123   5.981   6.230  15.287  0.6171  0.2414  0.5002
 1570TIP3   OH226124   1.035   1.701  13.207 -0.1967 -0.9779 -0.3714
 1570TIP3    H126125   1.003   1.745  13.287  0.9428 -0.2761 -0.2806
 1570TIP3    H226126   0.957   1.694  13.152 -0.4496  1.2353 -0.4001
 1571TIP3   OH226127   0.217   2.976  12.918 -0.4243  0.4439  0.1066
 1571TIP3    H126128   0.135   2.965  12.870 -0.1418  0.8358 -0.4730
 1571TIP3    H226129   0.237   3.069  12.911 -0.1315  0.4198  0.5854
 1572TIP3   OH226130   5.923   3.990   5.814  0.3835  0.4141  0.0242
 1572TIP3    H126131   5.929   3.907   5.860  0.2813  0.2708 -0.2194
 1572TIP3    H226132   5.869   4.045   5.871  1.4923  0.7320  0.7868
 1573TIP3   OH226133   0.561   3.673   0.243  0.0973 -0.7297  0.6445
 1573TIP3    H126134   0.560   3.768   0.258 -0.3617 -0.7312  0.6469
 1573TIP3    H226135   0.490   3.640   0.298 -0.0369 -1.0190  0.3045
 1574TIP3   OH226136   3.992   3.649  16.072  0.0588 -0.3929  0.1503
 1574TIP3    H126137   3.916   3.691  16.112  0.2404  0.6554 -0.5777
 1574TIP3    H226138   3.963   3.559  16.055 -0.6679 -0.2950  0.8103
 1575TIP3   OH226139   6.663   3.514   5.113 -0.3444  0.7309  0.0387
 1575TIP3    H126140   6.600   3.583   5.132 -2.7440 -0.8863 -1.4670
 1575TIP3    H226141   6.712   3.546   5.037 -0.9634  1.0835 -0.2207
 1576TIP3   OH226142   4.384   2.370   0.469 -0.1838  0.0116 -0.2831
 1576TIP3    H126143   4.446   2.439   0.493 -3.4716  2.9148  0.8723
 1576TIP3    H226144   4.324   2.365   0.544 -3.2523 -0.0530 -2.5536
 1577TIP3   OH226145   5.006   1.926   3.372 -0.7428  0.1157 -0.1710
 1577TIP3    H126146   5.051   2.011   3.375 -0.0980 -0.1621 -1.3518
 1577TIP3    H226147   4.979   1.910   3.462  0.7479  0.7235  0.4150
 1578TIP3   OH226148   1.616   3.329  14.943 -0.0785  0.3116 -0.1394
 1578TIP3    H126149   1.650   3.249  14.984  1.0693  1.5224  1.3963
 1578TIP3    H226150   1.521   3.322  14.950  0.0368 -0.5639  0.6833
 1579TIP3   OH226151   1.821   2.707  11.951  0.5344  0.0675  0.0063
 1579TIP3    H126152   1.897   2.764  11.941  1.6302 -1.5544 -1.4793
 1579TIP3    H226153   1.750   2.766  11.976  1.0882  2.5366 -3.5044
 1580TIP3   OH226154   0.759   1.792  10.033  0.3155 -0.2594  0.3490
 1580TIP3    H126155   0.719   1.763  10.114  1.4234 -0.3006  0.8961
 1580TIP3    H226156   0.761   1.888  10.040  1.3382 -0.3031  0.8438
 1581TIP3   OH226157   0.362   2.437   2.261 -0.0671 -0.0279  1.1026
 1581TIP3    H126158   0.300   2.374   2.297 -3.0440  0.7691 -2.1081
 1581TIP3    H226159   0.414   2.387   2.198  0.0998  0.0159  1.2040
 1582TIP3   OH226160   5.855   1.002  12.744  0.4365  0.0350 -0.0970
 1582TIP3    H126161   5.915   1.067  12.779 -1.0041  0.8431  1.0098
 1582TIP3    H226162   5.778   1.006  12.802 -0.9234 -0.5395 -1.7617
 1583TIP3   OH226163   5.056   3.119   4.070  0.0234  0.3282 -0.3378
 1583TIP3    H126164   4.961   3.107   4.079  0.0722 -0.7899 -1.1288
 1583TIP3    H226165   5.086   3.135   4.160 -1.0180  1.6903 -0.1981
 1584TIP3   OH226166   4.498   4.611  10.884  0.7191 -0.3832  0.0567
 1584TIP3    H126167   4.488   4.704  10.863  0.3260 -0.0705  1.5289
 1584TIP3    H226168   4.571   4.608  10.945 -0.5182 -0.7843  1.5677
 1585TIP3   OH226169   4.955   1.533  12.349  0.4195 -0.0725 -0.2742
 1585TIP3    H126170   4.970   1.470  12.279 -0.5527 -1.5759  0.7806
 1585TIP3    H226171   4.887   1.492  12.403  2.6483 -0.1044  2.7948
 1586TIP3   OH226172   1.652   0.892  10.985  0.4341  0.4523  0.3454
 1586TIP3    H126173   1.738   0.933  10.977  0.7443  0.5482  3.1182
 1586TIP3    H226174   1.664   0.826  11.053 -1.0431 -1.5204 -1.1806
 1587TIP3   OH226175   0.805   0.924  11.883 -0.1540 -0.2041  0.4205
 1587TIP3    H126176   0.869   0.924  11.954 -1.4261  0.9890  1.6276
 1587TIP3    H226177   0.735   0.867  11.914 -1.8490  2.1879  1.2758
 1588TIP3   OH226178   0.560   6.004  11.175 -0.1227 -0.4143  0.3009
 1588TIP3    H126179   0.511   5.933  11.134 -0.6794 -0.2306  0.6362
 1588TIP3    H226180   0.629   6.024  11.113 -3.1438  2.4978 -2.5414
 1589TIP3   OH226181   0.068   1.476   2.888 -0.1364  0.1687  0.1711
 1589TIP3    H126182   0.146   1.485   2.943 -0.3537 -0.5478  0.6061
 1589TIP3    H226183   0.016   1.554   2.907 -1.1417 -0.9891  2.5101
 1590TIP3   OH226184   2.909   2.080  14.294  0.2433 -0.0258 -0.4332
 1590TIP3    H126185   2.923   2.004  14.351  2.3220  0.6172 -0.0181
 1590TIP3    H226186   2.836   2.127  14.334 -1.3846 -1.9520 -0.9296
 1591TIP3   OH226187   4.456   5.660   3.048 -0.0427  0.0034  0.2392
 1591TIP3    H126188   4.495   5.667   3.136  0.1311 -1.2987  0.2927
 1591TIP3    H226189   4.481   5.741   3.004  2.1014 -0.4313  0.5422
 1592TIP3   OH226190   3.013   4.957  12.412  0.2733 -0.9196 -0.1302
 1592TIP3    H126191   3.061   5.040  12.402  1.6861 -1.6854  0.0711
 1592TIP3    H226192   2.934   4.969  12.359  0.0106  0.8808  0.6049
 1593TIP3   OH226193   5.254   6.061   3.896  0.2313 -0.0956 -0.1540
 1593TIP3    H126194   5.312   5.985   3.886 -0.0520 -0.4997  1.0194
 1593TIP3    H226195   5.264   6.086   3.988 -1.0644  0.1310 -0.0571
 1594TIP3   OH226196   5.784   1.146  14.115 -0.3809  0.1716 -0.4321
 1594TIP3    H126197   5.774   1.107  14.028 -1.1157  0.7388 -0.6100
 1594TIP3    H226198   5.695   1.161  14.145 -0.1378 -0.4205  0.6137
 1595TIP3   OH226199   0.979   4.677  17.216  0.7894  0.9104 -0.0288
 1595TIP3    H126200   0.960   4.768  17.238  0.6186  0.6930  0.7486
 1595TIP3    H226201   1.006   4.637  17.299  0.3736  0.1287 -0.2611
 1596TIP3   OH226202   6.688   4.946   2.190 -0.3651 -0.1088  0.2993
 1596TIP3    H126203   6.681   4.931   2.284  0.7443  3.4461  1.0839
 1596TIP3    H226204   6.774   4.911   2.167  0.7058  1.7035  1.3254
 1597TIP3   OH226205   3.989   5.056  11.664 -0.3286 -0.6654 -0.1816
 1597TIP3    H126206   3.899   5.048  11.632 -0.1493 -0.5266 -0.7333
 1597TIP3    H226207   4.029   4.972  11.643 -0.4543 -0.8898  0.4706
 1598TIP3   OH226208   2.166   1.573  12.942  0.2455 -0.6756 -0.3034
 1598TIP3    H126209   2.210   1.593  12.859  0.7958  1.3743  0.4264
 1598TIP3    H226210   2.135   1.483  12.931  2.9802 -1.5673 -1.5569
 1599TIP3   OH226211   4.725   0.882  11.008 -0.1304  0.2021 -0.5486
 1599TIP3    H126212   4.800   0.890  11.068 -1.2248 -0.3336  0.9464
 1599TIP3    H226213   4.726   0.964  10.958  0.6654  0.7852  0.3729
 1600TIP3   OH226214   1.068   5.296  12.987  1.1779 -0.5528 -0.3044
 1600TIP3    H126215   1.069   5.260  13.076  1.2179  0.6238  0.1939
 1600TIP3    H226216   1.157   5.329  12.974  0.8378  0.3735 -0.3059
 1601TIP3   OH226217   0.760   0.108  13.948 -0.2974 -0.1858 -0.3073
 1601TIP3    H126218   0.734   0.032  13.895  1.3555 -0.2966 -1.0550
 1601TIP3    H226219   0.735   0.085  14.037 -1.0274 -1.0359 -0.7136
 1602TIP3   OH226220   1.289   4.512  14.224 -0.1477 -0.1237 -0.0291
 1602TIP3    H126221   1.205   4.469  14.236 -0.6808 -0.3014 -3.3670
 1602TIP3    H226222   1.268   4.593  14.176  1.3832  1.0227  1.1204
 1603TIP3   OH226223   2.029   5.338  13.243  0.2144 -0.0562  0.3141
 1603TIP3    H126224   2.002   5.300  13.327  0.5610 -0.0420  0.4311
 1603TIP3    H226225   1.951   5.385  13.213 -0.3029 -1.0640  0.0431
 1604TIP3   OH226226   5.778   2.742   0.253  0.1825 -0.1189  0.3610
 1604TIP3    H126227   5.684   2.742   0.232  0.1613  0.6885  0.4309
 1604TIP3    H226228   5.787   2.807   0.322  0.8827  0.2246 -0.0476
 1605TIP3   OH226229   0.530   5.398   3.518 -0.3139  0.1613 -0.3178
 1605TIP3    H126230   0.448   5.386   3.567  0.2175 -1.0749  0.3234
 1605TIP3    H226231   0.599   5.380   3.582  0.6039  3.4365 -0.1896
 1606TIP3   OH226232   3.140   0.772  12.530 -0.0602  0.4608 -0.1391
 1606TIP3    H126233   3.206   0.753  12.597  0.2457 -0.2233 -0.6223
 1606TIP3    H226234   3.191   0.796  12.453 -0.3474 -0.7539 -0.7204
 1607TIP3   OH226235   0.420   2.849   0.098  0.2276  0.4429  0.3028
 1607TIP3    H126236   0.444   2.820   0.186 -0.5780 -0.6521  0.1820
 1607TIP3    H226237   0.403   2.768   0.050 -1.0314  1.0755 -0.3581
 1608TIP3   OH226238   1.161   6.315  12.118  0.7162  0.1185 -0.3887
 1608TIP3    H126239   1.250   6.281  12.129  0.0829 -0.8787  2.7135
 1608TIP3    H226240   1.170   6.409  12.133  1.4285  0.2848 -1.7031
 1609TIP3   OH226241   1.612   4.728  11.466 -0.2100  0.3392  0.3705
 1609TIP3    H126242   1.604   4.636  11.491  0.2868  0.0695 -0.4486
 1609TIP3    H226243   1.705   4.748  11.474 -0.4301  1.0468  1.4515
 1610TIP3   OH226244   4.954   4.750   2.044 -0.1511 -0.1098  0.1760
 1610TIP3    H126245   4.865   4.738   2.075 -0.1905  0.9501  0.5032
 1610TIP3    H226246   4.952   4.717   1.954 -0.7214 -0.6293  0.3703
 1611TIP3   OH226247   2.325   2.417  10.579  0.2425 -0.6554  0.1098
 1611TIP3    H126248   2.291   2.347  10.524 -0.4613 -0.2684  0.0422
 1611TIP3    H226249   2.411   2.437  10.541 -1.0247  0.9767 -2.1611
 1612TIP3   OH226250   4.742   6.578   3.419 -0.0095  0.2519 -0.4652
 1612TIP3    H126251   4.757   6.553   3.327 -1.0966  1.5182 -1.0232
 1612TIP3    H226252   4.809   6.644   3.438  1.2392 -1.1449  0.2008
 1613TIP3   OH226253   0.942   0.832  16.908  0.3267 -0.0251 -0.4631
 1613TIP3    H126254   0.868   0.819  16.848 -0.8920  2.1257  0.4233
 1613TIP3    H226255   0.912   0.795  16.991 -0.1504  1.5388  0.1045
 1614TIP3   OH226256   2.171   2.257  13.865 -0.2415  0.1029  0.6939
 1614TIP3    H126257   2.183   2.163  13.852 -0.1965  0.0343  1.2162
 1614TIP3    H226258   2.113   2.283  13.794 -0.9229 -0.4752  1.0230
 1615TIP3   OH226259   2.133   3.862  16.398  0.2902 -0.8779  0.3230
 1615TIP3    H126260   2.066   3.929  16.387  1.4355 -0.0162 -2.0971
 1615TIP3    H226261   2.153   3.863  16.492 -0.1576  1.7585  0.4667
 1616TIP3   OH226262   4.824   1.669   2.474 -0.1793 -0.6276 -0.4604
 1616TIP3    H126263   4.883   1.683   2.548  0.4305  2.0201 -1.3520
 1616TIP3    H226264   4.773   1.592   2.499 -0.0041  0.1484  2.7090
 1617TIP3   OH226265   3.545   3.663  11.180 -0.1068  0.0613 -0.2001
 1617TIP3    H126266   3.453   3.680  11.159 -0.1779  1.6145  1.1797
 1617TIP3    H226267   3.594   3.712  11.114 -0.2569 -0.7918 -0.9558
 1618TIP3   OH226268   2.276   6.288  12.152  0.0052 -0.3094  0.5835
 1618TIP3    H126269   2.280   6.193  12.147 -0.7399 -0.3908  1.4175
 1618TIP3    H226270   2.314   6.318  12.069 -0.5585 -1.3414 -0.0652
 1619TIP3   OH226271   1.546   6.700  11.238 -0.9684 -0.4070 -0.3961
 1619TIP3    H126272   1.535   6.766  11.169 -0.4372  2.4288  2.0276
 1619TIP3    H226273   1.640   6.686  11.244 -0.8506  0.6668  0.7835
 1620TIP3   OH226274   6.259   6.766  12.551 -0.6522  0.0900 -0.0398
 1620TIP3    H126275   6.170   6.730  12.545 -0.7182  0.2306  0.0801
 1620TIP3    H226276   6.261   6.836  12.485 -0.5849 -0.0074 -0.1413
 1621TIP3   OH226277   1.141   5.424   5.751  0.2433 -0.1724 -0.8534
 1621TIP3    H126278   1.054   5.439   5.787 -0.3163 -1.7409 -1.4785
 1621TIP3    H226279   1.144   5.330   5.733  2.8018 -0.5821  1.0959
 1622TIP3   OH226280   2.160   4.117   3.228 -0.1096 -0.1243 -0.7379
 1622TIP3    H126281   2.129   4.174   3.157 -0.8796 -1.0000 -1.1309
 1622TIP3    H226282   2.144   4.168   3.308  0.0515  0.5662 -1.1345
 1623TIP3   OH226283   1.388   0.090  17.095  0.3857 -0.0887 -0.1130
 1623TIP3    H126284   1.434   0.098  17.011 -0.4663 -1.5231 -0.7663
 1623TIP3    H226285   1.357   0.178  17.114  1.3665  0.4429 -0.8322
 1624TIP3   OH226286   2.222   3.464  16.538  0.5066  0.0616 -0.1412
 1624TIP3    H126287   2.219   3.440  16.446  0.2272  1.0278 -0.3915
 1624TIP3    H226288   2.137   3.506  16.555  1.0015  0.9361  0.2487
 1625TIP3   OH226289   5.620   0.104   6.301  0.5425  0.1584 -0.0775
 1625TIP3    H126290   5.662   0.159   6.368 -0.0510  1.1564 -0.5091
 1625TIP3    H226291   5.531   0.136   6.296  0.8321  0.7653 -2.0462
 1626TIP3   OH226292   0.655   1.984   2.086 -0.4865 -0.2218  0.1888
 1626TIP3    H126293   0.691   2.070   2.109 -2.6022  0.4613  1.1327
 1626TIP3    H226294   0.578   2.003   2.033 -1.1720 -1.5373  0.6799
 1627TIP3   OH226295   2.519   4.884   4.770 -0.2632 -0.3898 -0.4231
 1627TIP3    H126296   2.542   4.845   4.686 -1.5015  1.3091 -1.6090
 1627TIP3    H226297   2.431   4.919   4.758  0.0020  1.0057  1.1820
 1628TIP3   OH226298   4.286   3.149  15.976 -0.9336  0.7420 -0.0094
 1628TIP3    H126299   4.256   3.105  16.055 -1.8566  0.6636 -0.3879
 1628TIP3    H226300   4.356   3.207  16.006 -1.3175  0.7701  0.8713
 1629TIP3   OH226301   1.013   2.418  11.522  0.0351  0.0012 -0.5409
 1629TIP3    H126302   1.094   2.461  11.550  0.7327 -0.9104 -1.1031
 1629TIP3    H226303   1.042   2.346  11.466 -1.1105 -1.1202  0.2660
 1630TIP3   OH226304   3.447   4.943   0.653 -0.1036 -0.5611 -0.3467
 1630TIP3    H126305   3.421   4.852   0.666  0.5908 -0.5399  1.4818
 1630TIP3    H226306   3.410   4.990   0.728  0.8503  0.3638 -0.4319
 1631TIP3   OH226307   5.590   3.052  11.956 -0.2698 -0.7651 -0.0796
 1631TIP3    H126308   5.656   2.991  11.923 -0.6467 -1.1787 -0.0803
 1631TIP3    H226309   5.527   3.059  11.885 -1.0120 -1.5503  0.4769
 1632TIP3   OH226310   4.901   2.664   5.521  0.5602 -0.4431  0.0678
 1632TIP3    H126311   4.855   2.641   5.440  1.6104  0.1820 -0.7344
 1632TIP3    H226312   4.979   2.608   5.521  0.2245 -0.9442  1.0218
 1633TIP3   OH226313   3.932   0.328   4.827  0.7752 -0.7514  0.2406
 1633TIP3    H126314   4.000   0.269   4.859  0.7190 -0.4482  0.9303
 1633TIP3    H226315   3.947   0.410   4.874 -0.3136 -0.8067  0.7038
 1634TIP3   OH226316   3.078   0.881   1.335 -0.1413 -0.2528  0.8358
 1634TIP3    H126317   2.986   0.878   1.362 -0.9103  3.7454 -0.6863
 1634TIP3    H226318   3.126   0.849   1.411 -2.6879 -0.7699  2.3458
 1635TIP3   OH226319   5.523   1.378   1.770 -0.4878 -0.7237 -0.4610
 1635TIP3    H126320   5.613   1.386   1.740 -0.6573  1.3981 -0.5932
 1635TIP3    H226321   5.474   1.439   1.715 -1.2222  1.4983  2.3594
 1636TIP3   OH226322   0.866   6.437  16.705  0.5876  0.3177 -0.5197
 1636TIP3    H126323   0.923   6.429  16.782  0.4248  1.5235 -0.2556
 1636TIP3    H226324   0.847   6.531  16.699 -0.2543  0.1035 -1.4182
 1637TIP3   OH226325   2.663   4.893   4.212  0.1874 -0.5394  0.1088
 1637TIP3    H126326   2.669   4.797   4.211 -0.3054 -0.6805  2.9017
 1637TIP3    H226327   2.576   4.911   4.175  0.4077 -1.1313 -0.7312
 1638TIP3   OH226328   6.577   2.417  14.597 -0.3335  0.0192  0.2848
 1638TIP3    H126329   6.485   2.429  14.620 -1.0990 -0.2602 -2.3995
 1638TIP3    H226330   6.579   2.339  14.541  1.4536  0.3405 -0.1841
 1639TIP3   OH226331   3.992   0.173   1.209  1.0742  0.3208  0.3583
 1639TIP3    H126332   3.913   0.227   1.211 -0.5338 -1.7748 -1.3254
 1639TIP3    H226333   4.059   0.231   1.171 -0.5833  1.1606 -1.4773
 1640TIP3   OH226334   3.378   4.916   2.216  0.0226  0.0869  0.1546
 1640TIP3    H126335   3.467   4.936   2.187  0.4552 -0.1444  1.2545
 1640TIP3    H226336   3.376   4.946   2.307 -1.0594  0.1709  0.1124
 1641TIP3   OH226337   3.556   0.749  15.924 -0.6030  0.2005 -0.1674
 1641TIP3    H126338   3.467   0.782  15.914 -0.5940  0.4708  0.5546
 1641TIP3    H226339   3.611   0.820  15.891 -0.6561 -0.1118 -0.9573
 1642TIP3   OH226340   2.279   3.440  14.180  0.1013  0.0430 -0.6629
 1642TIP3    H126341   2.312   3.500  14.247  0.4805 -0.0715 -0.7462
 1642TIP3    H226342   2.220   3.493  14.126 -1.1403 -0.1259  0.4535
 1643TIP3   OH226343   1.003   0.353  10.685 -0.1533  0.4369  0.2366
 1643TIP3    H126344   0.996   0.308  10.601  0.5052 -0.3229  0.5769
 1643TIP3    H226345   0.954   0.297  10.746 -1.6299  1.5737  0.1587
 1644TIP3   OH226346   4.829   2.232  13.432 -0.2724  0.0434 -0.2512
 1644TIP3    H126347   4.828   2.177  13.510  0.8455 -0.9252 -0.8862
 1644TIP3    H226348   4.908   2.285  13.441 -0.9501  1.0385 -0.0038
 1645TIP3   OH226349   0.410   0.940   1.283 -0.5568  0.4050  0.0657
 1645TIP3    H126350   0.405   0.846   1.268 -0.0240  0.3735  0.0777
 1645TIP3    H226351   0.347   0.956   1.354 -0.0309 -0.0755  0.6548
 1646TIP3   OH226352   4.819   0.716   3.099 -0.1756  0.2711 -0.1918
 1646TIP3    H126353   4.830   0.621   3.090  0.7627  0.2564  0.8463
 1646TIP3    H226354   4.893   0.743   3.153 -2.1584  1.0993  2.3209
 1647TIP3   OH226355   6.271   4.462  12.854 -0.3475 -0.3563  0.4469
 1647TIP3    H126356   6.224   4.413  12.921  2.4309 -0.1749  2.7226
 1647TIP3    H226357   6.242   4.552  12.865 -1.2819 -0.6053  0.1048
 1648TIP3   OH226358   4.001   4.858  14.038  0.3633 -0.0948 -0.0852
 1648TIP3    H126359   4.014   4.764  14.055  0.2675  0.1571  1.5033
 1648TIP3    H226360   3.909   4.864  14.011  0.5488 -0.5260 -0.8610
 1649TIP3   OH226361   1.092   0.335   3.442 -0.3435 -0.6031  0.1357
 1649TIP3    H126362   1.145   0.275   3.390 -1.6678 -0.7595 -1.1175
 1649TIP3    H226363   1.151   0.407   3.466  0.5603 -1.0655 -0.6756
 1650TIP3   OH226364   0.091   1.681   6.228 -0.2304  0.3986 -0.0989
 1650TIP3    H126365   0.060   1.746   6.164  1.5908  1.8919  0.4451
 1650TIP3    H226366   0.036   1.694   6.305 -0.6321  0.4980 -0.4009
 1651TIP3   OH226367   1.825   6.415  14.595 -0.0880  0.7309 -0.1599
 1651TIP3    H126368   1.902   6.393  14.542 -0.5521  2.2083 -1.5235
 1651TIP3    H226369   1.862   6.447  14.678  0.6665 -0.7955  0.1432
 1652TIP3   OH226370   5.256   2.037  13.761 -0.1215  0.2234 -0.6208
 1652TIP3    H126371   5.320   2.006  13.825  1.9311  1.8318 -1.7698
 1652TIP3    H226372   5.246   1.965  13.699  0.0997 -0.2783 -0.0697
 1653TIP3   OH226373   5.680   0.290   5.315  0.5301  0.6565  0.2157
 1653TIP3    H126374   5.768   0.300   5.277  0.9951 -2.0682  0.3542
 1653TIP3    H226375   5.637   0.226   5.257 -0.8935  0.9649  0.9045
 1654TIP3   OH226376   0.211   5.576  14.311  0.1157 -0.2511  0.0782
 1654TIP3    H126377   0.253   5.651  14.268 -0.5707 -0.6486 -1.3646
 1654TIP3    H226378   0.284   5.523  14.343  0.7654 -0.7687 -2.0865
 1655TIP3   OH226379   2.603   1.045  13.238  0.1596 -0.1327  0.4878
 1655TIP3    H126380   2.679   1.025  13.292 -0.6631 -0.9788  1.3772
 1655TIP3    H226381   2.555   0.963  13.232 -0.7210  0.3931 -0.0035
 1656TIP3   OH226382   6.504   6.338  11.040  0.3003  0.6229  0.1278
 1656TIP3    H126383   6.489   6.295  10.956 -1.2142  0.3267  0.5159
 1656TIP3    H226384   6.418   6.339  11.082  0.8977  1.3634  1.3973
 1657TIP3   OH226385   4.999   2.354   1.203 -0.1189  0.2159  0.2401
 1657TIP3    H126386   4.988   2.272   1.250  1.4507  0.0821  0.4468
 1657TIP3    H226387   4.960   2.339   1.117  1.2273 -1.2076 -0.1706
 1658TIP3   OH226388   2.035   0.308  17.177 -0.3357  0.2512  0.1980
 1658TIP3    H126389   1.973   0.256  17.126 -0.3648  0.1087  0.3802
 1658TIP3    H226390   2.004   0.398  17.168  0.6626  0.4662 -1.5075
 1659TIP3   OH226391   5.657   3.283   4.297 -0.3176 -0.2683 -0.4013
 1659TIP3    H126392   5.638   3.374   4.323 -1.5430 -0.4726 -0.5356
 1659TIP3    H226393   5.731   3.258   4.351 -0.3619  0.6108  0.0865
 1660TIP3   OH226394   4.781   6.316   3.725  0.3488  0.2261  0.1779
 1660TIP3    H126395   4.792   6.249   3.657 -1.2699  0.2798 -0.1857
 1660TIP3    H226396   4.822   6.278   3.802  2.9238  0.4793 -0.9493
 1661TIP3   OH226397   1.193   0.867  17.025  0.6959 -0.8714 -0.1704
 1661TIP3    H126398   1.122   0.847  16.965  1.1553 -0.5967 -0.8134
 1661TIP3    H226399   1.150   0.885  17.109 -0.2515  1.9922 -1.1475
 1662TIP3   OH226400   0.554   5.395   6.260 -0.3726 -0.2039 -0.0474
 1662TIP3    H126401   0.501   5.329   6.216  1.1591 -0.5973 -1.3891
 1662TIP3    H226402   0.568   5.462   6.193  0.3236  0.1770  0.4679
 1663TIP3   OH226403   0.300   1.780  16.242 -0.0261 -0.0384  0.0025
 1663TIP3    H126404   0.210   1.767  16.214 -0.6582 -1.0816  2.3293
 1663TIP3    H226405   0.344   1.697  16.222  0.2432  0.2183 -0.4816
 1664TIP3   OH226406   1.442   1.096  12.922  0.2030  0.1464 -0.4858
 1664TIP3    H126407   1.385   1.042  12.866  1.1029 -2.1421  0.7007
 1664TIP3    H226408   1.525   1.099  12.875 -0.0849  1.2994 -0.9616
 1665TIP3   OH226409   3.018   2.815  13.975  0.3884 -0.1274 -0.1807
 1665TIP3    H126410   2.937   2.769  14.000  0.4703 -0.9485 -1.3042
 1665TIP3    H226411   3.069   2.748  13.928  1.4675  0.5448  0.0073
 1666TIP3   OH226412   0.648   5.793  15.963  0.5514  0.2596 -0.0997
 1666TIP3    H126413   0.690   5.837  15.889  0.2429 -1.4706 -1.3791
 1666TIP3    H226414   0.576   5.851  15.988 -0.1237  0.3332 -2.0257
 1667TIP3   OH226415   4.427   5.095  11.527  0.0650  0.2699  0.1143
 1667TIP3    H126416   4.505   5.149  11.521 -0.0259  0.3923  0.0294
 1667TIP3    H226417   4.390   5.116  11.613 -1.1817  2.0116 -0.7926
 1668TIP3   OH226418   1.585   3.020   0.326  0.1666 -0.0160  0.3699
 1668TIP3    H126419   1.591   2.924   0.331  1.1760 -0.1209 -1.7996
 1668TIP3    H226420   1.658   3.052   0.378  1.5137 -0.5529 -1.1014
 1669TIP3   OH226421   0.428   3.802  14.000 -0.3300 -0.5969 -0.4766
 1669TIP3    H126422   0.458   3.863  13.933  0.0424 -0.4088 -0.1445
 1669TIP3    H226423   0.383   3.733  13.952  0.3352 -0.6979 -0.9603
 1670TIP3   OH226424   5.108   6.471   0.306  0.0672  0.3834 -0.1850
 1670TIP3    H126425   5.171   6.540   0.326 -0.0381  0.9419 -1.7016
 1670TIP3    H226426   5.161   6.399   0.274  0.0377  0.3578 -0.1760
 1671TIP3   OH226427   3.045   0.629  14.767 -0.1021 -0.1894 -0.8918
 1671TIP3    H126428   3.072   0.537  14.761  2.4588  0.3996  0.4381
 1671TIP3    H226429   3.049   0.660  14.676 -1.4856 -1.4501 -1.4369
 1672TIP3   OH226430   2.507   6.112   3.664  0.5151  0.0422 -0.2895
 1672TIP3    H126431   2.600   6.113   3.687  0.3755 -0.3982  0.3119
 1672TIP3    H226432   2.506   6.122   3.569  1.2333 -0.9083 -0.4204
 1673TIP3   OH226433   6.088   3.098   6.112  0.1411 -0.2057  0.2328
 1673TIP3    H126434   6.135   3.075   6.032 -0.6128 -1.6100  0.1583
 1673TIP3    H226435   6.078   3.015   6.159  0.0122  0.4898  1.4861
 1674TIP3   OH226436   0.031   4.218  14.369 -0.0128  0.0087  0.1567
 1674TIP3    H126437   0.081   4.189  14.446 -0.4089 -0.4092  0.2621
 1674TIP3    H226438  -0.057   4.184  14.384 -0.8927  2.4314  0.9609
 1675TIP3   OH226439   4.742   3.629  17.117 -0.5582 -0.2669  0.3091
 1675TIP3    H126440   4.820   3.682  17.100 -0.5990 -0.5414 -0.8463
 1675TIP3    H226441   4.746   3.609  17.210  1.3697 -1.2114  0.0804
 1676TIP3   OH226442   2.485   5.922   2.425 -0.2680 -0.4109  0.6896
 1676TIP3    H126443   2.495   6.002   2.476  0.5713 -1.1648  1.7527
 1676TIP3    H226444   2.492   5.852   2.490  0.0943 -1.3767 -0.3759
 1677TIP3   OH226445   3.527   3.385  11.655  0.4469 -0.2392  0.0933
 1677TIP3    H126446   3.507   3.465  11.703  0.2058 -0.0036 -0.4014
 1677TIP3    H226447   3.472   3.318  11.696  0.6177 -0.1476  0.4759
 1678TIP3   OH226448   1.045   6.419  16.945  0.0308  0.2210 -0.4495
 1678TIP3    H126449   1.057   6.482  17.016 -0.5454  1.1866 -1.1731
 1678TIP3    H226450   1.133   6.386  16.927  0.2073  0.1199  0.5640
 1679TIP3   OH226451   4.254   3.569   2.444  0.5112  0.8973 -0.2505
 1679TIP3    H126452   4.186   3.587   2.509  1.8712 -0.7749  1.7727
 1679TIP3    H226453   4.295   3.488   2.474  1.9899  0.6868 -2.5875
 1680TIP3   OH226454   4.157   6.425  10.835  0.5312 -0.0990  0.4640
 1680TIP3    H126455   4.072   6.445  10.873  1.1744 -1.3547  2.7227
 1680TIP3    H226456   4.137   6.366  10.762 -0.5000 -1.2056  1.5991
 1681TIP3   OH226457   0.191   6.116   4.846  0.3276  0.5294  0.0025
 1681TIP3    H126458   0.247   6.090   4.919  1.5571  0.2737 -1.0075
 1681TIP3    H226459   0.164   6.205   4.866  0.4761  0.3854  0.8586
 1682TIP3   OH226460   4.986   3.855  14.717  0.4099  0.1188 -0.5490
 1682TIP3    H126461   4.895   3.867  14.743  1.5272  1.3941  3.6050
 1682TIP3    H226462   4.998   3.912  14.642 -2.0240  0.4732 -0.7273
 1683TIP3   OH226463   6.267   5.799   0.835  0.2070 -0.4718 -0.4442
 1683TIP3    H126464   6.355   5.784   0.870  0.0694 -0.9534 -0.2886
 1683TIP3    H226465   6.277   5.790   0.741  0.8488  2.1782 -0.7113
 1684TIP3   OH226466   5.392   1.922   5.794  0.4941  0.0693 -0.9465
 1684TIP3    H126467   5.371   2.010   5.764 -0.5828  0.1987  0.1251
 1684TIP3    H226468   5.307   1.882   5.812  1.0148 -0.8064 -0.3717
 1685TIP3   OH226469   6.767   3.455  15.365 -0.1599 -0.2917 -0.3070
 1685TIP3    H126470   6.688   3.431  15.317  0.6254 -4.0878 -0.0414
 1685TIP3    H226471   6.737   3.468  15.455 -0.4673 -3.1702  0.1134
 1686TIP3   OH226472   1.364   3.937   4.431  0.1968 -0.0777  0.4970
 1686TIP3    H126473   1.443   3.937   4.376  0.3155  1.1572  0.6546
 1686TIP3    H226474   1.297   3.978   4.376 -0.1749 -0.5473  0.5987
 1687TIP3   OH226475   0.521   3.413  12.967 -0.4643  0.1243 -0.3311
 1687TIP3    H126476   0.552   3.444  12.882 -1.0393 -0.4298 -0.7458
 1687TIP3    H226477   0.592   3.436  13.027  0.4477 -0.4717 -1.1426
 1688TIP3   OH226478   5.623   5.098  10.595  0.0333  0.2247 -0.2964
 1688TIP3    H126479   5.551   5.070  10.651  0.4799  1.2591  0.8254
 1688TIP3    H226480   5.581   5.131  10.516 -0.6780  0.0230 -0.0083
 1689TIP3   OH226481   3.568   6.233  13.284  1.0283  0.1314 -0.3766
 1689TIP3    H126482   3.627   6.284  13.228 -0.0999  0.4229 -1.3471
 1689TIP3    H226483   3.491   6.219  13.230  0.5126 -0.9023  0.5955
 1690TIP3   OH226484   3.845   3.877   6.027 -0.7794 -1.0113  0.6945
 1690TIP3    H126485   3.756   3.863   5.994 -0.4749 -1.3071 -0.0234
 1690TIP3    H226486   3.833   3.912   6.115 -1.6081 -1.4195  0.7527
 1691TIP3   OH226487   4.542   0.673  13.076 -0.3337  0.3080 -0.3745
 1691TIP3    H126488   4.478   0.604  13.092  1.9168 -2.0548 -0.8776
 1691TIP3    H226489   4.549   0.719  13.159 -0.7607 -1.1047  0.4809
 1692TIP3   OH226490   4.739   2.590  13.679 -0.7006  0.0355 -0.0040
 1692TIP3    H126491   4.744   2.634  13.764 -0.0520  0.5555 -0.3011
 1692TIP3    H226492   4.830   2.572  13.656 -0.7343  1.3011 -1.2952
 1693TIP3   OH226493   3.116   3.516  13.787 -0.0944 -1.0949 -0.1323
 1693TIP3    H126494   3.181   3.446  13.793 -0.6716 -1.7975 -1.5548
 1693TIP3    H226495   3.152   3.586  13.841  1.5251 -1.7148 -0.3372
 1694TIP3   OH226496   0.858   4.755  13.329  0.4474 -0.3227 -0.1906
 1694TIP3    H126497   0.800   4.813  13.279 -0.5892 -0.9753  0.2063
 1694TIP3    H226498   0.801   4.717  13.396  0.7021 -2.8041 -1.2461
 1695TIP3   OH226499   5.861   1.340   0.181  0.2686  0.1261  0.5365
 1695TIP3    H126500   5.807   1.418   0.188 -1.4030 -0.9313 -0.1465
 1695TIP3    H226501   5.833   1.285   0.254  1.1422 -0.0352  0.7653
 1696TIP3   OH226502   6.007   3.919  11.301  0.2824  0.1668 -0.2571
 1696TIP3    H126503   6.000   3.928  11.206  0.1532  1.7586 -0.1233
 1696TIP3    H226504   6.101   3.923  11.318  0.3695 -1.0364 -0.3757
 1697TIP3   OH226505   0.300   6.027   0.988 -0.4961 -1.3736 -0.2214
 1697TIP3    H126506   0.219   6.038   1.038 -0.7509 -2.1981 -0.4290
 1697TIP3    H226507   0.296   6.094   0.920 -0.2568 -0.3951  0.7092
 1698TIP3   OH226508   1.820   5.769   4.772  0.1456 -0.2539  0.6717
 1698TIP3    H126509   1.874   5.758   4.850  1.3417 -1.8615 -0.2993
 1698TIP3    H226510   1.879   5.809   4.708 -0.6806  0.6243  0.4408
 1699TIP3   OH226511   0.966   5.035   3.968 -0.9658 -0.0649  0.1954
 1699TIP3    H126512   0.915   4.986   3.904 -0.5560  0.5421 -0.6162
 1699TIP3    H226513   1.057   5.021   3.941 -0.7964  0.2442  0.6052
 1700TIP3   OH226514   0.705   1.997  11.942  0.1210 -0.1883  0.8099
 1700TIP3    H126515   0.684   1.913  11.900 -2.1122 -0.4872  2.3010
 1700TIP3    H226516   0.650   2.061  11.896  0.5635  0.1689  0.7713
 1701TIP3   OH226517   1.885   6.130  12.833  0.1043 -0.4822  0.1931
 1701TIP3    H126518   1.950   6.151  12.901 -0.4424 -1.1498  0.9384
 1701TIP3    H226519   1.923   6.056  12.786  0.5454  0.0657 -0.3273
 1702TIP3   OH226520   6.633   2.188  14.298 -0.3170 -0.4177  0.4116
 1702TIP3    H126521   6.623   2.103  14.255  0.3655  0.0437 -0.7016
 1702TIP3    H226522   6.587   2.179  14.381 -1.8406 -1.2939 -0.4924
 1703TIP3   OH226523   4.876   1.642  12.981 -0.5508  0.2409  0.0625
 1703TIP3    H126524   4.799   1.628  13.036 -0.4819  0.4325  0.2054
 1703TIP3    H226525   4.881   1.736  12.969 -1.4048  0.1221 -1.4822
 1704TIP3   OH226526   1.726   1.696   5.563  0.1563  0.2192  0.3756
 1704TIP3    H126527   1.634   1.707   5.541  0.2232 -0.5099 -0.2919
 1704TIP3    H226528   1.728   1.619   5.620  0.4451 -0.2827 -0.3030
 1705TIP3   OH226529   2.309   4.210  11.607 -0.0114 -0.0899  0.2752
 1705TIP3    H126530   2.305   4.115  11.597  1.3943 -0.2079  0.5312
 1705TIP3    H226531   2.357   4.223  11.689 -0.4973  0.8464  0.4251
 1706TIP3   OH226532   0.965   1.143   4.730  0.3796  0.2806 -0.2366
 1706TIP3    H126533   0.971   1.239   4.729  1.0736  0.2539 -1.8442
 1706TIP3    H226534   1.013   1.117   4.808  0.7215  1.2220 -0.1177
 1707TIP3   OH226535   4.179   1.524  14.026 -0.4263  0.1130  0.0354
 1707TIP3    H126536   4.205   1.482  14.108 -2.8817 -0.7397  0.4845
 1707TIP3    H226537   4.218   1.469  13.958  0.1151 -0.2714  0.6448
 1708TIP3   OH226538   4.091   3.982   6.679  0.6789  0.2194  0.4623
 1708TIP3    H126539   4.027   3.912   6.669  1.7825 -0.6622 -0.7888
 1708TIP3    H226540   4.159   3.944   6.736  0.6185  0.7694  0.9088
 1709TIP3   OH226541   0.874   4.637  12.245  0.4507 -0.2432  0.6530
 1709TIP3    H126542   0.857   4.723  12.283 -0.0914 -0.4433  0.8583
 1709TIP3    H226543   0.792   4.611  12.204  0.2353 -1.2092  1.6544
 1710TIP3   OH226544   6.719   0.137  16.143  0.2992 -0.1665  0.2861
 1710TIP3    H126545   6.775   0.090  16.082 -0.9339  0.2252 -1.2345
 1710TIP3    H226546   6.648   0.076  16.163  0.0189  0.1515  0.2892
 1711TIP3   OH226547   4.191   5.793   2.355  0.1815 -0.8565 -0.5746
 1711TIP3    H126548   4.175   5.856   2.426 -0.3320  0.9455 -2.1844
 1711TIP3    H226549   4.247   5.726   2.394  0.7861  0.6063  1.2404
 1712TIP3   OH226550   0.768   5.964   1.111  0.0260 -0.4049 -1.0451
 1712TIP3    H126551   0.719   5.985   1.032 -0.3469  1.0305 -0.4641
 1712TIP3    H226552   0.734   6.024   1.177 -1.2344 -2.9612  0.8326
 1713TIP3   OH226553   2.287   2.456   3.362 -0.3597 -0.1078  0.3103
 1713TIP3    H126554   2.302   2.370   3.323 -1.2662 -1.1410  2.1061
 1713TIP3    H226555   2.258   2.437   3.452 -0.0277  2.0867  0.9486
 1714TIP3   OH226556   6.250   4.169   0.973 -0.0164 -0.2963 -0.5080
 1714TIP3    H126557   6.340   4.145   0.996 -0.4998  0.3395  2.4614
 1714TIP3    H226558   6.258   4.248   0.920  1.1878  0.0224  0.1252
 1715TIP3   OH226559   3.931   4.625  16.024  0.4283 -0.2100 -0.4029
 1715TIP3    H126560   4.005   4.610  16.083 -0.0900  0.1960  0.3615
 1715TIP3    H226561   3.853   4.616  16.079 -0.1152 -0.8819 -1.2470
 1716TIP3   OH226562   3.402   6.133  13.040  0.3714  0.5333 -0.0405
 1716TIP3    H126563   3.460   6.082  12.983  0.5104  1.7674 -1.0606
 1716TIP3    H226564   3.375   6.208  12.986 -1.5677  0.4077  0.6611
 1717TIP3   OH226565   0.595   6.499   3.456  0.4479  0.1448  0.5716
 1717TIP3    H126566   0.598   6.408   3.486  2.0784  0.1789  0.6193
 1717TIP3    H226567   0.576   6.492   3.362  1.6110 -0.3359  0.3472
 1718TIP3   OH226568   0.328   3.268   5.442  0.0871  0.3863 -0.0096
 1718TIP3    H126569   0.410   3.222   5.459 -0.0888 -0.1720 -0.6090
 1718TIP3    H226570   0.331   3.288   5.348 -0.9155 -0.5714 -0.2635
 1719TIP3   OH226571   6.106   2.430   3.035  0.1165  0.5065  0.1344
 1719TIP3    H126572   6.183   2.458   3.084  0.3375  1.2506 -0.6116
 1719TIP3    H226573   6.102   2.490   2.960 -0.8522  0.1082 -0.1507
 1720TIP3   OH226574   3.653   2.359  11.369  0.5494  0.3128  0.5370
 1720TIP3    H126575   3.726   2.406  11.331 -1.4337  2.3376 -1.0189
 1720TIP3    H226576   3.595   2.339  11.295 -0.7681 -0.6953  1.7673
 1721TIP3   OH226577   3.388   5.984   4.829 -0.0378 -0.1337  0.1418
 1721TIP3    H126578   3.397   6.066   4.879 -0.6087  0.3653 -0.5530
 1721TIP3    H226579   3.340   5.926   4.888  0.7596 -0.1347  0.8136
 1722TIP3   OH226580   2.982   1.143   1.220 -0.2197  0.2394 -0.0859
 1722TIP3    H126581   2.975   1.080   1.148 -0.0740  3.1208 -2.8705
 1722TIP3    H226582   3.074   1.170   1.220 -0.2883  0.5104  0.9772
 1723TIP3   OH226583   5.698   5.675  15.599  1.0565 -0.1933  0.1631
 1723TIP3    H126584   5.657   5.624  15.669 -0.4048 -1.4414 -1.5035
 1723TIP3    H226585   5.653   5.759  15.600 -1.7195 -1.5272 -1.6082
 1724TIP3   OH226586   6.089   4.933  12.574  0.1869 -0.0216  0.3405
 1724TIP3    H126587   6.058   5.015  12.534 -1.6185 -1.0527 -0.5071
 1724TIP3    H226588   6.184   4.938  12.567  0.1907  2.3557  1.0760
 1725TIP3   OH226589   0.443   3.265  16.851 -0.0837 -0.2735 -0.7207
 1725TIP3    H126590   0.507   3.264  16.922 -1.5825  0.3983  0.6844
 1725TIP3    H226591   0.496   3.249  16.772  1.9218  0.9792  0.2762
 1726TIP3   OH226592   1.363   6.171   4.764 -0.4244 -0.0508  0.2549
 1726TIP3    H126593   1.425   6.117   4.715  0.6923  1.5516 -0.1985
 1726TIP3    H226594   1.291   6.187   4.702  0.0178  0.3155 -0.1668
 1727TIP3   OH226595   6.137   0.794   2.214 -0.0006 -0.4764  0.1319
 1727TIP3    H126596   6.062   0.852   2.213  0.8038  0.6064 -1.0530
 1727TIP3    H226597   6.180   0.810   2.298 -0.7025 -0.5979  0.5153
 1728TIP3   OH226598   0.822   5.022   0.164  0.1211 -0.9783  0.3168
 1728TIP3    H126599   0.839   5.068   0.082  0.8413  0.4521  1.2236
 1728TIP3    H226600   0.897   4.964   0.175  0.6475 -0.2742  0.5421
 1729TIP3   OH226601   0.655   3.483   0.047  0.0603  0.1826  0.2043
 1729TIP3    H126602   0.634   3.549   0.113  2.0921  1.2205 -0.1161
 1729TIP3    H226603   0.635   3.399   0.089  1.0604  0.8317  2.0800
 1730TIP3   OH226604   3.241   3.476   1.729  0.5025  0.0003 -0.1834
 1730TIP3    H126605   3.312   3.536   1.707  0.1323  0.2290 -0.7850
 1730TIP3    H226606   3.202   3.511   1.809 -0.2590  1.0595 -0.9972
 1731TIP3   OH226607   5.664   4.606  17.088 -0.1463 -0.2840 -0.5380
 1731TIP3    H126608   5.698   4.662  17.018 -1.0128 -1.0316 -1.6032
 1731TIP3    H226609   5.740   4.584  17.141  0.5454  0.2709 -1.2771
 1732TIP3   OH226610   2.491   4.674  11.606  0.4034 -0.4515  0.0974
 1732TIP3    H126611   2.403   4.699  11.577  0.2510 -0.4731  0.5276
 1732TIP3    H226612   2.543   4.753  11.598  0.2609 -0.3511  0.1646
 1733TIP3   OH226613   5.363   1.082  16.015  0.3512  0.2819  0.0715
 1733TIP3    H126614   5.421   1.104  16.088 -0.0905  1.2426  0.1400
 1733TIP3    H226615   5.408   1.115  15.937  0.8812 -0.8529 -0.1207
 1734TIP3   OH226616   2.401   6.585   0.366  0.5004  0.0763 -0.1106
 1734TIP3    H126617   2.362   6.560   0.282  1.3395  0.4398 -0.6169
 1734TIP3    H226618   2.414   6.679   0.359  0.0382  0.2061  0.6638
 1735TIP3   OH226619   0.280   0.724   4.843 -0.0295 -0.3478  0.1169
 1735TIP3    H126620   0.239   0.760   4.922 -0.9117 -0.2482 -0.3745
 1735TIP3    H226621   0.227   0.648   4.820 -0.9077  0.6738 -1.4040
 1736TIP3   OH226622   3.836   1.813  17.042 -0.2171  0.0191 -0.2295
 1736TIP3    H126623   3.875   1.770  16.966 -0.3636 -0.6990  0.0957
 1736TIP3    H226624   3.907   1.818  17.106 -0.6571 -1.4274  0.4211
 1737TIP3   OH226625   1.013   3.694   4.227 -0.4071  0.0080 -0.8396
 1737TIP3    H126626   1.026   3.770   4.284  0.4950  0.0764 -1.1287
 1737TIP3    H226627   0.921   3.671   4.239 -0.7718  1.3122 -0.9471
 1738TIP3   OH226628   3.153   2.029  14.874  0.2135 -0.0235 -0.3912
 1738TIP3    H126629   3.137   2.045  14.781 -0.9860 -0.1792 -0.2303
 1738TIP3    H226630   3.187   1.939  14.876 -1.7462 -0.8096 -0.5274
 1739TIP3   OH226631   0.839   3.699   2.958 -0.3350 -0.1984  0.1487
 1739TIP3    H126632   0.790   3.639   3.015 -0.1865 -0.6861 -0.2292
 1739TIP3    H226633   0.908   3.644   2.920 -0.0576  0.2694 -0.0300
 1740TIP3   OH226634   5.312   2.819   4.494  0.3440  0.4216  0.0674
 1740TIP3    H126635   5.315   2.731   4.531  2.2470 -0.0646 -1.0901
 1740TIP3    H226636   5.236   2.860   4.535 -1.2142 -2.0805 -0.1128
 1741TIP3   OH226637   1.129   1.312   2.915  0.8254 -0.0260 -0.5590
 1741TIP3    H126638   1.160   1.369   2.844 -2.3130  1.0914 -1.1859
 1741TIP3    H226639   1.072   1.368   2.967  2.1693 -1.1468  2.2884
 1742TIP3   OH226640   4.456   0.113  13.238 -0.1361 -0.3551 -0.3543
 1742TIP3    H126641   4.371   0.140  13.271  0.5744 -0.3065  1.5760
 1742TIP3    H226642   4.451   0.018  13.232  0.2357 -0.5254  1.5576
 1743TIP3   OH226643   4.803   4.126   2.428  0.1753  0.3924 -0.5358
 1743TIP3    H126644   4.752   4.198   2.465 -1.6931 -0.3455 -1.5331
 1743TIP3    H226645   4.780   4.126   2.335 -0.8618 -2.2319 -0.3504
 1744TIP3   OH226646   1.539   4.089   5.308 -0.0211  0.1314 -0.5211
 1744TIP3    H126647   1.465   4.143   5.337  0.9419  0.1947  2.0317
 1744TIP3    H226648   1.500   4.002   5.293 -0.7699  0.3840 -0.1128
 1745TIP3   OH226649   6.078   5.048  16.006 -0.0096 -0.1126  0.0147
 1745TIP3    H126650   5.999   4.998  15.986  0.2691 -0.0195 -1.4911
 1745TIP3    H226651   6.046   5.132  16.040 -0.5297 -0.4586  0.3883
 1746TIP3   OH226652   6.695   6.373  15.775 -0.0107  0.0412  0.1969
 1746TIP3    H126653   6.617   6.383  15.720 -0.0210  1.3153  0.4113
 1746TIP3    H226654   6.761   6.334  15.717 -0.5944 -0.4084 -0.1741
 1747TIP3   OH226655   4.980   2.609   4.313  0.1255 -0.0035  0.1905
 1747TIP3    H126656   5.067   2.623   4.274 -0.0254 -1.1234 -0.6006
 1747TIP3    H226657   4.998   2.593   4.406  0.7304  0.1598  0.1048
 1748TIP3   OH226658   3.961   5.195   5.055  0.1891 -0.0298  0.2861
 1748TIP3    H126659   3.909   5.270   5.026 -1.6100 -1.0005  0.8175
 1748TIP3    H226660   4.009   5.168   4.977  1.0602  1.7862  0.1475
 1749TIP3   OH226661   4.364   4.061   1.336  0.0692  0.1740  0.5109
 1749TIP3    H126662   4.298   4.129   1.347 -0.7701 -0.7537  1.5000
 1749TIP3    H226663   4.360   4.011   1.418  0.1338 -1.4915 -0.4572
 1750TIP3   OH226664   2.091   4.105   5.236 -0.1165  0.2157 -0.1704
 1750TIP3    H126665   2.155   4.035   5.230 -1.1013 -0.6907 -0.4138
 1750TIP3    H226666   2.076   4.132   5.146 -1.3441 -0.7878 -0.3001
 1751TIP3   OH226667   1.467   4.830   0.811 -0.1312  0.1584  0.0633
 1751TIP3    H126668   1.532   4.759   0.805 -1.1186 -0.6891 -1.3068
 1751TIP3    H226669   1.507   4.902   0.763 -0.2061 -0.3888 -0.8489
 1752TIP3   OH226670   1.323   5.329  15.612  0.2007 -0.2001  0.1202
 1752TIP3    H126671   1.266   5.327  15.535 -1.7019 -1.3306  1.4599
 1752TIP3    H226672   1.295   5.405  15.662  1.2360  0.3716 -0.1492
 1753TIP3   OH226673   3.703   3.810  11.031 -0.5508  0.8117 -0.1088
 1753TIP3    H126674   3.724   3.761  10.952 -0.1869  1.2020 -0.2568
 1753TIP3    H226675   3.687   3.900  11.001  1.9426  1.5488  0.4984
 1754TIP3   OH226676   6.666   4.207   1.419  0.1558 -0.6448 -0.0352
 1754TIP3    H126677   6.723   4.249   1.484  3.1500 -0.8296 -2.3121
 1754TIP3    H226678   6.614   4.279   1.383  0.1152 -0.1555  0.9744
 1755TIP3   OH226679   0.476   3.956   2.485 -0.4477  0.0575 -0.0705
 1755TIP3    H126680   0.429   3.893   2.539  0.3133  0.5452  1.2036
 1755TIP3    H226681   0.559   3.914   2.465 -0.1122  0.4797  0.4232
 1756TIP3   OH226682   1.857   2.342  16.891 -0.5162 -0.0504 -0.4812
 1756TIP3    H126683   1.784   2.390  16.852 -0.5985  0.9109  0.7774
 1756TIP3    H226684   1.920   2.332  16.820 -0.5814  1.8081 -0.8588
 1757TIP3   OH226685   1.053   3.367   3.976 -0.4909 -0.0967  0.8303
 1757TIP3    H126686   1.108   3.409   4.042  1.7721 -0.5447 -0.6591
 1757TIP3    H226687   1.065   3.274   3.989 -1.3835 -0.2166  0.8521
 1758TIP3   OH226688   5.396   2.965   3.789 -0.2046  0.5382 -0.0408
 1758TIP3    H126689   5.439   2.890   3.747  0.9562  0.5488  1.0814
 1758TIP3    H226690   5.463   3.034   3.788 -0.1958  0.5793  1.6802
 1759TIP3   OH226691   0.804   3.651  11.271  0.2515 -0.7165  0.2000
 1759TIP3    H126692   0.863   3.674  11.199 -0.0509 -0.7211 -0.0558
 1759TIP3    H226693   0.767   3.566  11.245 -1.8226  0.4388 -0.9296
 1760TIP3   OH226694   2.487   3.504  16.584 -0.1263 -0.0839 -0.1138
 1760TIP3    H126695   2.491   3.506  16.488 -0.6007 -1.9111 -0.2211
 1760TIP3    H226696   2.394   3.489  16.603  0.0965 -0.6079  0.5890
 1761TIP3   OH226697   4.492   2.766   4.942 -0.0588  0.1550 -0.5046
 1761TIP3    H126698   4.398   2.776   4.957  0.2141  2.8283 -0.2118
 1761TIP3    H226699   4.525   2.728   5.023 -0.5787  1.4881  0.3686
 1762TIP3   OH226700   0.908   2.850  16.434 -0.5791  0.1822  0.2640
 1762TIP3    H126701   0.875   2.764  16.461  0.4628 -0.0546  0.8647
 1762TIP3    H226702   1.001   2.835  16.418  0.0371  1.5663  2.1815
 1763TIP3   OH226703   6.013   3.950  11.034  0.0396  0.3226 -0.1662
 1763TIP3    H126704   6.094   3.902  11.015  0.7064  0.9942  0.9277
 1763TIP3    H226705   5.971   3.960  10.949  0.4169 -1.2456 -0.5710
 1764TIP3   OH226706   4.229   6.444   5.660 -0.2435  0.6463  0.0917
 1764TIP3    H126707   4.237   6.504   5.586  1.5221  0.4314  0.0623
 1764TIP3    H226708   4.136   6.422   5.663 -0.4959  1.3254 -1.5321
 1765TIP3   OH226709   2.108   0.055  13.310  1.3151 -0.2695 -0.3038
 1765TIP3    H126710   2.175  -0.013  13.300 -0.9357 -2.6293 -0.1804
 1765TIP3    H226711   2.028   0.016  13.275  0.1331  2.8156 -1.4012
 1766TIP3   OH226712   5.304   3.153  16.467 -0.2113 -0.1267  0.8855
 1766TIP3    H126713   5.305   3.123  16.558 -1.6812  1.2934  1.4195
 1766TIP3    H226714   5.395   3.173  16.447 -0.0554  1.2303  2.6809
 1767TIP3   OH226715   1.843   0.623   4.758  0.0741 -0.3325 -0.6773
 1767TIP3    H126716   1.931   0.653   4.779  0.4053 -2.0953  0.6885
 1767TIP3    H226717   1.806   0.595   4.841 -2.1089  1.0937 -1.0952
 1768TIP3   OH226718   1.708   0.855   1.116  0.6136  0.4980  0.6514
 1768TIP3    H126719   1.636   0.891   1.065  0.1331 -1.0491  0.1798
 1768TIP3    H226720   1.771   0.825   1.050  0.7595  0.0319  0.9980
 1769TIP3   OH226721   4.063   3.204   0.067 -0.5342  0.0232  0.0974
 1769TIP3    H126722   4.000   3.132   0.064 -0.6075  0.1072 -2.4293
 1769TIP3    H226723   4.009   3.283   0.070 -0.6263  0.0773 -1.6317
 1770TIP3   OH226724   0.292   4.551  14.025  0.4280  0.3763  0.8504
 1770TIP3    H126725   0.342   4.626  14.058  1.3659  0.2601 -0.2159
 1770TIP3    H226726   0.318   4.479  14.082 -0.1049  0.7458  1.5783
 1771TIP3   OH226727   2.084   4.645  15.179  0.5992  0.3089 -0.2067
 1771TIP3    H126728   2.040   4.564  15.205  1.6265 -0.4254 -0.6860
 1771TIP3    H226729   2.172   4.618  15.154  0.5818  1.3871 -1.5800
 1772TIP3   OH226730   2.930   3.182   1.978 -0.4896  0.3580  0.3896
 1772TIP3    H126731   2.852   3.226   2.013  0.0539  0.0440  2.0287
 1772TIP3    H226732   3.000   3.247   1.985 -0.4265  0.3972 -0.4410
 1773TIP3   OH226733   1.890   6.268  14.350 -0.9595 -0.0484  0.2668
 1773TIP3    H126734   1.794   6.275  14.355 -0.9962 -0.7868  0.7345
 1773TIP3    H226735   1.917   6.347  14.304 -1.7674  0.3466  0.4499
 1774TIP3   OH226736   3.825   4.162   3.903  0.1244  0.4199  0.5271
 1774TIP3    H126737   3.788   4.086   3.858  0.9255  0.0055  0.5369
 1774TIP3    H226738   3.907   4.129   3.941  0.5441  1.3260  0.4262
 1775TIP3   OH226739   5.323   4.463   1.891 -0.1048  0.1596  0.2015
 1775TIP3    H126740   5.391   4.395   1.892 -0.0686  0.1890  1.4316
 1775TIP3    H226741   5.360   4.534   1.944  0.7035  2.0462 -2.6584
 1776TIP3   OH226742   0.788   4.872  15.808 -0.1227  0.4759 -0.4171
 1776TIP3    H126743   0.867   4.856  15.861 -0.8048  1.0122  0.7963
 1776TIP3    H226744   0.803   4.957  15.768 -0.0038  0.4867 -0.3524
 1777TIP3   OH226745   0.546   5.488   0.309  0.2543  0.1133 -0.3538
 1777TIP3    H126746   0.545   5.466   0.402  0.2073 -0.4320 -0.4808
 1777TIP3    H226747   0.630   5.532   0.296  1.4811 -2.1177 -0.5645
 1778TIP3   OH226748   5.693   0.170   5.883 -0.7039  0.3650 -0.0344
 1778TIP3    H126749   5.738   0.135   5.959  0.3611  0.4584 -0.5973
 1778TIP3    H226750   5.603   0.140   5.892 -0.4173 -0.2729  0.8551
 1779TIP3   OH226751   2.237   6.135   6.217 -0.1269 -0.5872 -0.2527
 1779TIP3    H126752   2.249   6.212   6.161  0.2666 -0.1490  0.4170
 1779TIP3    H226753   2.144   6.135   6.239 -0.0743 -0.1230 -0.0134
 1780TIP3   OH226754   2.426   0.561  16.442  0.6270  0.2720  0.2926
 1780TIP3    H126755   2.508   0.515  16.420 -0.3070 -1.8753  0.9678
 1780TIP3    H226756   2.445   0.605  16.525  1.1499 -0.0941  0.3787
 1781TIP3   OH226757   1.642   6.671  16.868  0.7972 -0.3005  0.6309
 1781TIP3    H126758   1.562   6.629  16.837  1.3849  0.1789 -1.7192
 1781TIP3    H226759   1.619   6.764  16.873  1.3685 -0.0626 -0.7624
 1782TIP3   OH226760   0.444   2.994   5.726 -0.5057  0.1266 -0.2468
 1782TIP3    H126761   0.500   2.947   5.665  1.7822  2.2293  0.0854
 1782TIP3    H226762   0.358   2.994   5.685  0.4469 -0.4527 -2.3599
 1783TIP3   OH226763   1.701   3.575  13.175  0.9789 -0.6372  0.0112
 1783TIP3    H126764   1.736   3.487  13.193  0.7881 -0.9697 -1.1518
 1783TIP3    H226765   1.773   3.634  13.197  1.5602 -1.1832 -0.3756
 1784TIP3   OH226766   0.634   4.209  10.730 -0.4314  0.2600  0.0925
 1784TIP3    H126767   0.685   4.131  10.705 -1.7088 -1.1548  1.6763
 1784TIP3    H226768   0.633   4.207  10.825  1.5864  3.6730  0.3570
 1785TIP3   OH226769   1.870   5.882   5.374  0.0571 -0.1014  0.1401
 1785TIP3    H126770   1.904   5.828   5.446 -1.4175 -1.7597 -0.3476
 1785TIP3    H226771   1.943   5.889   5.313  1.3266  1.2813  1.7075
 1786TIP3   OH226772   2.673   1.205   6.128 -0.2625 -0.2410  0.3361
 1786TIP3    H126773   2.588   1.181   6.163  0.5557 -0.4720  2.3288
 1786TIP3    H226774   2.688   1.295   6.159 -0.2351  0.2054 -0.9242
 1787TIP3   OH226775   5.247   0.555  16.000  0.5023  0.1616 -0.4312
 1787TIP3    H126776   5.225   0.575  16.091  0.8122 -0.4905 -0.2088
 1787TIP3    H226777   5.162   0.550  15.955  0.3402  0.2767 -0.1375
 1788TIP3   OH226778   1.578   1.682  11.362 -0.1852  0.7364 -0.1668
 1788TIP3    H126779   1.656   1.726  11.396  0.0169 -0.5462  1.1598
 1788TIP3    H226780   1.608   1.638  11.282  1.1300 -1.6062  1.4907
 1789TIP3   OH226781   4.729   5.616   0.240 -0.7383  0.1404 -0.8477
 1789TIP3    H126782   4.756   5.525   0.224  0.8730  0.2041  1.0526
 1789TIP3    H226783   4.811   5.665   0.241 -1.6420  1.7458 -2.3998
 1790TIP3   OH226784   0.776   0.771  16.676 -0.5669 -0.1774 -0.4503
 1790TIP3    H126785   0.738   0.808  16.597 -0.2472 -0.5100 -0.7647
 1790TIP3    H226786   0.810   0.685  16.649  1.1861  0.4565 -0.3846
 1791TIP3   OH226787   3.131   0.124  16.121  0.2681 -0.4830 -0.0332
 1791TIP3    H126788   3.166   0.170  16.197  0.8631  0.2036 -0.7076
 1791TIP3    H226789   3.075   0.189  16.078 -3.4121 -2.0074  1.9589
 1792TIP3   OH226790   4.937   3.277  16.486 -0.5223 -0.1113  0.8226
 1792TIP3    H126791   5.017   3.267  16.435 -0.7692 -2.4146  0.7640
 1792TIP3    H226792   4.879   3.209  16.452 -1.7475  0.1606  2.2534
 1793TIP3   OH226793   1.099   0.323  13.154  0.0967 -0.1124 -0.5734
 1793TIP3    H126794   1.037   0.257  13.183  0.2873 -0.9900 -2.0776
 1793TIP3    H226795   1.048   0.381  13.098  0.2677  0.1508 -0.4607
 1794TIP3   OH226796   3.910   5.401  11.886  0.1877  0.0056  0.0758
 1794TIP3    H126797   3.938   5.457  11.814 -1.4135 -0.1755 -0.7196
 1794TIP3    H226798   3.860   5.331  11.844 -2.9786  1.2527  1.5134
 1795TIP3   OH226799   6.583   6.253   2.382  0.1944  0.3826 -0.1838
 1795TIP3    H126800   6.677   6.249   2.399  0.1333  1.8190  0.7310
 1795TIP3    H226801   6.559   6.165   2.355  1.6868 -0.1695  0.2124
 1796TIP3   OH226802   1.881   1.464   4.485  0.9059  0.1666  0.5867
 1796TIP3    H126803   1.938   1.540   4.489  0.0655  0.7804  1.2992
 1796TIP3    H226804   1.792   1.500   4.490  0.4947 -0.8732  1.2415
 1797TIP3   OH226805   0.880   3.229  12.632  0.1803 -0.2943  0.4934
 1797TIP3    H126806   0.837   3.165  12.576  1.1504 -1.9189  1.5239
 1797TIP3    H226807   0.857   3.203  12.721 -0.8496  1.8778  0.9285
 1798TIP3   OH226808   2.060   4.601  13.516 -0.5451  0.5243  0.1801
 1798TIP3    H126809   2.154   4.612  13.505 -0.6242 -0.4831 -1.9161
 1798TIP3    H226810   2.051   4.517  13.561 -0.4413  1.7900  2.7967
 1799TIP3   OH226811   1.991   3.152   4.674 -0.0981  0.0788  0.4823
 1799TIP3    H126812   1.964   3.231   4.627  2.1270  1.2496  1.0505
 1799TIP3    H226813   1.947   3.160   4.759  0.2850  0.8728  0.6253
 1800TIP3   OH226814   3.363   1.821  17.283 -0.2842  0.8488  0.6005
 1800TIP3    H126815   3.441   1.766  17.272 -0.7229  0.3946 -0.3159
 1800TIP3    H226816   3.330   1.798  17.370 -1.3349 -1.5333 -0.3444
 1801TIP3   OH226817   1.535   1.976   0.647  0.2733 -0.0497  0.3094
 1801TIP3    H126818   1.510   1.985   0.739 -1.6994 -0.6496 -0.1250
 1801TIP3    H226819   1.501   1.891   0.621 -0.7321  0.8246 -1.4217
 1802TIP3   OH226820   4.461   1.146  11.804 -0.2991  0.1727  0.3815
 1802TIP3    H126821   4.547   1.187  11.791 -0.2677 -0.3812 -1.4257
 1802TIP3    H226822   4.463   1.068  11.748 -1.4175 -0.7102  1.5241
 1803TIP3   OH226823   6.017   0.934   5.482  0.4009  0.9860  0.0901
 1803TIP3    H126824   5.970   0.852   5.499  0.5954  1.0045  0.7276
 1803TIP3    H226825   5.960   0.982   5.421  1.6177 -0.8563 -2.7004
 1804TIP3   OH226826   6.081   0.504   1.828 -0.0637  0.5368 -0.3075
 1804TIP3    H126827   6.004   0.461   1.790 -0.5986  1.2014 -0.0084
 1804TIP3    H226828   6.148   0.436   1.829 -0.5987 -0.0158 -0.7240
 1805TIP3   OH226829   5.101   4.622   3.972  1.0293 -0.1017  0.3305
 1805TIP3    H126830   5.014   4.603   4.007  0.2700  0.7250 -1.0063
 1805TIP3    H226831   5.161   4.603   4.044 -0.2903 -0.2299  1.4362
 1806TIP3   OH226832   5.156   6.564   2.536 -0.0903 -0.4631 -0.3115
 1806TIP3    H126833   5.081   6.601   2.584 -0.0671  0.1645 -0.7534
 1806TIP3    H226834   5.180   6.631   2.473  1.1835 -0.4424  0.1697
 1807TIP3   OH226835   3.197   3.459  14.773 -0.3531  0.3481 -0.0897
 1807TIP3    H126836   3.262   3.458  14.843 -0.8063  0.6667  0.3484
 1807TIP3    H226837   3.114   3.473  14.819 -0.5253  1.8368 -0.7951
 1808TIP3   OH226838   3.862   2.532  11.354 -0.0265 -0.1489  0.4047
 1808TIP3    H126839   3.813   2.614  11.362  1.0254  0.5573 -0.0387
 1808TIP3    H226840   3.953   2.558  11.370  0.2733 -1.3110  0.6322
 1809TIP3   OH226841   5.020   4.406   5.379  0.4068 -0.2975 -0.4552
 1809TIP3    H126842   5.033   4.498   5.355  0.1202 -0.8758 -3.1330
 1809TIP3    H226843   5.105   4.378   5.411  0.2683  1.0962  1.2860
 1810TIP3   OH226844   2.545   6.613  15.017  0.4562 -0.0792  0.1336
 1810TIP3    H126845   2.616   6.654  14.968  0.8660  0.1650  0.9171
 1810TIP3    H226846   2.585   6.588  15.100 -0.0232 -1.2028  0.0520
 1811TIP3   OH226847   4.590   4.066   1.130  0.5918 -0.5980  0.6092
 1811TIP3    H126848   4.673   4.084   1.174  0.0685 -0.2855  1.4936
 1811TIP3    H226849   4.526   4.060   1.201 -0.6543  1.9011 -0.1884
 1812TIP3   OH226850   4.893   3.710  16.003 -0.0666  0.0171 -0.1987
 1812TIP3    H126851   4.907   3.730  15.910  2.1486  1.8449  0.4333
 1812TIP3    H226852   4.977   3.674  16.032 -0.2510  0.8228  1.4010
 1813TIP3   OH226853   1.888   3.937  15.100 -0.4362  0.3483  0.1441
 1813TIP3    H126854   1.848   3.987  15.172 -0.6295  0.5588 -0.1054
 1813TIP3    H226855   1.978   3.924  15.127  0.4016  3.1654 -0.9359
 1814TIP3   OH226856   6.465   1.207  17.184 -0.0020  0.0961  0.1097
 1814TIP3    H126857   6.528   1.234  17.251  0.5679  0.3609 -0.5193
 1814TIP3    H226858   6.483   1.114  17.170  0.5787  0.2752 -0.3976
 1815TIP3   OH226859   1.368   0.095   1.030 -0.3433 -0.6470  0.2501
 1815TIP3    H126860   1.417   0.165   1.074  0.2095 -1.0229  0.2425
 1815TIP3    H226861   1.295   0.077   1.089  0.1722 -0.8806  0.8335
 1816TIP3   OH226862   0.417   2.312  17.188 -0.5934 -0.1480  0.1749
 1816TIP3    H126863   0.340   2.368  17.193  0.9632  2.3935 -1.9326
 1816TIP3    H226864   0.419   2.281  17.098  0.1497 -1.3079  0.5637
 1817TIP3   OH226865   4.490   5.936  15.665  0.1816  0.4194  0.4798
 1817TIP3    H126866   4.529   5.950  15.751  0.1298 -0.0286  0.5782
 1817TIP3    H226867   4.509   6.017  15.617  1.9802 -0.0972  0.2407
 1818TIP3   OH226868   5.630   5.001  16.022  0.5498  0.1944  0.3022
 1818TIP3    H126869   5.582   4.925  16.056  0.4033 -0.4848 -1.3237
 1818TIP3    H226870   5.590   5.018  15.937  1.5365  1.2143  0.0162
 1819TIP3   OH226871   5.708   1.867   0.799 -0.1749 -0.4572  0.5722
 1819TIP3    H126872   5.637   1.931   0.802 -1.1041 -1.5270  2.3932
 1819TIP3    H226873   5.704   1.831   0.710 -0.4817  1.0427 -0.0421
 1820TIP3   OH226874   0.243   0.253  14.031 -0.0049 -0.0077 -0.1639
 1820TIP3    H126875   0.186   0.212  14.095  1.1626  0.1077  1.0047
 1820TIP3    H226876   0.204   0.339  14.015 -0.4143 -0.1122  0.2529
 1821TIP3   OH226877   2.119   5.363   4.307 -0.2681  0.2172 -0.3822
 1821TIP3    H126878   2.048   5.375   4.244  0.0874 -1.0999 -1.0736
 1821TIP3    H226879   2.185   5.312   4.259  1.3585  1.7593  0.0877
 1822TIP3   OH226880   2.852   5.834  15.049  0.5097  0.0306  0.5821
 1822TIP3    H126881   2.795   5.781  14.993 -1.6787 -0.1075  2.7312
 1822TIP3    H226882   2.883   5.905  14.993 -1.2464 -0.2958 -0.8883
 1823TIP3   OH226883   1.084   2.150   3.049  0.5567  0.2363 -0.0887
 1823TIP3    H126884   1.142   2.209   3.001 -0.0556  0.9369  0.0241
 1823TIP3    H226885   1.017   2.125   2.986  0.9152 -0.5008 -0.1896
 1824TIP3   OH226886   3.052   1.082  17.100 -0.2683  0.2534  0.4447
 1824TIP3    H126887   3.060   1.006  17.042 -0.1951  1.9163 -1.8664
 1824TIP3    H226888   2.957   1.096  17.107 -0.2690  0.2056  0.5380
 1825TIP3   OH226889   4.101   3.094  16.499 -0.3601  0.3378  0.2280
 1825TIP3    H126890   4.131   3.171  16.450  0.3786  0.7592  1.3065
 1825TIP3    H226891   4.134   3.108  16.587 -0.2474 -1.2216  0.4479
 1826TIP3   OH226892   5.408   1.439  10.668 -0.2686 -0.0890 -0.1542
 1826TIP3    H126893   5.455   1.443  10.751  2.5302  0.6272 -1.6700
 1826TIP3    H226894   5.363   1.354  10.671  2.1102 -1.4200  0.9566
 1827TIP3   OH226895   0.577   2.950  13.288  0.1082  0.6956  0.0974
 1827TIP3    H126896   0.487   2.941  13.256 -1.0579 -0.7983  3.3951
 1827TIP3    H226897   0.583   3.041  13.317 -0.7092  0.5563  0.7465
 1828TIP3   OH226898   6.312   4.838  17.315 -0.0026 -0.7676 -0.0364
 1828TIP3    H126899   6.312   4.742  17.318 -0.8848 -0.7733  0.2579
 1828TIP3    H226900   6.402   4.862  17.296  0.3276 -1.6464  0.3773
 1829TIP3   OH226901   1.308   5.034  16.953 -0.0420 -0.5169 -0.4976
 1829TIP3    H126902   1.319   4.961  17.014  1.5203 -0.2645 -0.4366
 1829TIP3    H226903   1.357   5.008  16.875 -1.1050 -0.3600 -1.2292
 1830TIP3   OH226904   3.312   2.864   1.336 -0.2250  0.2018  0.4255
 1830TIP3    H126905   3.287   2.772   1.333 -0.8736  0.3915 -0.4897
 1830TIP3    H226906   3.356   2.875   1.420 -0.8257 -0.7643  0.8750
 1831TIP3   OH226907   0.646   4.837  11.889 -0.1072  0.3456  0.7966
 1831TIP3    H126908   0.725   4.809  11.936  0.4419  1.8067  0.8036
 1831TIP3    H226909   0.624   4.922  11.927 -1.5322  0.0796  0.5941
 1832TIP3   OH226910   6.046   6.540  15.071 -0.0483 -0.0783  0.3519
 1832TIP3    H126911   6.061   6.488  14.992  1.4257  1.5037 -0.4725
 1832TIP3    H226912   6.133   6.568  15.098 -0.6900  0.9104  1.5010
 1833TIP3   OH226913   3.050   1.245  11.372 -0.1364 -0.4517  0.9830
 1833TIP3    H126914   3.112   1.201  11.313  0.8960  1.5540  0.4908
 1833TIP3    H226915   2.974   1.265  11.317  1.2346  2.3457 -0.0939
 1834TIP3   OH226916   3.009   2.168  11.580 -0.1911  0.2323 -0.3590
 1834TIP3    H126917   2.973   2.230  11.516  0.7475 -0.4051 -1.5621
 1834TIP3    H226918   3.090   2.136  11.539  0.2698 -0.4457  1.0281
 1835TIP3   OH226919   0.120   4.067  16.652  0.3020  0.0741  0.3959
 1835TIP3    H126920   0.135   4.162  16.653  1.7185 -0.1381  0.2842
 1835TIP3    H226921   0.029   4.058  16.681 -0.5741  1.5857 -1.6235
 1836TIP3   OH226922   4.407   2.071   4.992  0.3250  0.0522 -0.7226
 1836TIP3    H126923   4.363   1.986   5.002 -1.3464  0.9912  0.3154
 1836TIP3    H226924   4.484   2.064   5.048 -0.0842 -0.5996 -0.2185
 1837TIP3   OH226925   1.910   1.729  12.898  0.7941  0.2528 -0.3462
 1837TIP3    H126926   1.988   1.682  12.927  0.0552  0.0339  1.4125
 1837TIP3    H226927   1.907   1.807  12.953  0.2601  0.7200 -1.0235
 1838TIP3   OH226928   4.403   3.658  16.247  0.5506 -0.4513 -0.2348
 1838TIP3    H126929   4.347   3.701  16.181 -0.2403  0.0664  0.7344
 1838TIP3    H226930   4.349   3.587  16.282  0.3494  0.2434  0.9293
 1839TIP3   OH226931   4.483   6.581  11.417  0.0608 -0.3367 -0.1121
 1839TIP3    H126932   4.539   6.528  11.362  0.5846  0.5980 -0.5051
 1839TIP3    H226933   4.435   6.637  11.356 -0.0056  0.0872  0.3210
 1840TIP3   OH226934   5.036   6.546  11.260 -0.4694  0.2133  0.2866
 1840TIP3    H126935   5.061   6.512  11.174 -1.7583  1.6556 -0.7092
 1840TIP3    H226936   5.110   6.600  11.287  0.5970 -1.4289  0.8399
 1841TIP3   OH226937   6.343   6.558  16.660  0.3965  0.4069 -0.1316
 1841TIP3    H126938   6.292   6.481  16.687  1.3655 -0.4636 -0.7035
 1841TIP3    H226939   6.422   6.521  16.622  0.6734  1.6993 -0.8405
 1842TIP3   OH226940   1.070   5.850   2.535 -0.0944 -0.0106 -0.3069
 1842TIP3    H126941   1.009   5.897   2.478 -0.4641 -0.3707 -0.2119
 1842TIP3    H226942   1.014   5.812   2.604  0.1862 -0.6680 -0.4387
 1843TIP3   OH226943   0.937   0.713   5.482 -0.1566 -0.4648  0.1181
 1843TIP3    H126944   0.918   0.771   5.556  0.3452  1.2765 -1.0364
 1843TIP3    H226945   1.033   0.705   5.483  0.0608  1.2743 -1.4802
 1844TIP3   OH226946   5.041   2.841   1.602 -0.2337 -0.4214  0.1070
 1844TIP3    H126947   4.974   2.909   1.595  0.5107  0.7248  2.8726
 1844TIP3    H226948   5.000   2.772   1.653 -0.0254 -0.7570 -0.1741
 1845TIP3   OH226949   3.290   4.693   3.356  0.2122  0.1405 -0.0059
 1845TIP3    H126950   3.335   4.684   3.271 -0.0984  0.5337 -0.2183
 1845TIP3    H226951   3.199   4.674   3.337  0.3685 -1.2962  0.5583
 1846TIP3   OH226952   0.363   6.422   1.812 -0.5100  0.1558 -0.3562
 1846TIP3    H126953   0.396   6.481   1.745  0.2710 -0.6742 -0.7210
 1846TIP3    H226954   0.300   6.475   1.862  0.2277  1.3080 -0.6152
 1847TIP3   OH226955   0.396   1.368  12.589  0.1693  0.6020  0.4082
 1847TIP3    H126956   0.336   1.362  12.664 -0.1030  3.4355  0.5170
 1847TIP3    H226957   0.343   1.339  12.515  0.6179 -2.8275  1.2565
 1848TIP3   OH226958   0.965   3.224   0.385  0.0416  0.5840  0.3782
 1848TIP3    H126959   1.045   3.250   0.432  0.1352 -0.7803  1.0253
 1848TIP3    H226960   0.943   3.300   0.332  1.2475  1.3331  0.8987
 1849TIP3   OH226961   1.832   3.435   2.332 -0.5070 -0.1774  0.5069
 1849TIP3    H126962   1.889   3.438   2.409  1.0316  0.7766 -0.6241
 1849TIP3    H226963   1.810   3.343   2.322 -1.9100 -0.1947  2.8667
 1850TIP3   OH226964   3.179   6.191   4.666 -0.1418  0.2422 -0.0911
 1850TIP3    H126965   3.123   6.241   4.725  0.7257 -0.2785  1.2371
 1850TIP3    H226966   3.231   6.135   4.724  1.1343  0.0865 -1.3187
 1851TIP3   OH226967   3.005   2.145  16.219 -0.5450  0.0221  0.6079
 1851TIP3    H126968   2.938   2.190  16.271 -0.3742  0.7481  0.2157
 1851TIP3    H226969   3.085   2.156  16.269 -0.4627  0.3429  0.4077
 1852TIP3   OH226970   3.626   2.400  16.526 -0.0910  0.4126  0.0786
 1852TIP3    H126971   3.568   2.437  16.593  1.2193 -0.8671  2.0013
 1852TIP3    H226972   3.681   2.473  16.498 -0.1870  0.8126  0.9143
 1853TIP3   OH226973   5.991   1.484  17.318 -0.2459  0.0005 -0.3248
 1853TIP3    H126974   5.898   1.460  17.321 -0.0542 -0.6481  0.5152
 1853TIP3    H226975   6.032   1.432  17.386  0.5308  1.2353  0.1772
 1854TIP3   OH226976   3.702   3.194   3.408  0.2074  0.3967 -0.2603
 1854TIP3    H126977   3.644   3.267   3.431  0.7443  1.2039 -1.3683
 1854TIP3    H226978   3.644   3.119   3.401 -0.3904  0.7460  0.7321
 1855TIP3   OH226979   6.144   0.303  10.874 -0.2304 -0.1083  0.1816
 1855TIP3    H126980   6.107   0.286  10.787 -0.6512 -2.2988  0.7306
 1855TIP3    H226981   6.237   0.283  10.865 -0.1434  0.3440  0.0691
 1856TIP3   OH226982   3.738   0.282   0.617  0.2188 -0.1605  0.0927
 1856TIP3    H126983   3.663   0.263   0.673 -0.9755 -0.6896 -1.6041
 1856TIP3    H226984   3.808   0.225   0.651 -0.4853 -0.5420  0.9551
 1857TIP3   OH226985   2.680   1.851   5.593 -0.3520 -0.7194  0.0156
 1857TIP3    H126986   2.721   1.919   5.647  1.1182 -2.0963  0.7333
 1857TIP3    H226987   2.603   1.893   5.555 -0.4523  0.8128  1.8002
 1858TIP3   OH226988   0.319   5.465  13.764  0.0918 -0.0142  0.4718
 1858TIP3    H126989   0.319   5.381  13.809  0.3208  1.3993  3.3487
 1858TIP3    H226990   0.407   5.472  13.726  0.1546 -0.9384  0.4294
 1859TIP3   OH226991   6.000   4.950   6.004  0.3696  0.0946 -0.1761
 1859TIP3    H126992   6.050   5.008   6.061  1.7520 -0.4920 -0.7418
 1859TIP3    H226993   5.909   4.976   6.017  0.7083  0.4676  1.7229
 1860TIP3   OH226994   2.930   4.577   3.789 -0.8601  0.0488  0.0877
 1860TIP3    H126995   3.013   4.570   3.742 -1.3267 -0.7163 -0.6555
 1860TIP3    H226996   2.869   4.613   3.725 -1.3638 -0.4177  0.3011
 1861TIP3   OH226997   0.433   5.526  11.545 -0.0550  0.0720  0.0996
 1861TIP3    H126998   0.455   5.619  11.546 -1.4311  0.4103  0.9387
 1861TIP3    H226999   0.461   5.496  11.458  1.2525  1.0352  0.1549
 1862TIP3   OH227000   3.414   2.257  10.549 -0.2522 -0.0193  0.4194
 1862TIP3    H127001   3.478   2.219  10.488 -0.0717  0.2928  0.4158
 1862TIP3    H227002   3.392   2.185  10.608  0.6098  0.0618  0.8409
 1863TIP3   OH227003   3.827   0.188  15.510  0.9354 -0.5270 -0.5766
 1863TIP3    H127004   3.753   0.195  15.451  2.1979  1.1801 -2.0708
 1863TIP3    H227005   3.796   0.222  15.594 -0.9055 -3.0445 -0.1429
 1864TIP3   OH227006   0.914   6.137  15.581 -0.0142 -0.1780  0.1595
 1864TIP3    H127007   0.987   6.113  15.525  1.9906  2.6008  1.2955
 1864TIP3    H227008   0.838   6.142  15.523  1.7425  1.5742 -2.1460
 1865TIP3   OH227009   4.235   2.770  11.896  0.7018 -0.1963  0.2455
 1865TIP3    H127010   4.142   2.751  11.887  1.1042 -1.8485 -1.0213
 1865TIP3    H227011   4.249   2.850  11.846  0.0003 -0.0589  0.2633
 1866TIP3   OH227012   3.254   6.496   2.270  0.1513 -0.5478 -0.0285
 1866TIP3    H127013   3.206   6.518   2.349 -0.4843 -1.4017 -0.1715
 1866TIP3    H227014   3.332   6.451   2.301  0.0676 -0.5865  0.1262
 1867TIP3   OH227015   1.430   5.193   0.086  0.3249  0.3819 -0.0460
 1867TIP3    H127016   1.427   5.121   0.150  2.5241  0.5109  0.2532
 1867TIP3    H227017   1.388   5.266   0.131  0.2917 -0.0163  0.5903
 1868TIP3   OH227018   1.551   3.224   1.288  0.0152  0.2030 -0.2178
 1868TIP3    H127019   1.505   3.242   1.370 -0.3036  1.7167 -0.6935
 1868TIP3    H227020   1.632   3.274   1.294 -0.8858  1.9250 -1.5874
 1869TIP3   OH227021   1.960   6.359   4.081  0.6064  0.3910  0.4031
 1869TIP3    H127022   2.026   6.334   4.147 -0.5021 -0.7890  1.1158
 1869TIP3    H227023   1.886   6.391   4.133 -0.7635 -1.7080 -0.1567
 1870TIP3   OH227024   1.429   3.362   4.122  0.1859 -0.0403 -0.0191
 1870TIP3    H127025   1.338   3.384   4.102  0.5040 -0.1148 -1.6874
 1870TIP3    H227026   1.428   3.340   4.215 -1.6506 -0.8390 -0.1737
 1871TIP3   OH227027   0.987   6.726  17.306 -0.3935 -0.4236 -0.4371
 1871TIP3    H127028   1.006   6.664  17.376 -0.2038 -0.0375 -0.1449
 1871TIP3    H227029   1.001   6.812  17.345  0.7873 -0.2180 -1.2382
 1872TIP3   OH227030   6.458   1.111  13.373  0.0224  0.1575 -0.5238
 1872TIP3    H127031   6.536   1.156  13.341 -1.2725  1.8635 -1.4545
 1872TIP3    H227032   6.419   1.072  13.295 -1.0103  0.8760 -0.3811
 1873TIP3   OH227033   2.421   2.008  10.443  0.0939 -0.0476 -0.7856
 1873TIP3    H127034   2.405   2.094  10.406  1.9974 -0.4465 -2.7078
 1873TIP3    H227035   2.377   1.947  10.383 -1.7296 -0.4549  0.8614
 1874TIP3   OH227036   6.009   1.433   6.097  0.2083 -0.1036  0.2464
 1874TIP3    H127037   6.035   1.341   6.090  0.7946  0.1420 -1.2368
 1874TIP3    H227038   6.070   1.471   6.160 -0.3602 -0.8203  1.2548
 1875TIP3   OH227039   3.040   6.134   2.664 -0.1026 -0.0965 -0.0022
 1875TIP3    H127040   3.134   6.149   2.658 -0.0777 -0.0306  0.5052
 1875TIP3    H227041   3.003   6.190   2.595  0.0764  1.5361  1.1620
 1876TIP3   OH227042   6.458   5.129   3.304  0.1049 -0.1030  0.0075
 1876TIP3    H127043   6.438   5.108   3.213  0.2716  1.8672 -0.5356
 1876TIP3    H227044   6.534   5.075   3.325 -0.8869 -1.7566 -0.4698
 1877TIP3   OH227045   3.323   1.309  11.204 -0.0026  1.0489  0.0598
 1877TIP3    H127046   3.310   1.215  11.212 -1.8541  1.4113  2.2946
 1877TIP3    H227047   3.382   1.331  11.276  0.4798  1.6103 -0.4949
 1878TIP3   OH227048   2.838   3.435  10.888 -0.3206 -0.2747  0.2281
 1878TIP3    H127049   2.850   3.360  10.945  1.3749  0.0680  0.3609
 1878TIP3    H227050   2.922   3.446  10.843 -1.7066 -0.8185 -2.7209
 1879TIP3   OH227051   2.488   6.732   4.197  0.1192 -0.3916  0.3693
 1879TIP3    H127052   2.514   6.818   4.228  1.1008  0.1414 -1.7445
 1879TIP3    H227053   2.480   6.742   4.102 -0.7273 -2.3860  0.1783
 1880TIP3   OH227054   5.963   3.571   4.070  0.3297 -0.3715 -0.2336
 1880TIP3    H127055   5.971   3.666   4.069 -1.3190 -0.2167 -0.6357
 1880TIP3    H227056   6.020   3.542   3.998  1.0723  0.2690  0.0818
 1881TIP3   OH227057   3.222   0.517  11.167  0.2761 -0.5967  0.3190
 1881TIP3    H127058   3.161   0.476  11.106  0.1646  0.2911 -0.1768
 1881TIP3    H227059   3.223   0.458  11.243 -2.0510 -0.0961  0.8123
 1882TIP3   OH227060   6.272   0.405   4.609  0.2260 -0.0903 -0.5013
 1882TIP3    H127061   6.286   0.499   4.593  0.2609  0.0455  0.2882
 1882TIP3    H227062   6.327   0.385   4.684 -0.2645 -0.6043 -0.2728
 1883TIP3   OH227063   3.087   4.721  16.958 -0.2352  0.1291  0.3418
 1883TIP3    H127064   2.997   4.748  16.941 -0.5087 -0.4899  0.7662
 1883TIP3    H227065   3.095   4.636  16.913  0.1854  0.2545  0.1716
 1884TIP3   OH227066   4.317   0.009   1.565 -0.1217  0.4997  0.2185
 1884TIP3    H127067   4.258  -0.017   1.493 -0.9537  2.7742 -0.0175
 1884TIP3    H227068   4.361   0.087   1.532  1.9700 -0.2979  0.9860
 1885TIP3   OH227069   5.855   6.233  14.365 -0.6720 -0.4709  0.3422
 1885TIP3    H127070   5.816   6.259  14.282  0.3471  0.3149  0.0796
 1885TIP3    H227071   5.837   6.140  14.373 -1.3189 -0.4203 -0.4600
 1886TIP3   OH227072   1.387   5.666  16.159 -0.1798 -0.3200  0.5218
 1886TIP3    H127073   1.390   5.754  16.198 -0.3977 -0.0009 -0.1607
 1886TIP3    H227074   1.304   5.629  16.190 -0.1880 -0.2047  0.6416
 1887TIP3   OH227075   5.968   2.781  11.964  0.1559 -0.0170 -0.4310
 1887TIP3    H127076   5.877   2.799  11.942  0.3894  1.6955 -0.1486
 1887TIP3    H227077   6.018   2.819  11.891  0.7893  2.8785  1.3695
 1888TIP3   OH227078   1.513   1.690   3.386 -0.5049  0.9237 -0.0978
 1888TIP3    H127079   1.469   1.739   3.316  0.2661  0.3482 -1.0035
 1888TIP3    H227080   1.605   1.686   3.360 -0.3569 -0.0752  0.4918
 1889TIP3   OH227081   6.561   0.087   6.555  0.4806 -0.5050 -0.3129
 1889TIP3    H127082   6.584   0.008   6.603  0.4767  0.3124  1.0872
 1889TIP3    H227083   6.605   0.078   6.470  2.1939 -1.0588  0.5924
 1890TIP3   OH227084   1.809   6.014  14.078  1.0897  0.3808  0.8103
 1890TIP3    H127085   1.726   6.055  14.103  0.2648 -0.5731 -0.2679
 1890TIP3    H227086   1.784   5.946  14.015  2.5618 -0.7997  1.4508
 1891TIP3   OH227087   0.654   6.216  12.761  0.3496  0.5332  0.1260
 1891TIP3    H127088   0.733   6.236  12.811  0.4143  1.4631 -0.3247
 1891TIP3    H227089   0.687   6.191  12.674  0.3752 -2.9898  0.9828
 1892TIP3   OH227090   4.771   6.256  13.924 -0.7470 -0.3126 -0.1154
 1892TIP3    H127091   4.682   6.220  13.920  0.0978 -2.4885 -0.6370
 1892TIP3    H227092   4.818   6.197  13.984  0.5158  0.4193 -0.3580
 1893TIP3   OH227093   3.987   0.788  12.412  0.0358 -0.3295  0.0202
 1893TIP3    H127094   4.035   0.847  12.471  0.6978 -0.3333 -0.4982
 1893TIP3    H227095   4.049   0.769  12.341  0.0017 -2.0349  0.4136
 1894TIP3   OH227096   4.011   0.809   2.762 -0.0157  0.2449 -0.3680
 1894TIP3    H127097   4.090   0.862   2.764 -1.0459  1.8378 -0.3411
 1894TIP3    H227098   4.013   0.766   2.676  0.4779  0.9117 -0.6960
 1895TIP3   OH227099   3.339   0.907  13.284  0.2314 -0.7142 -0.2930
 1895TIP3    H127100   3.243   0.911  13.288  0.2697  2.6854  1.2579
 1895TIP3    H227101   3.365   0.856  13.360 -0.3611  0.0226  0.4181
 1896TIP3   OH227102   1.067   5.045  14.791 -0.4335  0.0655  0.0296
 1896TIP3    H127103   1.040   5.065  14.881 -3.0524 -3.3147  0.1806
 1896TIP3    H227104   1.014   5.104  14.737 -1.6612 -0.4640  0.6261
 1897TIP3   OH227105   6.524   0.537  11.977 -0.1647 -0.3131 -0.0128
 1897TIP3    H127106   6.455   0.472  11.987 -0.2983 -0.4580 -1.6639
 1897TIP3    H227107   6.548   0.561  12.067 -0.0514 -2.6747  0.6364
 1898TIP3   OH227108   5.380   5.179  13.542 -0.1621  0.1589  0.2116
 1898TIP3    H127109   5.415   5.105  13.591 -1.4166 -0.8276 -0.3402
 1898TIP3    H227110   5.447   5.247  13.550  1.5548 -1.4032 -0.2279
 1899TIP3   OH227111   5.381   3.991   5.468  0.0252  0.0855 -0.4139
 1899TIP3    H127112   5.379   4.047   5.545  2.3994  0.2067 -0.3796
 1899TIP3    H227113   5.463   3.943   5.475 -1.6590 -3.1239 -0.6745
 1900TIP3   OH227114   5.768   5.398   5.056  0.3915 -0.4015 -0.2762
 1900TIP3    H127115   5.790   5.360   5.141  1.1690  0.9893  0.1757
 1900TIP3    H227116   5.848   5.442   5.028  0.6977 -2.1866 -2.5417
 1901TIP3   OH227117   4.967   6.624  17.139 -0.1775  0.8143  0.0299
 1901TIP3    H127118   4.872   6.633  17.138 -0.3042  0.4418 -3.5760
 1901TIP3    H227119   4.982   6.530  17.125  0.5563  1.3179 -3.3633
 1902TIP3   OH227120   2.941   4.488   1.128 -0.6166  0.2556 -0.3474
 1902TIP3    H127121   2.852   4.506   1.156 -1.2929 -1.7141 -1.1057
 1902TIP3    H227122   2.991   4.480   1.209 -0.6011  3.3226  0.0977
 1903TIP3   OH227123   6.536   2.141  14.564  0.0806 -0.3739  0.3570
 1903TIP3    H127124   6.596   2.069  14.581  0.3774 -0.0149  0.8511
 1903TIP3    H227125   6.475   2.140  14.638 -0.8002 -1.0066 -0.3591
 1904TIP3   OH227126   3.993   2.342  16.328  0.5302 -0.2896  0.6317
 1904TIP3    H127127   4.066   2.283  16.348  0.5828 -0.4933 -0.1271
 1904TIP3    H227128   3.977   2.389  16.410 -0.0788 -1.9563  1.5112
 1905TIP3   OH227129   6.548   3.309   3.719 -0.6015  0.4285 -0.1328
 1905TIP3    H127130   6.557   3.382   3.657  1.3316  0.4990  0.1880
 1905TIP3    H227131   6.454   3.292   3.721 -0.9697  2.0583 -1.1982
 1906TIP3   OH227132   2.406   4.969  15.054  0.0470 -0.0378 -0.6270
 1906TIP3    H127133   2.314   4.947  15.039 -0.4088  1.0169  0.5127
 1906TIP3    H227134   2.404   5.047  15.110  1.6282  0.4317 -1.1604
 1907TIP3   OH227135   6.513   1.381  14.099 -0.6955 -0.2035 -0.3294
 1907TIP3    H127136   6.493   1.427  14.180 -1.2560  0.2977 -0.7409
 1907TIP3    H227137   6.602   1.408  14.077 -1.1981  1.1138 -0.8357
 1908TIP3   OH227138   3.894   0.234  12.669 -0.1815  0.0241  0.3267
 1908TIP3    H127139   3.849   0.238  12.585 -0.2239 -0.1558  0.3417
 1908TIP3    H227140   3.929   0.145  12.674  0.1406  0.1477  0.3331
 1909TIP3   OH227141   0.396   3.849  11.578  0.4764  0.2675  0.4407
 1909TIP3    H127142   0.314   3.821  11.618 -0.0468  1.3502  0.1435
 1909TIP3    H227143   0.383   3.835  11.484  0.7524  0.1713  0.4142
 1910TIP3   OH227144   2.705   3.962   6.145 -0.2249  0.3874 -0.1275
 1910TIP3    H127145   2.675   3.894   6.205 -1.0482  0.0820 -0.8671
 1910TIP3    H227146   2.712   4.040   6.200 -4.9190  1.2064 -0.2717
 1911TIP3   OH227147   4.014   0.401   5.768 -0.3054  0.1657 -0.4331
 1911TIP3    H127148   4.043   0.416   5.858 -0.7268  0.4665 -0.3450
 1911TIP3    H227149   3.938   0.458   5.758 -0.8125 -0.5474 -0.6889
 1912TIP3   OH227150   6.484   4.104  11.265 -0.5128 -0.4456  0.5064
 1912TIP3    H127151   6.430   4.058  11.329 -2.6718  0.9356 -0.2444
 1912TIP3    H227152   6.426   4.167  11.224  1.6699  1.1339 -0.3863
 1913TIP3   OH227153   3.262   5.190  16.840  0.0460 -0.1805  0.0385
 1913TIP3    H127154   3.282   5.098  16.860  0.7322 -0.3452 -1.3304
 1913TIP3    H227155   3.327   5.240  16.890  0.8917 -0.5329 -0.6792
 1914TIP3   OH227156   4.935   4.868  13.844 -0.5093  0.0245 -0.5340
 1914TIP3    H127157   4.982   4.817  13.910 -1.3973 -0.4261 -0.2257
 1914TIP3    H227158   4.894   4.803  13.788 -3.0849  0.2743  0.8692
 1915TIP3   OH227159   3.820   2.958  12.571 -0.9322 -0.8776  1.0596
 1915TIP3    H127160   3.837   2.906  12.493 -1.2175 -1.2026  1.2104
 1915TIP3    H227161   3.906   2.972  12.610 -0.6380  0.3437  0.0338
 1916TIP3   OH227162   2.875   6.002  15.628 -0.9004  0.0180  0.4449
 1916TIP3    H127163   2.843   5.935  15.688  1.1728 -1.6406 -0.1646
 1916TIP3    H227164   2.895   5.955  15.547 -0.6826  1.6359 -0.4955
 1917TIP3   OH227165   4.916   4.402  14.682  0.2105 -0.1739  0.2176
 1917TIP3    H127166   4.996   4.389  14.733  0.2622 -0.3522  0.0928
 1917TIP3    H227167   4.882   4.314  14.667 -0.4142 -0.0560  0.9030
 1918TIP3   OH227168   2.315   1.936  14.205 -0.1175 -0.4440  0.0239
 1918TIP3    H127169   2.251   2.001  14.234 -1.1637 -1.4101 -0.0260
 1918TIP3    H227170   2.394   1.986  14.187 -1.0145  0.8648 -0.4178
 1919TIP3   OH227171   1.108   0.156  11.307  0.6117  0.0632  0.1427
 1919TIP3    H127172   1.171   0.142  11.377  0.7868  1.9017  0.3904
 1919TIP3    H227173   1.159   0.146  11.226  1.0901  0.9239  0.3305
 1920TIP3   OH227174   2.801   1.612   1.859 -0.7481  0.4094  0.3912
 1920TIP3    H127175   2.757   1.543   1.811  2.0309 -0.5248 -1.0400
 1920TIP3    H227176   2.763   1.693   1.825 -2.8951 -0.3156  0.9077
 1921TIP3   OH227177   3.767   0.494   5.739  0.3102 -0.6893 -0.2858
 1921TIP3    H127178   3.743   0.497   5.646 -0.2309 -2.5570 -0.2334
 1921TIP3    H227179   3.741   0.580   5.773 -2.0754 -0.9605 -1.2598
 1922TIP3   OH227180   3.400   4.842   2.773 -0.8128  0.1330  0.1325
 1922TIP3    H127181   3.462   4.830   2.701 -0.1502 -0.2081  0.7535
 1922TIP3    H227182   3.425   4.926   2.812 -0.1905 -0.4018  0.9088
 1923TIP3   OH227183   4.743   5.446  17.228  0.0974  0.3993  0.2028
 1923TIP3    H127184   4.666   5.494  17.198  0.3799 -0.0523 -1.3400
 1923TIP3    H227185   4.732   5.358  17.191  1.2346  0.2733  0.1212
 1924TIP3   OH227186   2.081   3.140  16.387  0.1195 -0.0604 -0.3016
 1924TIP3    H127187   2.107   3.231  16.397 -0.5361  0.0505  0.4986
 1924TIP3    H227188   2.009   3.128  16.449 -0.1389 -0.9882 -0.7543
 1925TIP3   OH227189   1.159   2.680  16.768 -0.3074  0.3275 -0.2263
 1925TIP3    H127190   1.079   2.719  16.804 -0.4801  0.4031 -0.6921
 1925TIP3    H227191   1.165   2.595  16.813 -1.3809 -0.2695 -1.1500
 1926TIP3   OH227192   2.090   1.836   2.601 -0.2371 -0.0337  0.3427
 1926TIP3    H127193   2.124   1.747   2.600 -0.1338  0.0077  0.0371
 1926TIP3    H227194   2.098   1.866   2.510 -0.4398  0.2215  0.4064
 1927TIP3   OH227195   3.046   4.719   1.031 -0.3128 -0.3166  0.0036
 1927TIP3    H127196   3.072   4.784   1.096  0.3669  0.2245 -0.7894
 1927TIP3    H227197   2.997   4.653   1.080  1.0398 -0.4294  1.2282
 1928TIP3   OH227198   2.303   3.979  11.964  0.6290 -0.4394  0.2197
 1928TIP3    H127199   2.264   4.016  11.885  0.4950  0.0494  0.5133
 1928TIP3    H227200   2.258   3.894  11.974 -2.1132  1.0501  1.8054
 1929TIP3   OH227201   5.775   5.361  11.167 -0.8590 -0.1415  0.0587
 1929TIP3    H127202   5.737   5.282  11.205 -1.1108  0.4480  1.0767
 1929TIP3    H227203   5.796   5.337  11.076  1.6227 -2.2738  1.0510
 1930TIP3   OH227204   5.319   3.221  16.783  0.6957 -0.0270 -0.3204
 1930TIP3    H127205   5.232   3.198  16.814  0.7456 -1.2444 -1.0364
 1930TIP3    H227206   5.304   3.297  16.726  0.0645 -0.3613 -0.6152
 1931TIP3   OH227207   3.045   2.342   4.481 -0.5494  0.1472  0.6129
 1931TIP3    H127208   3.071   2.328   4.571 -1.2970 -1.4537  0.6023
 1931TIP3    H227209   2.970   2.284   4.467 -0.6400  0.5733 -0.9474
 1932TIP3   OH227210   2.228   3.365  13.552  0.2851  0.7302  0.1919
 1932TIP3    H127211   2.297   3.402  13.605  0.0317  0.9028  0.4031
 1932TIP3    H227212   2.162   3.434  13.545 -0.4670  0.1326  1.0920
 1933TIP3   OH227213   2.395   0.343   2.265  0.6758 -0.0692  0.3982
 1933TIP3    H127214   2.451   0.418   2.248 -0.8266  1.0191  0.0503
 1933TIP3    H227215   2.453   0.267   2.255  2.4160  1.0370  1.5073
 1934TIP3   OH227216   2.089   5.246  17.071 -0.2019  0.1338  0.2519
 1934TIP3    H127217   2.107   5.242  17.165 -1.5830 -0.2559  0.5310
 1934TIP3    H227218   2.001   5.210  17.062  0.5857 -1.6069 -1.4106
 1935TIP3   OH227219   5.659   0.053   4.748 -0.1941 -0.1504  0.1756
 1935TIP3    H127220   5.583   0.075   4.694  0.6713  0.7217 -0.7215
 1935TIP3    H227221   5.730   0.106   4.713  0.5234  0.0863  1.8664
 1936TIP3   OH227222   2.440   6.362  14.984  0.0300 -0.0499 -0.0891
 1936TIP3    H127223   2.475   6.448  15.009 -0.5590  0.5540 -1.2619
 1936TIP3    H227224   2.513   6.320  14.938 -0.2876  0.6517 -1.2912
 1937TIP3   OH227225   5.607   3.394   0.105  0.2803  0.7449 -0.5655
 1937TIP3    H127226   5.526   3.380   0.057  0.4103  1.0768 -0.8855
 1937TIP3    H227227   5.662   3.444   0.045  0.3126  1.4623  0.0563
 1938TIP3   OH227228   6.612   5.181   3.677  0.1574 -0.2704 -0.3814
 1938TIP3    H127229   6.581   5.126   3.749  1.1470 -0.5807 -0.1817
 1938TIP3    H227230   6.625   5.120   3.605  0.5277 -0.1735 -0.3945
 1939TIP3   OH227231   6.283   6.100   5.033 -0.3023  0.5062 -0.3025
 1939TIP3    H127232   6.369   6.140   5.019 -0.2149  0.8182  0.9161
 1939TIP3    H227233   6.238   6.162   5.092 -1.2991  0.2674 -0.7936
 1940TIP3   OH227234   2.682   4.891   2.152  0.0611 -0.5695 -0.4083
 1940TIP3    H127235   2.706   4.984   2.151  0.1487 -0.6022 -1.4683
 1940TIP3    H227236   2.586   4.891   2.162 -0.0541 -0.3418 -1.4591
 1941TIP3   OH227237   3.210   0.731   4.711 -0.0080 -0.2833  0.0763
 1941TIP3    H127238   3.164   0.779   4.780  1.3163  1.6147 -0.2891
 1941TIP3    H227239   3.153   0.738   4.635 -0.9105 -1.3409  0.6338
 1942TIP3   OH227240   3.652   2.179  13.911  0.4423 -0.1110 -0.4467
 1942TIP3    H127241   3.608   2.099  13.884  1.2413 -0.8566  0.4370
 1942TIP3    H227242   3.594   2.218  13.977  0.5395 -0.4921 -0.1349
 1943TIP3   OH227243   2.329   5.092  11.776 -0.2379  0.0048  0.4289
 1943TIP3    H127244   2.299   5.171  11.820 -0.0923  0.4447 -0.2374
 1943TIP3    H227245   2.295   5.020  11.829  1.1076  0.5020  2.0563
 1944TIP3   OH227246   3.505   3.367  13.384  0.0540  0.1016 -0.6032
 1944TIP3    H127247   3.468   3.454  13.376 -1.9273 -0.6868 -0.5440
 1944TIP3    H227248   3.537   3.362  13.474 -0.6337  0.4748 -0.3293
 1945TIP3   OH227249   4.941   0.628   1.013  0.0384  0.1228  0.0303
 1945TIP3    H127250   4.929   0.550   1.068  1.6189 -0.9200 -1.0400
 1945TIP3    H227251   5.035   0.632   0.997  0.1881  3.0772  1.1653
 1946TIP3   OH227252   0.468   3.885  10.418  0.1243 -0.4327 -0.5497
 1946TIP3    H127253   0.524   3.873  10.342  1.2366 -0.4703  0.2446
 1946TIP3    H227254   0.464   3.980  10.431  2.1098 -0.4890  0.8598
 1947TIP3   OH227255   0.961   4.651  13.071 -0.0979 -0.1481 -0.1681
 1947TIP3    H127256   0.895   4.652  13.140 -0.5301 -2.2757 -0.4840
 1947TIP3    H227257   1.031   4.594  13.104  0.8741  0.8414 -0.4651
 1948TIP3   OH227258   1.454   0.350   4.574  0.4650 -0.0830  0.2687
 1948TIP3    H127259   1.391   0.341   4.504 -0.0949  1.9381  0.4319
 1948TIP3    H227260   1.418   0.299   4.647  1.2582 -2.5298 -0.9614
 1949TIP3   OH227261   1.976   0.789  15.736  0.0490  0.0637  0.4433
 1949TIP3    H127262   2.046   0.851  15.758  0.3726 -0.3949  0.7145
 1949TIP3    H227263   2.015   0.703  15.750 -0.5022 -0.1993  0.3757
 1950TIP3   OH227264   0.870   0.183  15.451 -0.4099 -0.1151 -0.4144
 1950TIP3    H127265   0.858   0.245  15.523  0.6509  0.8347 -1.0236
 1950TIP3    H227266   0.964   0.186  15.432 -0.4367 -1.4565 -0.8736
 1951TIP3   OH227267   3.556   0.273   1.260 -0.1480 -0.2310  0.3128
 1951TIP3    H127268   3.579   0.208   1.327  0.1627  1.7140  2.1944
 1951TIP3    H227269   3.639   0.313   1.236 -0.1303 -1.4052 -1.9341
 1952TIP3   OH227270   6.740   6.338  12.195 -0.0169 -0.3814 -0.2809
 1952TIP3    H127271   6.646   6.335  12.180  0.0160 -1.1129 -0.3791
 1952TIP3    H227272   6.751   6.393  12.272 -0.5180 -0.2399 -0.3131
 1953TIP3   OH227273   3.625   0.089  13.161 -0.6625  0.1244 -0.6995
 1953TIP3    H127274   3.563   0.144  13.113 -2.3170 -1.4620 -0.4970
 1953TIP3    H227275   3.603   0.104  13.253  0.8755  1.3169 -0.4853
 1954TIP3   OH227276   0.567   1.099  10.472  0.4977 -0.2932  0.3929
 1954TIP3    H127277   0.642   1.069  10.421  0.6457 -0.4201  0.6828
 1954TIP3    H227278   0.597   1.098  10.563  0.1311 -0.3877  0.5158
 1955TIP3   OH227279   3.397   6.763  11.152 -0.6546 -0.3948 -0.0059
 1955TIP3    H127280   3.392   6.727  11.241 -0.5950 -0.4619 -0.0299
 1955TIP3    H227281   3.358   6.850  11.160  0.4069  0.0683  0.3414
 1956TIP3   OH227282   4.186   3.774   5.272  0.0119 -0.0318 -0.4177
 1956TIP3    H127283   4.169   3.686   5.306 -0.9243  0.4937  0.5593
 1956TIP3    H227284   4.272   3.798   5.307 -0.8496  0.4184  1.5214
 1957TIP3   OH227285   4.133   5.611   2.606 -0.3308  0.4271 -0.2062
 1957TIP3    H127286   4.084   5.676   2.556 -0.2677 -0.1512 -1.0357
 1957TIP3    H227287   4.115   5.632   2.697  1.0182  2.6815 -0.3682
 1958TIP3   OH227288   6.226   2.575   4.004 -0.3954  0.6906  0.0475
 1958TIP3    H127289   6.303   2.545   3.956  0.7353  0.9450  1.6531
 1958TIP3    H227290   6.185   2.496   4.038 -0.2490  0.6324  0.0857
 1959TIP3   OH227291   1.460   2.611  14.000  0.0109  0.1855 -0.5777
 1959TIP3    H127292   1.524   2.541  14.009 -1.8358 -1.3767  1.3444
 1959TIP3    H227293   1.497   2.669  13.933  0.7373 -3.5788 -3.7737
 1960TIP3   OH227294   0.320   3.314  12.609 -0.4910 -0.1102  0.1732
 1960TIP3    H127295   0.277   3.399  12.622 -0.2428 -0.1170  1.0549
 1960TIP3    H227296   0.403   3.335  12.567  0.7732  0.3662  2.7269
 1961TIP3   OH227297   5.747   4.241  12.353  0.7398 -0.6615 -0.3257
 1961TIP3    H127298   5.765   4.262  12.261 -0.3467 -1.0094 -0.6283
 1961TIP3    H227299   5.667   4.289  12.373 -0.1517 -2.1352 -0.1679
 1962TIP3   OH227300   5.974   6.010  13.058  0.4506  0.7375 -0.3467
 1962TIP3    H127301   6.016   5.981  12.977  1.2567  0.2668  0.2342
 1962TIP3    H227302   5.880   5.997  13.041  0.7035 -1.2178 -0.5109
 1963TIP3   OH227303   6.273   4.601   2.728 -0.1805 -0.0380  0.6183
 1963TIP3    H127304   6.248   4.652   2.651  1.5123  1.6939  1.1509
 1963TIP3    H227305   6.311   4.521   2.692 -0.3870  0.2762 -0.3256
 1964TIP3   OH227306   3.265   4.158   1.042 -0.0086  0.1242 -0.5134
 1964TIP3    H127307   3.346   4.143   1.091 -0.3964 -0.1485  0.0602
 1964TIP3    H227308   3.252   4.077   0.991  0.1574  0.2275 -0.7205
 1965TIP3   OH227309   4.909   6.275  14.350  0.4284 -0.3996  0.0780
 1965TIP3    H127310   4.997   6.253  14.380 -0.2546 -1.6425  1.2503
 1965TIP3    H227311   4.916   6.367  14.323  1.7552 -0.0365  1.4738
 1966TIP3   OH227312   4.161   1.720   4.301  0.3465 -0.2565 -0.2748
 1966TIP3    H127313   4.115   1.697   4.382 -1.6351  3.2812 -0.1893
 1966TIP3    H227314   4.201   1.805   4.320  1.3422 -0.1494 -2.5224
 1967TIP3   OH227315   5.320   0.491  15.569 -0.3449  0.1050  0.3357
 1967TIP3    H127316   5.355   0.506  15.481  0.7429 -0.1605  0.6973
 1967TIP3    H227317   5.257   0.562  15.583 -0.9554 -0.1793 -0.8629
 1968TIP3   OH227318   1.044   4.679   4.546 -0.0889 -0.2234  0.1482
 1968TIP3    H127319   0.950   4.694   4.534 -0.1549 -1.0471 -0.4607
 1968TIP3    H227320   1.080   4.766   4.564 -1.0396  0.0295  0.9302
 1969TIP3   OH227321   4.352   4.320  15.670  1.3353  0.5407 -0.3390
 1969TIP3    H127322   4.282   4.382  15.648  1.7534  1.9654  1.9837
 1969TIP3    H227323   4.306   4.242  15.701  0.7353  1.2207  0.5327
 1970TIP3   OH227324   3.549   5.173   2.086  0.0217 -0.2402 -0.1368
 1970TIP3    H127325   3.525   5.236   2.154 -0.5174 -0.8020  0.1958
 1970TIP3    H227326   3.498   5.199   2.009 -1.8770 -1.5455  0.6194
 1971TIP3   OH227327   4.225   2.321   5.954 -0.1082  0.0385  0.1389
 1971TIP3    H127328   4.210   2.376   5.877 -0.5904  0.3850  0.4687
 1971TIP3    H227329   4.154   2.344   6.013  1.6834  1.6714  1.7692
 1972TIP3   OH227330   4.447   5.419   3.602 -0.3252  0.5836  0.3923
 1972TIP3    H127331   4.503   5.493   3.623  0.4102 -0.2556  1.4764
 1972TIP3    H227332   4.358   5.449   3.623 -0.1630  1.4691 -0.1101
 1973TIP3   OH227333   4.010   1.256   6.757 -0.1671  0.1993 -0.0380
 1973TIP3    H127334   4.091   1.274   6.805  0.5834  2.4068 -1.9255
 1973TIP3    H227335   4.032   1.184   6.698 -0.8496 -1.9466  2.1754
 1974TIP3   OH227336   2.369   1.843   4.989 -0.1778 -0.2816 -0.7267
 1974TIP3    H127337   2.388   1.776   5.055 -1.1816 -1.0577 -1.2008
 1974TIP3    H227338   2.454   1.882   4.969  0.3130 -0.8912  0.1152
 1975TIP3   OH227339   5.853   5.792  14.125 -0.6751 -0.0418 -0.0996
 1975TIP3    H127340   5.841   5.867  14.066  1.4518  0.4330 -0.0305
 1975TIP3    H227341   5.771   5.786  14.174 -0.9451  2.2452 -0.1478
 1976TIP3   OH227342   2.874   6.483  14.175 -0.2863 -0.3015  0.4087
 1976TIP3    H127343   2.933   6.442  14.239  0.7277 -0.8955 -0.8567
 1976TIP3    H227344   2.916   6.566  14.153 -0.4370 -0.2652  0.2530
 1977TIP3   OH227345   1.656   1.957   2.138  0.1502  0.2732 -0.2613
 1977TIP3    H127346   1.679   1.983   2.227 -0.4061  0.5728 -0.2005
 1977TIP3    H227347   1.611   2.033   2.102 -0.8561 -0.3272 -0.3231
 1978TIP3   OH227348   1.732   3.742   2.624 -0.5273 -0.0103 -0.3096
 1978TIP3    H127349   1.708   3.651   2.645 -1.2319  0.4594  1.0340
 1978TIP3    H227350   1.821   3.735   2.588 -0.9026 -1.3161 -1.0671
 1979TIP3   OH227351   2.045   3.913  14.659 -0.0024 -0.8541 -0.2808
 1979TIP3    H127352   1.958   3.952  14.654  0.5972  0.6125 -0.1154
 1979TIP3    H227353   2.032   3.820  14.641 -1.1394 -0.1252 -4.3755
 1980TIP3   OH227354   5.102   6.363   0.034 -0.2837 -0.1167 -0.2123
 1980TIP3    H127355   5.097   6.356  -0.061  0.0211  0.1254 -0.2473
 1980TIP3    H227356   5.109   6.457   0.051 -0.1668 -0.1684  0.0408
 1981TIP3   OH227357   5.222   5.574   5.232  0.0758  0.4594  0.2828
 1981TIP3    H127358   5.255   5.517   5.301 -0.2394 -0.1553 -0.0677
 1981TIP3    H227359   5.131   5.592   5.258 -0.1871 -0.1380 -0.1874
 1982TIP3   OH227360   4.106   1.974   3.508  0.0955 -0.2741 -0.3176
 1982TIP3    H127361   4.011   1.977   3.518  0.0356 -1.6283 -0.1962
 1982TIP3    H227362   4.135   1.906   3.569  1.2403  0.6409  0.1983
 1983TIP3   OH227363   3.139   4.980   3.128 -0.4633  0.1646 -0.1065
 1983TIP3    H127364   3.184   4.978   3.043  0.4907  0.2923  0.3784
 1983TIP3    H227365   3.049   5.003   3.106 -0.4993 -0.9117 -1.1846
 1984TIP3   OH227366   2.919   5.521   2.732 -0.6314 -0.5202 -0.3914
 1984TIP3    H127367   3.011   5.539   2.712 -1.2968  3.4144 -0.5633
 1984TIP3    H227368   2.885   5.479   2.653  0.3713  0.6225 -1.4625
 1985TIP3   OH227369   4.183   2.070   5.836  0.2151  0.1307 -0.0310
 1985TIP3    H127370   4.093   2.079   5.805  0.7938 -0.2303 -1.9646
 1985TIP3    H227371   4.222   2.156   5.819  0.9694 -0.5290 -1.9379
 1986TIP3   OH227372   0.531   3.187   4.898  0.2721  0.3296  0.4104
 1986TIP3    H127373   0.455   3.191   4.840  0.1535 -0.0303  0.5354
 1986TIP3    H227374   0.585   3.262   4.873  1.7521 -1.4654 -2.2648
 1987TIP3   OH227375   4.905   3.982  16.082 -0.2255 -0.0500  0.1353
 1987TIP3    H127376   4.883   3.897  16.044 -0.8961  0.1325  0.1009
 1987TIP3    H227377   4.921   4.039  16.007  1.8980 -0.5374  0.1471
 1988TIP3   OH227378   2.477   5.289  14.984  0.5752  0.2898  0.3519
 1988TIP3    H127379   2.418   5.348  14.938  1.8252  2.0108  0.8266
 1988TIP3    H227380   2.564   5.309  14.947  1.1282 -0.7193  1.0555
 1989TIP3   OH227381   3.812   3.772  16.239  0.0416  0.3434 -0.5503
 1989TIP3    H127382   3.872   3.749  16.310 -0.9046  1.0220  0.4902
 1989TIP3    H227383   3.815   3.868  16.235 -2.6981  0.5999  1.1315
 1990TIP3   OH227384   2.176   2.218  12.425  0.3735 -0.2330 -0.5043
 1990TIP3    H127385   2.243   2.206  12.358  0.8882 -0.1673 -0.0053
 1990TIP3    H227386   2.100   2.170  12.391 -0.1258  1.6014 -2.1790
 1991TIP3   OH227387   1.137   6.732   0.381  0.2138  0.2738  0.3793
 1991TIP3    H127388   1.172   6.706   0.467 -1.3485  0.4252  1.0956
 1991TIP3    H227389   1.152   6.827   0.377 -1.0550  0.5199  1.1549
 1992TIP3   OH227390   4.236   5.909  15.326 -0.2320  0.1590  0.4540
 1992TIP3    H127391   4.324   5.945  15.314 -1.2502  2.6383 -0.2223
 1992TIP3    H227392   4.209   5.882  15.238 -0.0094 -0.9989  0.7323
 1993TIP3   OH227393   2.807   4.026   2.520 -0.6640 -0.3297  0.1930
 1993TIP3    H127394   2.866   4.038   2.594 -1.6188  0.8154  0.8140
 1993TIP3    H227395   2.791   3.932   2.517 -2.7838 -0.2101  3.2326
 1994TIP3   OH227396   3.885   0.803   2.201 -0.3521  0.0800  0.1225
 1994TIP3    H127397   3.828   0.819   2.125  1.9170 -0.6709 -1.8846
 1994TIP3    H227398   3.973   0.813   2.166  0.8106 -0.4240  2.7017
 1995TIP3   OH227399   2.294   5.325  13.263  0.3273 -0.0265  0.2504
 1995TIP3    H127400   2.285   5.346  13.356  0.0828 -2.6224  0.8976
 1995TIP3    H227401   2.207   5.338  13.227 -0.3500 -1.7914  1.1029
 1996TIP3   OH227402   6.725   5.115   0.025 -0.0653 -0.5337  0.0508
 1996TIP3    H127403   6.704   5.126   0.118 -0.6177  2.4930 -0.3311
 1996TIP3    H227404   6.800   5.171   0.011 -1.5318  1.1162 -1.7851
 1997TIP3   OH227405   3.223   5.205  14.557 -0.3830 -0.0093  0.0067
 1997TIP3    H127406   3.239   5.135  14.493  1.2137 -2.7186  3.0696
 1997TIP3    H227407   3.286   5.274  14.534  2.2321 -2.1620  0.2039
 1998TIP3   OH227408   2.143   5.755  14.710 -0.1841  0.5481 -0.1812
 1998TIP3    H127409   2.100   5.670  14.716  0.6015  0.0219 -1.5542
 1998TIP3    H227410   2.103   5.798  14.635  0.8970  0.4842 -0.8205
 1999TIP3   OH227411   4.162   0.023  10.867 -0.2657  0.1958 -0.1029
 1999TIP3    H127412   4.106   0.086  10.822  0.4850  1.5970  0.8289
 1999TIP3    H227413   4.112  -0.002  10.945  0.3126  1.3945  0.6933
 2000TIP3   OH227414   6.193   0.005  11.890 -0.2879 -0.2096 -0.4427
 2000TIP3    H127415   6.195  -0.076  11.839  0.0776 -0.2601 -0.3523
 2000TIP3    H227416   6.112   0.049  11.863 -1.3346 -1.3633  0.6681
 2001TIP3   OH227417   6.007   4.085  16.428  0.2946 -0.1233 -0.4247
 2001TIP3    H127418   5.937   4.060  16.488 -0.2593  1.1521 -0.5169
 2001TIP3    H227419   5.985   4.041  16.346 -0.8762  0.9335 -0.6988
 2002TIP3   OH227420   3.448   4.733  14.859  0.6006  0.2599  0.1865
 2002TIP3    H127421   3.355   4.718  14.846  0.5874 -1.9155  2.1205
 2002TIP3    H227422   3.474   4.791  14.787 -1.8042 -0.6968 -1.5684
 2003TIP3   OH227423   3.021   4.386   1.394  0.0815  0.2675  0.1650
 2003TIP3    H127424   3.055   4.367   1.481  0.5666 -1.2980 -0.3316
 2003TIP3    H227425   2.926   4.388   1.405  0.0852 -0.9287  0.5742
 2004TIP3   OH227426   4.028   5.119   2.305  0.1658 -0.2596  0.0423
 2004TIP3    H127427   4.070   5.098   2.388  2.5380  2.0144 -0.4353
 2004TIP3    H227428   3.974   5.196   2.324  3.4882  2.5932 -0.9901
 2005TIP3   OH227429   5.116   6.243   1.784  0.6313  0.0180  0.4367
 2005TIP3    H127430   5.068   6.194   1.850  0.3484 -0.6802 -0.2633
 2005TIP3    H227431   5.207   6.217   1.797  0.5217 -0.4530  0.2775
 2006TIP3   OH227432   0.924   3.483   1.745 -0.1520 -0.4466 -0.0973
 2006TIP3    H127433   0.916   3.411   1.807 -1.1145  0.0491  0.3867
 2006TIP3    H227434   0.842   3.532   1.755  0.6211  0.9186 -0.1516
 2007TIP3   OH227435   6.632   3.243   1.650  0.1624 -0.6284 -0.4280
 2007TIP3    H127436   6.581   3.293   1.586  1.3818 -0.6050 -1.4136
 2007TIP3    H227437   6.723   3.269   1.633  0.8402 -3.0997 -0.9373
 2008TIP3   OH227438   0.718   5.469   1.271  0.1625 -0.3505 -0.2386
 2008TIP3    H127439   0.726   5.564   1.279  3.3916 -0.5052 -0.2541
 2008TIP3    H227440   0.808   5.438   1.259 -0.7879 -3.4211 -0.4114
 2009TIP3   OH227441   2.094   2.911  12.226 -0.2118  0.1126  0.5025
 2009TIP3    H127442   2.043   2.975  12.276 -1.0521  0.1468 -0.3763
 2009TIP3    H227443   2.177   2.955  12.208  0.7176 -0.3944  3.0454
 2010TIP3   OH227444   2.769   4.573  14.099 -0.1694 -0.0578 -0.0486
 2010TIP3    H127445   2.696   4.544  14.044  0.4172 -0.5310 -0.5948
 2010TIP3    H227446   2.847   4.554  14.047  0.5106 -1.9824  1.5445
 2011TIP3   OH227447   2.574   4.538  16.581 -0.0221 -0.2483 -0.9596
 2011TIP3    H127448   2.515   4.602  16.541  1.9872  2.5192  0.1598
 2011TIP3    H227449   2.527   4.507  16.658  0.2264  2.8106  0.6022
 2012TIP3   OH227450   1.366   4.260  11.816  0.0059  0.1896  0.5087
 2012TIP3    H127451   1.283   4.294  11.849 -0.1651 -0.1218  0.4068
 2012TIP3    H227452   1.362   4.166  11.833  0.2496  0.1427  0.3171
 2013TIP3   OH227453   4.180   5.770  15.549  0.5491 -0.4038 -0.4020
 2013TIP3    H127454   4.200   5.810  15.465  0.5812  0.8366  0.1757
 2013TIP3    H227455   4.162   5.844  15.607 -1.5590 -1.2955  0.1636
 2014TIP3   OH227456   0.884   4.244  15.848 -0.3283 -0.0971  0.3625
 2014TIP3    H127457   0.811   4.193  15.812 -0.7124  1.6775 -1.5348
 2014TIP3    H227458   0.856   4.335  15.840  0.8717  0.5355  2.4675
 2015TIP3   OH227459   0.149   2.080  15.999  0.1415  0.4184 -0.0603
 2015TIP3    H127460   0.085   2.127  15.945 -0.9097 -2.4929 -1.5624
 2015TIP3    H227461   0.096   2.032  16.062  1.0747  0.0992  0.5020
 2016TIP3   OH227462   1.336   1.533  11.231  0.1287  0.2507  0.0483
 2016TIP3    H127463   1.257   1.499  11.273 -1.5174  1.0142 -2.2444
 2016TIP3    H227464   1.389   1.566  11.303 -1.9764  0.4070  1.6192
 2017TIP3   OH227465   4.237   0.455  15.170 -0.4179 -0.4398  0.2893
 2017TIP3    H127466   4.299   0.447  15.097 -0.7893  0.2270 -0.1105
 2017TIP3    H227467   4.272   0.396  15.237 -0.8699 -2.2747 -0.9806
 2018TIP3   OH227468   2.583   3.192  11.902 -0.6435 -0.1564 -0.0653
 2018TIP3    H127469   2.618   3.276  11.873  0.9165 -0.5940  0.4489
 2018TIP3    H227470   2.594   3.193  11.997  0.6881 -1.4579 -0.1629
 2019TIP3   OH227471   2.668   3.032   2.607 -0.1769 -0.2464 -0.2070
 2019TIP3    H127472   2.611   2.997   2.539 -1.6288 -3.1552  2.2478
 2019TIP3    H227473   2.743   2.973   2.608 -0.1699 -0.2382  0.6416
 2020TIP3   OH227474   1.073   4.098  12.770 -0.8118  0.1576 -0.1092
 2020TIP3    H127475   1.064   4.194  12.774 -4.3937 -0.0431  1.0752
 2020TIP3    H227476   1.027   4.068  12.849 -0.0325 -2.5682 -0.6214
 2021TIP3   OH227477   3.225   0.511  13.422 -0.0547  0.1801  0.1845
 2021TIP3    H127478   3.262   0.566  13.353  0.5967  0.3000  0.6217
 2021TIP3    H227479   3.301   0.484  13.475 -0.3956 -0.8657  0.1746
 2022TIP3   OH227480   6.251   3.437   1.803 -0.6745  0.1842 -0.0356
 2022TIP3    H127481   6.277   3.444   1.894 -1.4502  0.6255  0.1657
 2022TIP3    H227482   6.231   3.527   1.776  0.7135  0.2255 -1.0077
 2023TIP3   OH227483   3.162   1.238  12.884 -0.4151  0.7273 -0.1498
 2023TIP3    H127484   3.094   1.289  12.927 -0.5904 -0.1014  0.5959
 2023TIP3    H227485   3.242   1.289  12.895 -0.3489  0.2842  1.6783
 2024TIP3   OH227486   2.987   3.596  17.274 -0.0600 -0.1588 -1.1262
 2024TIP3    H127487   3.018   3.610  17.184  2.4059 -2.8672 -0.8288
 2024TIP3    H227488   3.024   3.669  17.323  1.8694 -0.6978 -1.6968
 2025TIP3   OH227489   3.501   4.285  12.386 -0.8594  0.0467 -0.4610
 2025TIP3    H127490   3.436   4.348  12.415 -1.3741  0.4336 -2.3192
 2025TIP3    H227491   3.462   4.244  12.309  1.1802  0.5004 -1.8117
 2026TIP3   OH227492   4.046   3.777  11.946 -0.8553  0.1404  0.2356
 2026TIP3    H127493   4.072   3.686  11.964 -0.1330  0.0934 -0.9210
 2026TIP3    H227494   3.995   3.771  11.865 -2.0654  0.6035  0.9382
 2027TIP3   OH227495   0.536   5.268  13.038 -0.2972 -0.2327  0.1044
 2027TIP3    H127496   0.620   5.287  12.996 -0.8929 -0.9495 -1.5228
 2027TIP3    H227497   0.538   5.318  13.120  1.7701 -0.3692  0.2020
 2028TIP3   OH227498   1.396   0.597   2.619  0.3299 -0.0446 -0.4388
 2028TIP3    H127499   1.455   0.524   2.636 -0.9778 -0.7523  1.4473
 2028TIP3    H227500   1.429   0.668   2.675  1.3288  0.7039 -1.9236
 2029TIP3   OH227501   2.789   3.008  11.831 -0.8193 -0.1322 -0.9165
 2029TIP3    H127502   2.709   3.046  11.867 -1.2933 -0.1175 -1.9445
 2029TIP3    H227503   2.845   3.084  11.811 -2.6903  0.4160 -5.1965
 2030TIP3   OH227504   6.517   0.276  16.496  0.3833  0.4273 -0.2133
 2030TIP3    H127505   6.575   0.269  16.572 -0.1658 -0.2423  0.1541
 2030TIP3    H227506   6.453   0.206  16.508  0.0904  0.5254 -1.1283
 2031TIP3   OH227507   6.302   6.600   5.395 -0.4074 -0.1208  0.0051
 2031TIP3    H127508   6.393   6.575   5.410 -0.3584 -1.0860 -1.6455
 2031TIP3    H227509   6.305   6.694   5.377  0.2358 -0.1067  0.1850
 2032TIP3   OH227510   1.919   6.224   0.456 -0.2712  0.3059  0.1963
 2032TIP3    H127511   1.921   6.253   0.364 -2.2526 -1.4754 -0.5215
 2032TIP3    H227512   1.963   6.139   0.455 -0.3247  0.2662  0.9014
 2033TIP3   OH227513   0.770   6.664   3.133 -0.7205  0.6713  0.0628
 2033TIP3    H127514   0.737   6.575   3.120 -2.5465  1.3947 -0.6812
 2033TIP3    H227515   0.862   6.659   3.110 -0.7537 -1.0430  0.1365
 2034TIP3   OH227516   4.141   3.977  12.726  0.0242  0.7796 -0.6121
 2034TIP3    H127517   4.211   3.919  12.756 -1.0557 -0.9270 -1.2505
 2034TIP3    H227518   4.185   4.061  12.711  2.0780 -0.3879 -1.5945
 2035TIP3   OH227519   5.161   5.929  15.845 -0.3854 -0.4556 -0.3501
 2035TIP3    H127520   5.230   5.915  15.910 -0.5245  1.0161  0.1429
 2035TIP3    H227521   5.098   5.986  15.889 -0.4045  0.7168 -1.8362
 2036TIP3   OH227522   4.048   3.820   0.651 -0.0394 -0.0957 -0.5280
 2036TIP3    H127523   4.084   3.903   0.622 -0.5153  0.6037  0.8040
 2036TIP3    H227524   4.062   3.761   0.577  4.4493 -0.1210  0.0584
 2037TIP3   OH227525   5.031   3.602   5.859 -0.2732 -0.4901  0.0121
 2037TIP3    H127526   4.980   3.680   5.841  0.8638 -0.3122 -2.8685
 2037TIP3    H227527   5.101   3.632   5.917  0.2993  0.7519 -1.2532
 2038TIP3   OH227528   4.720   5.183  11.864 -0.3710  0.3109 -0.1502
 2038TIP3    H127529   4.681   5.269  11.874 -1.9717 -0.0906 -2.2249
 2038TIP3    H227530   4.814   5.200  11.854 -0.3531  1.5747  1.7392
 2039TIP3   OH227531   4.837   4.457  12.398  0.0461  0.4767  0.6516
 2039TIP3    H127532   4.923   4.490  12.422 -0.1208  0.1985  1.6638
 2039TIP3    H227533   4.779   4.487  12.468  0.0089 -2.4379  2.0271
 2040TIP3   OH227534   6.586   3.475  15.848 -0.5101  0.5006  0.1475
 2040TIP3    H127535   6.510   3.430  15.885 -0.5432 -0.2543 -0.7938
 2040TIP3    H227536   6.580   3.459  15.754  0.8267  0.3963  0.0600
 2041TIP3   OH227537   6.316   0.751   1.721  0.0846 -0.2302  0.4411
 2041TIP3    H127538   6.382   0.689   1.688 -0.3427 -1.1502  1.2505
 2041TIP3    H227539   6.293   0.716   1.807 -0.6693  0.6953  0.6208
 2042TIP3   OH227540   0.722   3.142   2.232 -0.3104  0.0800 -0.6380
 2042TIP3    H127541   0.650   3.097   2.276 -2.1023  1.1519 -2.2890
 2042TIP3    H227542   0.724   3.228   2.273 -2.2736  1.2375 -2.7379
 2043TIP3   OH227543   5.312   0.140  16.064 -0.0947  0.4582 -0.4105
 2043TIP3    H127544   5.328   0.096  15.981  4.5148 -0.1178  0.5454
 2043TIP3    H227545   5.363   0.221  16.059 -0.2947  0.7548  1.5663
 2044TIP3   OH227546   1.738   2.323  13.751  0.3317 -0.1207 -0.2259
 2044TIP3    H127547   1.822   2.369  13.749  0.5392 -0.5047 -0.4634
 2044TIP3    H227548   1.743   2.261  13.678 -0.3760  0.2274 -0.5820
 2045TIP3   OH227549   1.757   3.389  15.209 -0.0017  0.2176 -0.1214
 2045TIP3    H127550   1.784   3.472  15.171 -0.6023 -0.2661 -1.7107
 2045TIP3    H227551   1.813   3.377  15.286 -0.6090  2.5694  0.7745
 2046TIP3   OH227552   3.939   4.434  12.973 -0.1949 -0.0532 -0.1195
 2046TIP3    H127553   3.913   4.358  12.921  1.3111 -0.2240 -0.6876
 2046TIP3    H227554   3.902   4.418  13.060 -0.4109 -1.1400 -0.4000
 2047TIP3   OH227555   1.295   3.257  15.860  0.3294 -0.3380  0.4380
 2047TIP3    H127556   1.234   3.248  15.787  1.8853 -1.6061 -0.7581
 2047TIP3    H227557   1.240   3.250  15.938 -1.0958 -1.0187 -0.5885
 2048TIP3   OH227558   4.752   3.207  12.809 -0.5675  0.3112  0.2295
 2048TIP3    H127559   4.710   3.273  12.753  0.3070 -0.1850 -1.0601
 2048TIP3    H227560   4.798   3.150  12.747 -0.2540 -0.7528  1.4203
 2049TIP3   OH227561   1.368   0.481   4.885 -0.1397  0.2091 -0.1338
 2049TIP3    H127562   1.308   0.521   4.822 -0.2328 -0.7581 -0.6788
 2049TIP3    H227563   1.315   0.415   4.930  0.1526  0.3125  0.3695
 2050TIP3   OH227564   6.446   5.749   2.247 -0.2662 -0.2907  0.2760
 2050TIP3    H127565   6.426   5.747   2.153 -2.3508 -0.8628  0.6729
 2050TIP3    H227566   6.504   5.674   2.261 -1.2292 -1.1896 -0.3440
 2051TIP3   OH227567   3.498   5.945  13.238 -0.3903 -0.5408  0.1777
 2051TIP3    H127568   3.510   6.039  13.246 -1.6194 -0.4541  1.6588
 2051TIP3    H227569   3.587   5.909  13.234  0.1197  0.6232  0.6511
 2052TIP3   OH227570   2.830   2.612  16.721  0.5552 -0.0319  0.1856
 2052TIP3    H127571   2.777   2.691  16.735 -1.1740 -0.5673 -2.6622
 2052TIP3    H227572   2.909   2.644  16.677  0.0245  0.1840 -0.6312
 2053TIP3   OH227573   1.462   0.486   0.047  0.1863  0.7069 -0.6758
 2053TIP3    H127574   1.406   0.555   0.010 -0.2999  0.1366 -1.0334
 2053TIP3    H227575   1.549   0.525   0.052  0.0515  1.1293 -1.4995
 2054TIP3   OH227576   5.216   5.330  16.092 -0.1990 -0.3109 -0.4710
 2054TIP3    H127577   5.191   5.422  16.090 -0.9379 -0.5075 -2.1118
 2054TIP3    H227578   5.281   5.322  16.022 -1.3930 -1.3330 -1.5200
 2055TIP3   OH227579   2.475   2.406   1.842 -0.2489  0.2692 -0.6714
 2055TIP3    H127580   2.381   2.392   1.831 -0.9001  2.8544  0.5718
 2055TIP3    H227581   2.485   2.501   1.835  2.0982  0.1556  0.3528
 2056TIP3   OH227582   4.141   2.944   4.562  0.3040 -0.3299  0.0137
 2056TIP3    H127583   4.136   3.038   4.548 -2.4872 -0.3077  0.6725
 2056TIP3    H227584   4.125   2.906   4.475 -0.2442 -0.1822  0.0475
 2057TIP3   OH227585   2.314   2.424  14.918  0.1561  0.1162  0.6197
 2057TIP3    H127586   2.315   2.374  15.000 -0.1411 -1.2084 -0.1479
 2057TIP3    H227587   2.304   2.515  14.945 -2.0933 -0.4549  1.9922
 2058TIP3   OH227588   3.350   0.930  14.479  0.5173  0.4119 -0.4110
 2058TIP3    H127589   3.411   0.922  14.405 -0.4466 -0.4420 -1.1463
 2058TIP3    H227590   3.391   0.880  14.549  0.4462 -0.5774 -1.0534
 2059TIP3   OH227591   6.028   2.428  13.443  0.0519  0.2338 -0.3566
 2059TIP3    H127592   5.947   2.432  13.394  0.7170  0.6548 -1.4603
 2059TIP3    H227593   6.071   2.512  13.427  1.4013 -0.5392 -1.0600
 2060TIP3   OH227594   2.155   3.860  13.548  0.7486 -0.2210  0.6245
 2060TIP3    H127595   2.221   3.803  13.587  0.7326  0.1549  1.2023
 2060TIP3    H227596   2.111   3.900  13.622  0.7740  0.5719  0.2174
 2061TIP3   OH227597   5.317   3.639  16.141 -0.2446 -0.3063 -0.1426
 2061TIP3    H127598   5.326   3.566  16.203 -0.1189  0.3007  0.5765
 2061TIP3    H227599   5.316   3.598  16.055  1.3532 -1.0379  0.1594
 2062TIP3   OH227600   2.105   5.978  15.340 -0.1219 -0.3530 -0.2113
 2062TIP3    H127601   2.051   5.902  15.322  1.7744 -1.6734 -0.5882
 2062TIP3    H227602   2.076   6.044  15.276 -2.3034 -0.4175  0.6224
 2063TIP3   OH227603   2.319   5.634   5.295  0.1160 -0.4390 -0.2228
 2063TIP3    H127604   2.226   5.621   5.275 -0.1233 -2.2061  1.7216
 2063TIP3    H227605   2.329   5.602   5.385  2.5134  0.2094 -0.1987
 2064TIP3   OH227606   1.098   4.390  11.764  0.2044  0.6103 -0.0251
 2064TIP3    H127607   1.114   4.446  11.688  0.7030  0.1178 -0.2972
 2064TIP3    H227608   1.014   4.419  11.799  0.2494  1.2289 -0.4219
 2065TIP3   OH227609   0.434   5.019   3.623  0.3081  0.3761 -0.3264
 2065TIP3    H127610   0.352   5.056   3.656 -0.4143 -1.9571  0.7509
 2065TIP3    H227611   0.409   4.974   3.542  0.6421  0.2241 -0.3479
 2066TIP3   OH227612   0.296   6.286  16.528  0.0500 -0.0511  0.1115
 2066TIP3    H127613   0.224   6.346  16.507 -0.3062 -0.1253  1.0768
 2066TIP3    H227614   0.287   6.270  16.622 -0.9022 -2.9802 -0.3953
 2067TIP3   OH227615   1.810   6.097  12.429  0.3302  0.3097 -0.2526
 2067TIP3    H127616   1.855   6.156  12.489  0.0943  0.5756 -0.3367
 2067TIP3    H227617   1.731   6.070  12.476  0.7695 -0.4752  0.0594
 2068TIP3   OH227618   3.159   2.857  15.170  0.2476 -0.4677 -0.5772
 2068TIP3    H127619   3.133   2.774  15.210  0.3768 -0.1655  0.1412
 2068TIP3    H227620   3.082   2.885  15.121  0.1889 -0.9875 -0.7910
 2069TIP3   OH227621   3.612   4.118   4.541 -0.2637  0.5397  0.0055
 2069TIP3    H127622   3.674   4.187   4.564 -0.4780  0.6258  0.3326
 2069TIP3    H227623   3.631   4.098   4.450  1.7543 -0.9914  0.6903
 2070TIP3   OH227624   6.222   5.386   5.099  0.0200  0.6345  0.3815
 2070TIP3    H127625   6.234   5.405   5.192 -1.4081  2.0944  0.3130
 2070TIP3    H227626   6.260   5.462   5.054  0.9922 -0.2094 -0.2736
 2071TIP3   OH227627   4.090   3.323  13.572  0.4703  0.0179  0.2408
 2071TIP3    H127628   4.017   3.382  13.589  1.3191  0.8283  1.1895
 2071TIP3    H227629   4.094   3.267  13.650  1.6516  0.8461  0.8036
 2072TIP3   OH227630   0.972   1.603   3.658  0.4607  0.7912 -0.4352
 2072TIP3    H127631   0.915   1.529   3.636  0.9144  0.5159 -0.7035
 2072TIP3    H227632   0.912   1.676   3.671  0.0556  0.5632 -0.9576
 2073TIP3   OH227633   0.647   1.083  14.057 -0.3493 -0.3884 -0.0250
 2073TIP3    H127634   0.587   1.036  13.998  0.1993  0.8423 -1.6576
 2073TIP3    H227635   0.606   1.077  14.143 -3.0117  0.6598 -1.1258
 2074TIP3   OH227636   3.568   5.660   3.711 -0.0679  0.1422 -0.6630
 2074TIP3    H127637   3.638   5.713   3.748  1.5758 -1.6692 -1.0253
 2074TIP3    H227638   3.553   5.697   3.624  0.0043  0.9068 -0.3614
 2075TIP3   OH227639   6.646   1.303  16.596 -0.5730  0.1274 -0.5227
 2075TIP3    H127640   6.636   1.398  16.606  0.9624  0.1903  0.9018
 2075TIP3    H227641   6.740   1.289  16.599 -0.7620 -1.4215 -1.1411
 2076TIP3   OH227642   2.613   2.709   3.587 -0.5659 -0.2422  0.4445
 2076TIP3    H127643   2.655   2.638   3.636 -1.9697 -1.6277 -0.2886
 2076TIP3    H227644   2.599   2.673   3.499 -0.3312  1.3440 -0.2859
 2077TIP3   OH227645   2.647   4.498  14.576 -0.5644  0.2803 -0.2302
 2077TIP3    H127646   2.669   4.433  14.509  0.1966  0.3612 -0.0633
 2077TIP3    H227647   2.672   4.582  14.536 -0.2878  0.3448  0.0770
 2078TIP3   OH227648   2.206   0.138   4.028 -0.3663 -0.4163 -0.5154
 2078TIP3    H127649   2.218   0.095   4.112 -1.2574 -1.3860 -0.8623
 2078TIP3    H227650   2.276   0.203   4.024 -2.2378  2.0373  2.4170
 2079TIP3   OH227651   2.137   0.455  10.934 -0.1724 -0.1430  0.4202
 2079TIP3    H127652   2.107   0.383  10.989  0.1734 -0.6437 -0.0330
 2079TIP3    H227653   2.063   0.516  10.931 -0.9859 -1.1268 -0.2902
 2080TIP3   OH227654   3.120   2.040   1.180  0.3228 -0.4500 -0.3434
 2080TIP3    H127655   3.142   1.952   1.212  0.5663  0.1001  1.1246
 2080TIP3    H227656   3.196   2.066   1.128 -0.2520 -1.5321 -1.7962
 2081TIP3   OH227657   2.978   0.414   5.106 -0.7600  0.3302  0.2962
 2081TIP3    H127658   3.002   0.490   5.053  0.1189 -0.1670 -0.0411
 2081TIP3    H227659   2.883   0.417   5.110 -0.7125  1.9268  1.0127
 2082TIP3   OH227660   5.247   3.944   0.131 -0.0698 -0.6590 -0.5348
 2082TIP3    H127661   5.228   3.967   0.040 -0.1866 -0.3464 -0.4302
 2082TIP3    H227662   5.341   3.954   0.139 -0.0020 -1.0819 -0.7313
 2083TIP3   OH227663   5.734   6.744   3.602  0.2261  0.6395  0.2467
 2083TIP3    H127664   5.679   6.689   3.547  0.9864 -0.2313  0.3354
 2083TIP3    H227665   5.783   6.799   3.541  0.8434 -0.1109  0.0532
 2084TIP3   OH227666   0.948   2.555   1.247  0.3898 -0.4120 -0.4977
 2084TIP3    H127667   0.852   2.550   1.247  0.3887 -0.5124  0.1781
 2084TIP3    H227668   0.970   2.587   1.160 -0.2973  0.1899 -0.4644
 2085TIP3   OH227669   3.847   0.492  15.311 -0.7968 -0.1355 -0.0016
 2085TIP3    H127670   3.847   0.399  15.286 -0.8634 -0.4476  1.1137
 2085TIP3    H227671   3.762   0.505  15.353 -0.0198 -0.0727  1.6116
 2086TIP3   OH227672   5.943   2.708  10.788 -0.3845  0.2053 -0.2546
 2086TIP3    H127673   5.951   2.624  10.835 -1.4167 -0.9653 -2.0524
 2086TIP3    H227674   6.021   2.757  10.814  0.0980 -1.1744  1.0943
 2087TIP3   OH227675   6.152   6.323  13.419 -0.1865  0.3683  0.0042
 2087TIP3    H127676   6.151   6.241  13.369  1.2826  0.0842  0.3989
 2087TIP3    H227677   6.117   6.299  13.505 -0.4353  0.3191 -0.1098
 2088TIP3   OH227678   5.161   6.113   2.104 -0.2791  0.2410  0.3813
 2088TIP3    H127679   5.183   6.021   2.091  1.9466  0.8182 -0.4289
 2088TIP3    H227680   5.073   6.121   2.069  0.6338 -0.9986 -2.5048
 2089TIP3   OH227681   4.797   5.859   2.189  0.1075  0.2266  0.4698
 2089TIP3    H127682   4.731   5.848   2.257 -0.5559 -2.9209 -0.5117
 2089TIP3    H227683   4.879   5.872   2.237 -0.2223 -2.6127  2.0095
 2090TIP3   OH227684   6.553   2.228   3.873 -0.2623 -0.5981 -0.4112
 2090TIP3    H127685   6.610   2.217   3.949 -2.7757  1.7454  2.0555
 2090TIP3    H227686   6.613   2.234   3.798  2.3200 -3.1398  1.2495
 2091TIP3   OH227687   4.694   4.732   5.962  0.1538  0.0603  0.0298
 2091TIP3    H127688   4.694   4.658   6.022 -0.9283 -0.1920 -0.2591
 2091TIP3    H227689   4.634   4.706   5.891 -1.6616  1.8599  0.7969
 2092TIP3   OH227690   3.873   2.077  15.294 -0.0834 -0.6227 -0.0630
 2092TIP3    H127691   3.873   2.162  15.338  0.6022  0.2132 -1.5999
 2092TIP3    H227692   3.932   2.088  15.220 -1.0231 -2.0307 -1.0849
 2093TIP3   OH227693   2.830   3.277   0.466  0.8383 -0.3590 -0.2580
 2093TIP3    H127694   2.921   3.285   0.437  1.5091 -1.2948  1.4513
 2093TIP3    H227695   2.795   3.204   0.415  0.9391  0.1509 -1.0873
 2094TIP3   OH227696   1.742   4.468  13.854  0.8462  0.1856 -0.0307
 2094TIP3    H127697   1.768   4.424  13.773  1.5935 -1.5623  1.0993
 2094TIP3    H227698   1.649   4.488  13.842  0.5611 -1.4211 -0.7499
 2095TIP3   OH227699   1.025   4.471   3.405 -0.2810 -0.5527 -0.4488
 2095TIP3    H127700   0.984   4.478   3.492  0.4914 -1.4318  0.0086
 2095TIP3    H227701   0.956   4.436   3.349 -0.3002 -1.6595  0.2323
 2096TIP3   OH227702   4.661   4.032   0.198  0.4142 -0.0387  0.2232
 2096TIP3    H127703   4.733   3.969   0.209  0.3846  0.0166  0.7426
 2096TIP3    H227704   4.693   4.112   0.239  0.8327  0.5889 -1.2669
 2097TIP3   OH227705   6.592   0.547  17.127  0.2532 -0.0793 -0.2399
 2097TIP3    H127706   6.519   0.492  17.156 -1.4404  1.9895 -0.3279
 2097TIP3    H227707   6.643   0.564  17.207  0.5274 -1.3360 -0.1329
 2098TIP3   OH227708   1.526   5.029  12.455  0.1140 -0.0707  0.1502
 2098TIP3    H127709   1.463   5.040  12.384 -0.4460  0.5744  0.7271
 2098TIP3    H227710   1.564   4.943  12.441 -0.7723 -0.3934 -0.3200
 2099TIP3   OH227711   4.062   5.559  10.592 -0.2501  0.4257  0.3898
 2099TIP3    H127712   4.113   5.491  10.548 -1.5698 -1.1784  1.2170
 2099TIP3    H227713   3.976   5.518  10.607 -1.0461  2.2461  1.0396
 2100TIP3   OH227714   4.493   2.785   3.791 -0.1217  0.3372  0.1887
 2100TIP3    H127715   4.424   2.816   3.850  1.1286 -1.6370  2.9270
 2100TIP3    H227716   4.465   2.698   3.764  1.4716 -0.7919  1.9002
 2101TIP3   OH227717   0.682   3.626   5.900  0.5483  0.4968 -0.6919
 2101TIP3    H127718   0.627   3.579   5.837 -0.1436  1.0161 -0.4854
 2101TIP3    H227719   0.620   3.663   5.963  1.2684 -0.5782  0.6900
 2102TIP3   OH227720   6.303   1.475  14.433  0.3649  0.9683 -0.5891
 2102TIP3    H127721   6.349   1.558  14.422 -0.4060  1.3622 -1.0084
 2102TIP3    H227722   6.214   1.493  14.401  0.0439  0.1203 -0.2167
 2103TIP3   OH227723   0.244   2.412  14.485  0.1211  0.3491  0.5183
 2103TIP3    H127724   0.166   2.388  14.435  0.9062  0.2733 -0.7042
 2103TIP3    H227725   0.218   2.401  14.577 -0.9376 -0.8053  0.1061
 2104TIP3   OH227726   5.813   4.937  13.818  0.4020 -0.8463  0.3174
 2104TIP3    H127727   5.815   4.870  13.887 -1.4165  1.3418  2.7312
 2104TIP3    H227728   5.902   4.972  13.817  0.5552 -1.1529  1.3482
 2105TIP3   OH227729   1.579   6.090   1.774 -0.1674 -0.4229 -0.2705
 2105TIP3    H127730   1.535   6.006   1.787  1.0409 -0.8568  1.4603
 2105TIP3    H227731   1.671   6.072   1.790  0.2538  1.0547 -0.8145
 2106TIP3   OH227732   2.092   5.604  13.417 -0.0693 -0.4358 -0.0335
 2106TIP3    H127733   2.095   5.691  13.376  2.6843 -0.3701  0.1190
 2106TIP3    H227734   2.099   5.542  13.345  1.5452 -0.4024  0.0681
 2107TIP3   OH227735   1.860   3.403  14.120 -0.0137 -0.1458 -0.0029
 2107TIP3    H127736   1.784   3.459  14.103  0.0551 -0.7031 -2.5173
 2107TIP3    H227737   1.824   3.315  14.129  0.1535 -0.1170  1.1500
 2108TIP3   OH227738   0.272   4.572   0.112  0.2031  0.1273 -0.0319
 2108TIP3    H127739   0.291   4.535   0.026 -1.1660 -1.1482  0.1658
 2108TIP3    H227740   0.225   4.653   0.094  0.6673  0.3020 -0.4763
 2109TIP3   OH227741   1.001   1.876   2.530 -0.3547  0.3144 -0.1292
 2109TIP3    H127742   1.048   1.882   2.613 -0.6363  1.3398 -0.0311
 2109TIP3    H227743   0.911   1.853   2.554 -1.0120  2.8532  0.0688
 2110TIP3   OH227744   0.662   0.338  10.578 -0.2994 -0.1815 -0.7869
 2110TIP3    H127745   0.632   0.270  10.518 -2.3135  0.7468 -0.9178
 2110TIP3    H227746   0.667   0.295  10.663 -1.4966 -0.5367 -0.8796
 2111TIP3   OH227747   3.598   1.095  11.089  0.1608 -0.2136  0.1574
 2111TIP3    H127748   3.666   1.142  11.138  0.2349 -0.8711  0.6913
 2111TIP3    H227749   3.525   1.088  11.149  0.1301 -0.7348  0.0627
 2112TIP3   OH227750   4.864   0.870   5.730 -0.0275 -0.2543  0.1957
 2112TIP3    H127751   4.857   0.964   5.713 -1.8509 -0.3732  0.0367
 2112TIP3    H227752   4.952   0.858   5.765 -0.4763  1.8792  2.3186
 2113TIP3   OH227753   3.887   1.475   2.160 -0.2481 -0.0483  0.5368
 2113TIP3    H127754   3.811   1.463   2.217 -2.2890  2.3561 -1.4366
 2113TIP3    H227755   3.870   1.420   2.084  0.4423 -0.1495  0.4465
 2114TIP3   OH227756   4.475   1.587  14.936  0.9142 -0.2001  0.1506
 2114TIP3    H127757   4.386   1.622  14.945  0.7002 -0.8280  0.5294
 2114TIP3    H227758   4.524   1.657  14.893 -0.3579 -0.7429 -2.3706
 2115TIP3   OH227759   0.634   2.467   2.122  0.1201 -0.2385  0.1398
 2115TIP3    H127760   0.568   2.529   2.091 -0.9626 -0.6698  1.4554
 2115TIP3    H227761   0.600   2.381   2.095  0.2994 -0.4415  0.5572
 2116TIP3   OH227762   6.334   2.699   0.630 -0.2288 -0.5497 -0.1969
 2116TIP3    H127763   6.414   2.700   0.578  0.9346 -0.2252  1.4963
 2116TIP3    H227764   6.279   2.767   0.592  1.3878  1.0211  0.1665
 2117TIP3   OH227765   0.279   6.119   3.404  0.4603  0.1507  0.2554
 2117TIP3    H127766   0.218   6.128   3.476  0.7431  0.7769  0.4222
 2117TIP3    H227767   0.224   6.101   3.328  0.0348  1.0770  0.3362
 2118TIP3   OH227768   4.713   6.190  15.366 -0.3429 -1.0060  0.4159
 2118TIP3    H127769   4.647   6.245  15.410 -0.7864 -1.3773  0.2284
 2118TIP3    H227770   4.759   6.251  15.309 -0.6239 -0.7633  0.4392
 2119TIP3   OH227771   0.181   0.690  16.606  0.3801  0.6888 -0.6124
 2119TIP3    H127772   0.254   0.740  16.644  0.0711  0.5897  0.1172
 2119TIP3    H227773   0.193   0.601  16.640  1.4816 -0.0181 -2.6473
 2120TIP3   OH227774   4.920   1.275   5.214 -0.3469  0.4498 -0.3816
 2120TIP3    H127775   4.961   1.331   5.148 -1.0049  0.1119 -1.0946
 2120TIP3    H227776   4.981   1.277   5.289  0.8078  0.2014 -1.2859
 2121TIP3   OH227777   2.146   6.708   4.439 -0.1260  0.3553 -0.3490
 2121TIP3    H127778   2.058   6.703   4.401  0.2272 -0.1904 -1.1138
 2121TIP3    H227779   2.178   6.794   4.412 -1.2262  1.5143  1.7733
 2122TIP3   OH227780   3.705   1.322  13.773 -0.4097 -0.3875  0.5293
 2122TIP3    H127781   3.768   1.393  13.758 -0.0562 -0.5564  1.1811
 2122TIP3    H227782   3.732   1.253  13.712 -1.2408  0.3246 -0.6806
 2123TIP3   OH227783   4.755   5.328   5.049 -0.6487  0.1590 -0.0985
 2123TIP3    H127784   4.690   5.285   5.106 -0.6486  1.5708  1.0220
 2123TIP3    H227785   4.705   5.392   5.000 -0.3395  0.1964 -0.3638
 2124TIP3   OH227786   5.499   0.054   5.258 -0.5226  0.1551  0.1092
 2124TIP3    H127787   5.441   0.110   5.206  0.5675  1.2585  0.0344
 2124TIP3    H227788   5.525  -0.016   5.198 -2.4893 -0.9149  0.4216
 2125TIP3   OH227789   5.888   0.843  11.646  0.3843 -0.3359 -0.2267
 2125TIP3    H127790   5.920   0.858  11.735 -0.1117 -0.1382 -0.0800
 2125TIP3    H227791   5.795   0.822  11.657  1.0569 -4.1730 -0.3131
 2126TIP3   OH227792   1.558   0.389   2.686 -0.0610 -0.6184 -0.0990
 2126TIP3    H127793   1.482   0.331   2.678 -0.3570 -0.3108  0.3475
 2126TIP3    H227794   1.612   0.348   2.753  0.8147 -1.5090 -1.3184
 2127TIP3   OH227795   5.098   4.133   6.194 -0.0451 -0.3805  0.4344
 2127TIP3    H127796   5.008   4.105   6.175 -0.0841  0.3381 -0.4992
 2127TIP3    H227797   5.089   4.223   6.227  0.2170 -0.8363  1.8159
 2128TIP3   OH227798   3.851   4.860  13.179 -0.2899 -0.4230  0.0217
 2128TIP3    H127799   3.876   4.784  13.231 -0.5594  0.3558  1.3380
 2128TIP3    H227800   3.791   4.826  13.113 -0.9162 -1.2578  0.9949
 2129TIP3   OH227801   1.471   2.863   0.971  0.2067 -0.1927  0.0960
 2129TIP3    H127802   1.380   2.881   0.948 -0.1634 -0.1985  1.4602
 2129TIP3    H227803   1.505   2.947   1.001 -0.4432 -0.8272  2.9609
 2130TIP3   OH227804   5.783   6.761  14.929  0.4753 -0.0627 -0.1558
 2130TIP3    H127805   5.846   6.813  14.978 -0.2400  0.0293  0.6819
 2130TIP3    H227806   5.781   6.676  14.973 -2.3938  0.9630  1.9548
 2131TIP3   OH227807   4.330   3.304  11.935 -0.1669 -0.4024  0.8013
 2131TIP3    H127808   4.240   3.269  11.935  0.3150 -1.7061  0.2277
 2131TIP3    H227809   4.373   3.258  12.007  0.5480 -1.2279 -0.1212
 2132TIP3   OH227810   3.230   6.401  15.537 -0.2145 -0.1268 -0.1932
 2132TIP3    H127811   3.194   6.319  15.571  0.2205 -0.4118 -0.4120
 2132TIP3    H227812   3.273   6.442  15.612  0.7015 -0.7302 -0.3731
 2133TIP3   OH227813   0.467   0.196   3.976  0.5553 -0.3292 -0.0694
 2133TIP3    H127814   0.546   0.235   3.938 -0.1958  1.1571 -0.1422
 2133TIP3    H227815   0.422   0.156   3.901  0.2568  0.5373 -0.3569
 2134TIP3   OH227816   0.842   0.885   0.273  0.8112  0.4359  0.5879
 2134TIP3    H127817   0.828   0.924   0.187  1.9057 -0.0264  0.1951
 2134TIP3    H227818   0.936   0.875   0.281  0.8927  1.9985  2.5314
 2135TIP3   OH227819   2.866   0.002   5.799  0.7287  0.6741  0.0575
 2135TIP3    H127820   2.906  -0.084   5.784 -1.2530 -0.4626  0.9244
 2135TIP3    H227821   2.907   0.034   5.880 -1.0107 -1.1525  1.7845
 2136TIP3   OH227822   2.129   6.602   0.912 -0.8632  0.2670  0.4248
 2136TIP3    H127823   2.125   6.510   0.937  0.3736  0.3073  0.8482
 2136TIP3    H227824   2.218   6.629   0.935 -1.0413  1.4277 -0.1833
 2137TIP3   OH227825   3.235   0.273   0.462  0.0628 -0.0877 -0.1684
 2137TIP3    H127826   3.268   0.237   0.545 -2.9505 -1.0437  0.7316
 2137TIP3    H227827   3.140   0.275   0.473 -0.3420  1.1725 -3.0845
 2138TIP3   OH227828   0.134   5.580   1.388  0.0782 -0.1661 -0.0743
 2138TIP3    H127829   0.133   5.562   1.294  2.2119 -0.1830 -0.1427
 2138TIP3    H227830   0.214   5.631   1.401  0.6367 -1.4460  1.9375
 2139TIP3   OH227831   1.550   3.124   2.481  0.1645 -0.4329  0.1599
 2139TIP3    H127832   1.506   3.189   2.536  1.4917  0.7936 -0.1922
 2139TIP3    H227833   1.580   3.057   2.544 -1.4558 -0.8951  0.4878
 2140TIP3   OH227834   5.773   3.753  13.751  0.2225  0.4970 -0.0071
 2140TIP3    H127835   5.717   3.754  13.829  0.2104 -2.1506  0.1328
 2140TIP3    H227836   5.726   3.696  13.689  2.3390 -1.2315 -0.1524
 2141TIP3   OH227837   0.744   2.540   2.664  0.1792 -0.9718  0.1681
 2141TIP3    H127838   0.770   2.579   2.748 -0.1396 -1.2635  0.4029
 2141TIP3    H227839   0.747   2.614   2.602  3.3814 -1.3287 -0.2456
 2142TIP3   OH227840   3.166   2.741   1.823 -0.3813  0.1657  0.2014
 2142TIP3    H127841   3.209   2.807   1.878 -0.3378 -1.0657  1.6889
 2142TIP3    H227842   3.114   2.689   1.883 -1.2678 -0.5118 -1.1046
 2143TIP3   OH227843   1.839   0.052  16.677 -0.3994  0.7002  0.1517
 2143TIP3    H127844   1.764   0.069  16.735 -0.0242  0.3451  0.7542
 2143TIP3    H227845   1.911   0.032  16.737  0.5369  2.3497 -0.3706
 2144TIP3   OH227846   0.828   5.429   0.683 -0.1609  0.2585  0.1171
 2144TIP3    H127847   0.805   5.365   0.751 -1.6610 -1.1868 -1.6513
 2144TIP3    H227848   0.852   5.376   0.607  0.5215  1.8251 -0.8090
 2145TIP3   OH227849   1.520   2.772   5.793 -0.0818  0.4661 -0.1643
 2145TIP3    H127850   1.597   2.794   5.740 -0.5023  1.0774 -0.5423
 2145TIP3    H227851   1.474   2.855   5.803 -0.8802  0.0401 -0.2459
 2146TIP3   OH227852   5.534   5.809   4.780 -0.0120 -0.3101  0.5474
 2146TIP3    H127853   5.463   5.868   4.804  0.9705  0.3646  1.9280
 2146TIP3    H227854   5.490   5.735   4.738 -1.3808  0.7691 -0.0111
 2147TIP3   OH227855   6.360   0.493   2.195 -0.7699  0.6177  0.3451
 2147TIP3    H127856   6.396   0.550   2.263  0.7527 -1.1973  1.1703
 2147TIP3    H227857   6.268   0.482   2.218 -1.1054  2.6913  0.1446
 2148TIP3   OH227858   4.636   1.418  15.125  0.2319  0.0139  0.6161
 2148TIP3    H127859   4.730   1.406  15.128  0.3999  1.2828  1.5705
 2148TIP3    H227860   4.622   1.477  15.051 -0.2354 -2.9465 -1.8403
 2149TIP3   OH227861   6.565   3.885  14.512  0.4803  0.3792 -0.6515
 2149TIP3    H127862   6.530   3.804  14.548 -0.7806  0.9975 -0.4221
 2149TIP3    H227863   6.659   3.870  14.504  0.6164 -0.2654  1.6247
 2150TIP3   OH227864   6.761   4.817   2.896  0.2807  0.5357  0.2572
 2150TIP3    H127865   6.669   4.802   2.919 -0.0000  0.8229 -0.6517
 2150TIP3    H227866   6.774   4.768   2.815  1.1842 -0.2218  0.8378
 2151TIP3   OH227867   4.395   4.055  11.100  0.1897  0.5540 -0.1198
 2151TIP3    H127868   4.341   4.126  11.133  0.3009  0.3752  0.4517
 2151TIP3    H227869   4.440   4.092  11.024  0.8274  1.3268  0.6163
 2152TIP3   OH227870   2.502   5.172  15.239 -0.0592  0.2525 -0.0633
 2152TIP3    H127871   2.499   5.227  15.160 -0.5683  0.5124  0.1332
 2152TIP3    H227872   2.464   5.227  15.307  2.2548  0.8145  0.8437
 2153TIP3   OH227873   0.523   2.955   6.317  0.2946 -0.1084 -0.3985
 2153TIP3    H127874   0.600   2.925   6.365 -0.5557  0.1934  1.2549
 2153TIP3    H227875   0.541   2.934   6.226  1.6088 -1.5825  0.1542
 2154TIP3   OH227876   4.264   2.013  11.637  0.0932 -0.4785 -0.2179
 2154TIP3    H127877   4.195   2.078  11.623 -0.4714 -1.3978 -2.0128
 2154TIP3    H227878   4.277   1.973  11.551 -0.0087 -3.1784  0.9156
 2155TIP3   OH227879   1.077   6.020   1.170 -0.2486  0.7286  0.4132
 2155TIP3    H127880   1.011   5.963   1.209 -1.3059  0.3077 -1.8625
 2155TIP3    H227881   1.085   6.093   1.232  0.3249 -1.2388  2.8310
 2156TIP3   OH227882   6.079   0.514  14.200 -0.1618 -0.1135 -0.4080
 2156TIP3    H127883   6.078   0.555  14.287 -1.2634 -0.4751 -0.2295
 2156TIP3    H227884   6.042   0.580  14.142  0.6172  0.1444 -0.6129
 2157TIP3   OH227885   3.375   2.328  15.784 -0.0489 -0.2603 -0.1127
 2157TIP3    H127886   3.322   2.252  15.760 -0.4687 -0.1480  0.4292
 2157TIP3    H227887   3.378   2.326  15.880  0.5614 -0.0128 -0.1201
 2158TIP3   OH227888   2.511   4.225   2.905 -0.3847 -0.6391 -0.4172
 2158TIP3    H127889   2.548   4.234   2.817 -2.0195  0.0819 -1.0674
 2158TIP3    H227890   2.519   4.312   2.944 -0.8262 -0.6229 -0.3522
 2159TIP3   OH227891   0.487   3.610   4.506  0.0156 -0.2442 -0.1129
 2159TIP3    H127892   0.405   3.564   4.488 -0.6166  1.2207 -1.1693
 2159TIP3    H227893   0.489   3.618   4.602 -1.0902 -0.2770 -0.0727
 2160TIP3   OH227894   0.272   3.712  14.273 -0.0173  0.0967 -1.0445
 2160TIP3    H127895   0.357   3.712  14.317  0.0795  0.7933 -1.2131
 2160TIP3    H227896   0.281   3.777  14.203 -0.7284  0.2888 -0.9709
 2161TIP3   OH227897   5.582   1.400  14.834 -0.0032 -0.2241 -0.0367
 2161TIP3    H127898   5.550   1.360  14.915  0.3176 -1.0922 -0.3339
 2161TIP3    H227899   5.555   1.341  14.764 -1.2039  1.0520 -0.7029
 2162TIP3   OH227900   0.105   1.558   0.249  0.6323  0.6121 -0.4392
 2162TIP3    H127901   0.088   1.478   0.298 -3.4109  0.1644 -2.1829
 2162TIP3    H227902   0.085   1.629   0.311 -0.0361  0.1416 -0.1061
 2163TIP3   OH227903   0.942   3.844   5.096  0.4703  0.8390 -0.2043
 2163TIP3    H127904   1.011   3.898   5.058  1.2979  0.8086  1.1769
 2163TIP3    H227905   0.910   3.896   5.170  0.9131 -0.3126  0.8225
 2164TIP3   OH227906   6.269   5.781  12.577 -0.6351  0.2870  0.1210
 2164TIP3    H127907   6.229   5.867  12.568 -0.1591  0.3733 -1.7153
 2164TIP3    H227908   6.241   5.733  12.499  0.9484 -0.4247 -0.0621
 2165TIP3   OH227909   0.900   1.181  15.939 -0.3373 -0.3492  0.2618
 2165TIP3    H127910   0.820   1.183  15.886 -0.7234  0.4090  0.8646
 2165TIP3    H227911   0.930   1.271  15.940  0.4468 -0.6068  0.1779
 2166TIP3   OH227912   1.142   4.701   2.463 -0.3950 -0.0182 -0.2814
 2166TIP3    H127913   1.133   4.613   2.499  0.0972 -0.6587 -1.6526
 2166TIP3    H227914   1.234   4.709   2.440 -0.6061  0.5166 -0.9910
 2167TIP3   OH227915   3.606   0.901   2.188 -0.6079 -0.1329 -0.1900
 2167TIP3    H127916   3.639   0.989   2.168 -0.6977 -0.1807 -0.5506
 2167TIP3    H227917   3.637   0.884   2.277  1.1459 -0.5330 -0.8280
 2168TIP3   OH227918   4.390   4.321   5.739 -0.5826 -0.4212 -0.2305
 2168TIP3    H127919   4.431   4.287   5.659 -0.6173 -0.6981 -0.1311
 2168TIP3    H227920   4.449   4.296   5.809 -1.9066 -2.6435  0.1704
 2169TIP3   OH227921   3.156   4.358   0.173  0.2476  0.0133 -0.4152
 2169TIP3    H127922   3.135   4.444   0.210 -1.1837 -0.5908  0.2802
 2169TIP3    H227923   3.163   4.374   0.079  0.2824  0.9379 -0.2655
 2170TIP3   OH227924   5.352   4.346  15.185  0.2728 -0.0631  0.2409
 2170TIP3    H127925   5.392   4.314  15.105 -1.2102  1.5177 -1.2275
 2170TIP3    H227926   5.313   4.269  15.226 -2.9718 -0.3869 -3.0064
 2171TIP3   OH227927   3.525   5.131  13.044  0.6362 -0.1116 -0.1714
 2171TIP3    H127928   3.519   5.064  13.111 -0.6462  0.0932 -0.0530
 2171TIP3    H227929   3.492   5.211  13.086 -1.5576 -0.2780 -1.3912
 2172TIP3   OH227930   2.920   2.922   5.050  0.2211 -0.4465  0.3723
 2172TIP3    H127931   2.905   3.017   5.049  0.8479 -0.3407 -0.1287
 2172TIP3    H227932   2.920   2.897   4.958 -1.6541 -1.2396  0.5567
 2173TIP3   OH227933   2.113   3.125   3.335 -0.3178  0.4362 -0.2286
 2173TIP3    H127934   2.062   3.062   3.385 -1.5926 -0.3387 -2.3606
 2173TIP3    H227935   2.132   3.196   3.397 -0.8389 -0.9543  1.5891
 2174TIP3   OH227936   5.142   5.267  16.561 -0.0044  0.5439  0.1503
 2174TIP3    H127937   5.207   5.287  16.494 -0.2224 -0.0824 -0.2524
 2174TIP3    H227938   5.058   5.279  16.518 -0.1877  1.7599  0.7862
 2175TIP3   OH227939   3.779   0.878   3.930  0.0594 -0.4363 -0.1305
 2175TIP3    H127940   3.760   0.972   3.933 -0.7856 -0.4497 -2.5847
 2175TIP3    H227941   3.874   0.872   3.941 -0.0041  0.5734  1.2056
 2176TIP3   OH227942   4.132   1.564  12.033 -0.8402  0.2281 -0.1977
 2176TIP3    H127943   4.045   1.561  11.995 -0.3625 -1.6528 -1.2586
 2176TIP3    H227944   4.173   1.481  12.008  1.5245  1.3522 -0.4016
 2177TIP3   OH227945   3.853   2.182  10.689 -0.0120  0.1390  0.6446
 2177TIP3    H127946   3.825   2.101  10.730  0.2110  0.4952  1.5350
 2177TIP3    H227947   3.774   2.217  10.647  0.1055 -0.9896 -0.5635
 2178TIP3   OH227948   6.095   5.954  15.361 -0.0185 -0.1363  0.3495
 2178TIP3    H127949   6.085   6.031  15.305  0.0859  1.2770  2.1729
 2178TIP3    H227950   6.026   5.895  15.333  0.5862  0.1073 -1.8449
 2179TIP3   OH227951   2.631   1.089   1.503 -0.3587  0.1908  0.9081
 2179TIP3    H127952   2.573   1.028   1.549  0.0788  0.0420  1.2651
 2179TIP3    H227953   2.583   1.113   1.424 -0.4081 -0.8589  0.6067
 2180TIP3   OH227954   3.596   3.744   5.884 -0.2713  0.7946 -0.8876
 2180TIP3    H127955   3.523   3.682   5.886  0.7623 -0.4742 -0.9233
 2180TIP3    H227956   3.561   3.824   5.923 -0.7269 -0.8392  2.4095
 2181TIP3   OH227957   3.571   0.185  12.586 -0.9376 -0.6131  0.2739
 2181TIP3    H127958   3.598   0.093  12.580 -4.2534 -1.6469 -1.1562
 2181TIP3    H227959   3.551   0.210  12.496  0.7706  1.9251  0.4955
 2182TIP3   OH227960   2.590   0.861  14.589  0.4123 -0.1018 -0.1238
 2182TIP3    H127961   2.511   0.833  14.635 -0.4161  0.2603 -1.2787
 2182TIP3    H227962   2.596   0.955  14.607  2.6742 -0.6813  2.9820
 2183TIP3   OH227963   3.798   4.094   1.553 -0.4422 -0.3974  0.7381
 2183TIP3    H127964   3.847   4.026   1.599 -0.0013  0.1939  1.1555
 2183TIP3    H227965   3.720   4.049   1.520 -1.0668 -0.7243  2.5580
 2184TIP3   OH227966   5.098   2.473   0.706 -0.0725 -0.3291  0.0836
 2184TIP3    H127967   5.179   2.436   0.672  1.4013  0.3422  2.6090
 2184TIP3    H227968   5.069   2.411   0.772  0.1533  0.9247  1.4091
 2185TIP3   OH227969   4.511   1.218   1.859 -0.2905  0.1830  0.2878
 2185TIP3    H127970   4.598   1.178   1.854  0.9612  2.7556 -0.1169
 2185TIP3    H227971   4.472   1.183   1.939  0.5129 -2.0856 -0.2496
 2186TIP3   OH227972   4.505   3.853  15.592  0.0939 -0.0563  0.2378
 2186TIP3    H127973   4.588   3.806  15.602 -0.5330 -0.7525  2.6906
 2186TIP3    H227974   4.524   3.942  15.623  0.0571 -0.0509  0.2447
 2187TIP3   OH227975   6.565   4.659   4.038 -0.2726 -0.2007 -0.8066
 2187TIP3    H127976   6.573   4.745   4.079 -0.5271 -0.4802 -0.1545
 2187TIP3    H227977   6.602   4.598   4.102  1.4427 -0.4152 -1.9630
 2188TIP3   OH227978   4.787   2.565  12.466 -0.2956  0.3596 -0.1387
 2188TIP3    H127979   4.872   2.605  12.482 -0.9855  1.9751 -0.3368
 2188TIP3    H227980   4.759   2.534  12.552 -0.2830  1.4442  0.2723
 2189TIP3   OH227981   4.364   1.528   4.349 -0.2031  0.4015  0.2493
 2189TIP3    H127982   4.302   1.585   4.304 -1.5940 -1.2662 -0.0393
 2189TIP3    H227983   4.445   1.579   4.354 -1.4131  2.4228  0.1212
 2190TIP3   OH227984   4.818   4.976  16.351 -0.9321  0.0085 -0.2406
 2190TIP3    H127985   4.761   5.045  16.386 -0.4797  0.3412 -0.1516
 2190TIP3    H227986   4.835   5.002  16.261 -0.8349 -0.0329 -0.2352
 2191TIP3   OH227987   1.337   0.366  16.297  0.2029  0.3246 -0.2014
 2191TIP3    H127988   1.382   0.392  16.377  0.9658 -0.1167 -0.4698
 2191TIP3    H227989   1.310   0.276  16.313  2.0238 -0.4489 -1.0838
 2192TIP3   OH227990   0.673   0.633   4.481 -0.2515  0.1347  0.6619
 2192TIP3    H127991   0.590   0.661   4.443  0.0287  0.2288  0.0991
 2192TIP3    H227992   0.709   0.571   4.418  0.0967  0.0869  0.9037
 2193TIP3   OH227993   1.285   1.718  11.973  0.2084  0.1777 -0.5169
 2193TIP3    H127994   1.311   1.755  11.889  1.6035  2.2498  0.7184
 2193TIP3    H227995   1.276   1.624  11.956  0.1954  0.5564 -3.0032
 2194TIP3   OH227996   0.565   1.815   5.346 -0.9591  0.0435 -0.2243
 2194TIP3    H127997   0.475   1.798   5.375 -1.3929  1.4965 -0.6179
 2194TIP3    H227998   0.610   1.846   5.424 -1.2207  0.7689 -0.3566
 2195TIP3   OH227999   1.438   2.570  12.561  0.2245 -0.2173 -0.0241
 2195TIP3    H128000   1.369   2.520  12.603  1.2302 -1.6890 -0.0580
 2195TIP3    H228001   1.512   2.566  12.622  0.5585  0.6610 -0.3434
 2196TIP3   OH228002   4.318   4.209  14.501 -0.2162 -0.0075 -0.1083
 2196TIP3    H128003   4.370   4.237  14.577 -0.9298 -1.2604  0.8771
 2196TIP3    H228004   4.268   4.287  14.477 -0.8131  0.1077  1.4231
 2197TIP3   OH228005   4.760   6.039   5.035 -0.6231  0.0121  0.4802
 2197TIP3    H128006   4.668   6.062   5.039 -0.9283 -1.2218  1.0040
 2197TIP3    H228007   4.777   5.993   5.118 -0.0655 -1.6048 -0.4924
 2198TIP3   OH228008   5.770   6.587   4.814  0.3505  0.0519 -1.1905
 2198TIP3    H128009   5.761   6.677   4.781  1.4326  0.3135 -0.8142
 2198TIP3    H228010   5.749   6.594   4.907  0.3466 -0.0979 -1.1803
 2199TIP3   OH228011   3.211   4.672   5.417  0.6052  0.1363 -0.0374
 2199TIP3    H128012   3.205   4.674   5.322  0.2759  0.0590 -0.0198
 2199TIP3    H228013   3.121   4.658   5.447  0.7553 -0.2091  0.2728
 2200TIP3   OH228014   0.651   6.136  14.368  0.1477  0.3266  0.6072
 2200TIP3    H128015   0.557   6.138  14.348  0.4484 -0.2865 -1.0468
 2200TIP3    H228016   0.655   6.103  14.458 -1.2444  1.3363  1.0785
 2201TIP3   OH228017   1.040   3.837   5.488 -0.6948  0.5521  0.4021
 2201TIP3    H128018   1.101   3.764   5.479 -0.0970  1.1879 -1.3093
 2201TIP3    H228019   0.974   3.807   5.550  0.1559 -0.9944  0.6070
 2202TIP3   OH228020   4.672   2.169   4.729 -0.1921 -0.5943 -0.0123
 2202TIP3    H128021   4.638   2.227   4.797 -1.3634 -0.3660 -0.7583
 2202TIP3    H228022   4.759   2.203   4.710 -0.5312  0.4025  0.1694
 2203TIP3   OH228023   6.457   2.127  15.585  0.2350  0.4883  0.4604
 2203TIP3    H128024   6.494   2.086  15.506 -0.2202 -0.8923  0.9367
 2203TIP3    H228025   6.466   2.221  15.569 -2.9126  0.4797 -2.8236
 2204TIP3   OH228026   5.008   1.901   2.978  0.0418 -0.2506  0.2972
 2204TIP3    H128027   4.948   1.891   3.052  0.6335  0.4256  0.8740
 2204TIP3    H228028   5.046   1.988   2.989  0.6819 -0.4314 -0.4086
 2205TIP3   OH228029   0.337   2.146   1.431  0.1989  0.1509 -0.0951
 2205TIP3    H128030   0.417   2.134   1.379  0.7702 -0.3615  0.8859
 2205TIP3    H228031   0.266   2.128   1.369  0.8462  0.0193 -0.8205
 2206TIP3   OH228032   2.798   3.488   2.604 -0.3638  0.1698 -0.4084
 2206TIP3    H128033   2.835   3.446   2.682 -1.3740 -0.9288 -0.5024
 2206TIP3    H228034   2.764   3.416   2.552 -2.6856  1.1204 -0.3072
 2207TIP3   OH228035   2.953   4.157  15.949 -0.0388  0.6134  0.4598
 2207TIP3    H128036   3.037   4.120  15.921 -0.5087 -0.1310 -0.0026
 2207TIP3    H228037   2.976   4.221  16.016  0.9495  0.8681 -0.0997
 2208TIP3   OH228038   6.754   1.022  15.211  0.1466 -0.2836 -0.1039
 2208TIP3    H128039   6.732   0.963  15.283  2.3991  0.0976  0.9742
 2208TIP3    H228040   6.805   0.968  15.151 -0.8349 -0.3295 -0.9116
 2209TIP3   OH228041   4.834   0.827  14.236 -0.5792 -0.8900 -0.2618
 2209TIP3    H128042   4.879   0.826  14.320  0.1130  0.7931 -0.5737
 2209TIP3    H228043   4.742   0.841  14.258 -0.1783  1.3855  0.2053
 2210TIP3   OH228044   5.817   4.931   3.749 -0.1095 -0.2407  0.1369
 2210TIP3    H128045   5.743   4.991   3.765  0.8477  0.5411  2.0064
 2210TIP3    H228046   5.858   4.921   3.835  1.9123 -0.7181 -0.8228
 2211TIP3   OH228047   5.314   3.443  14.624  0.3309 -0.0151 -0.0641
 2211TIP3    H128048   5.360   3.418  14.704 -0.5949  1.6268  1.0609
 2211TIP3    H228049   5.255   3.370  14.606  1.8540 -1.2146 -0.3418
 2212TIP3   OH228050   5.452   0.787   1.771 -0.1853 -0.4585 -0.2300
 2212TIP3    H128051   5.539   0.749   1.785 -0.2853  0.3350  3.2509
 2212TIP3    H228052   5.393   0.711   1.765  0.3987 -0.9431  0.1479
 2213TIP3   OH228053   5.492   0.648   4.192  0.3182 -0.5424  0.0462
 2213TIP3    H128054   5.460   0.736   4.172  0.4535 -0.3086  0.8327
 2213TIP3    H228055   5.505   0.607   4.106 -0.4678 -0.0607 -0.3101
 2214TIP3   OH228056   3.793   4.224   3.125 -0.1021  0.1931  0.2556
 2214TIP3    H128057   3.772   4.288   3.193 -2.2995 -1.1749  0.9722
 2214TIP3    H228058   3.830   4.150   3.174  0.3312  0.0280 -0.3125
 2215TIP3   OH228059   6.384   4.425  15.506  0.0079 -0.3499  0.4805
 2215TIP3    H128060   6.422   4.505  15.541  0.9690 -0.1408 -0.9381
 2215TIP3    H228061   6.442   4.355  15.537  0.3031 -0.2734  0.1038
 2216TIP3   OH228062   2.699   1.547   2.143 -0.4014 -0.2431  0.3187
 2216TIP3    H128063   2.624   1.512   2.095 -0.3805  0.8366 -0.5314
 2216TIP3    H228064   2.747   1.599   2.079  2.0146 -2.1568  0.4033
 2217TIP3   OH228065   5.273   1.753   1.964 -0.4224  0.1314 -0.4598
 2217TIP3    H128066   5.273   1.802   2.046 -0.6263  1.0396 -0.9810
 2217TIP3    H228067   5.340   1.686   1.976 -1.3110 -0.5494  0.9001
 2218TIP3   OH228068   2.266   5.648   0.942  0.5779  0.3405 -0.7904
 2218TIP3    H128069   2.355   5.657   0.976  1.6165 -2.1342 -2.5795
 2218TIP3    H228070   2.277   5.613   0.854 -2.1712  0.3185 -1.2171
 2219TIP3   OH228071   3.414   5.245   4.072  0.1183 -0.2233  0.8172
 2219TIP3    H128072   3.473   5.206   4.008 -1.4463 -0.4133 -0.5767
 2219TIP3    H228073   3.461   5.323   4.102  0.1222  1.0665 -2.1302
 2220TIP3   OH228074   1.937   2.149  14.408 -0.0684  0.5191  0.3241
 2220TIP3    H128075   1.946   2.216  14.340  0.8635 -0.0632 -0.1465
 2220TIP3    H228076   2.024   2.142  14.446 -0.3564  0.1420  0.9225
 2221TIP3   OH228077   1.501   1.614  12.705  0.0899  0.2047 -0.0731
 2221TIP3    H128078   1.452   1.613  12.787  0.8396  1.6647  0.4518
 2221TIP3    H228079   1.560   1.539  12.711 -0.0542  0.1397  0.6198
 2222TIP3   OH228080   0.691   0.334  11.655 -0.3386  0.3408 -0.2730
 2222TIP3    H128081   0.679   0.241  11.637 -0.1765  0.1438  0.6149
 2222TIP3    H228082   0.718   0.338  11.747  2.5258  1.0340 -1.0226
 2223TIP3   OH228083   4.040   6.299  13.972 -0.3098 -0.2690  0.4155
 2223TIP3    H128084   4.009   6.208  13.975  1.3444 -0.9043 -0.4361
 2223TIP3    H228085   4.127   6.293  13.934  1.2246  1.3217  3.3120
 2224TIP3   OH228086   0.494   2.542  15.600  0.3580 -0.1674  0.3855
 2224TIP3    H128087   0.527   2.478  15.664  1.7098  1.8159  1.7947
 2224TIP3    H228088   0.476   2.620  15.652 -0.5022  0.8661 -1.3868
 2225TIP3   OH228089   5.334   5.259  12.600 -0.3863  0.5024 -0.4544
 2225TIP3    H128090   5.295   5.184  12.644 -0.4762  0.3887 -0.7259
 2225TIP3    H228091   5.409   5.282  12.654  0.1778 -0.3509 -0.8540
 2226TIP3   OH228092   0.834   4.908  10.601 -0.0623  0.1732 -0.1570
 2226TIP3    H128093   0.772   4.959  10.654  0.2679 -0.4438  0.8527
 2226TIP3    H228094   0.899   4.972  10.572  1.2332  0.1717  2.3832
 2227TIP3   OH228095   5.794   2.398  15.280 -0.4409 -0.6995  0.2003
 2227TIP3    H128096   5.774   2.315  15.238 -0.7600  0.1951 -1.5278
 2227TIP3    H228097   5.889   2.399  15.289 -0.3776 -0.9967 -0.3831
 2228TIP3   OH228098   1.124   4.604   1.818 -0.1697  0.2376 -0.7807
 2228TIP3    H128099   1.096   4.687   1.779  0.0135  1.3952  1.3593
 2228TIP3    H228100   1.220   4.611   1.821 -0.2165  0.6730  0.7555
 2229TIP3   OH228101   0.725   4.015  13.845  0.0589  0.1772 -0.5227
 2229TIP3    H128102   0.739   4.108  13.826 -1.2392  0.5739  0.3063
 2229TIP3    H228103   0.752   4.005  13.936  0.9418 -0.4521 -0.8430
 2230TIP3   OH228104   6.262   4.944   6.573  0.5981  0.4282  0.3488
 2230TIP3    H128105   6.180   4.984   6.601  0.7764  0.2773  1.1044
 2230TIP3    H228106   6.275   4.976   6.484  0.2868  1.3536  0.6260
 2231TIP3   OH228107   0.909   6.531   3.448  0.5019  0.2831  0.3064
 2231TIP3    H128108   0.820   6.542   3.413  0.5853  0.5528  0.1776
 2231TIP3    H228109   0.896   6.501   3.538  0.2574  1.6289  0.7456
 2232TIP3   OH228110   3.153   3.978  12.817 -0.1673  0.4670  0.0590
 2232TIP3    H128111   3.072   4.026  12.800 -0.9067 -0.7751 -0.0659
 2232TIP3    H228112   3.188   4.018  12.896 -0.8931  1.0338  0.1080
 2233TIP3   OH228113   2.319   6.752  12.727  0.1512 -0.0649 -0.4901
 2233TIP3    H128114   2.230   6.769  12.758  0.7590  1.0410  0.7317
 2233TIP3    H228115   2.368   6.832  12.748  1.7836 -1.1937  0.2039
 2234TIP3   OH228116   3.379   2.010  11.332 -0.1105 -0.4781 -0.5146
 2234TIP3    H128117   3.363   1.947  11.262 -1.4908 -1.0097  0.2311
 2234TIP3    H228118   3.448   1.969  11.385 -0.6793 -1.1807 -0.2910
 2235TIP3   OH228119   1.184   5.543  14.610 -0.1548  0.3232 -0.5301
 2235TIP3    H128120   1.227   5.612  14.559 -2.6488  2.3456 -0.1514
 2235TIP3    H228121   1.206   5.462  14.564  1.6369  1.5090 -1.9376
 2236TIP3   OH228122   5.136   0.530  14.922 -0.3855 -0.1870 -0.4930
 2236TIP3    H128123   5.154   0.624  14.920  2.7668 -0.7014 -2.0711
 2236TIP3    H228124   5.140   0.506  15.015 -0.6074  1.1134 -0.1314
 2237TIP3   OH228125   5.929   2.218   4.010  0.2679  0.1860  0.4022
 2237TIP3    H128126   5.976   2.135   4.002 -0.0059  0.1502 -0.9495
 2237TIP3    H228127   5.995   2.280   4.041  0.7310 -0.2903  0.3769
 2238TIP3   OH228128   3.172   0.246   3.461  0.1467  0.0037 -0.0858
 2238TIP3    H128129   3.193   0.332   3.425 -1.0545  1.1637  1.8383
 2238TIP3    H228130   3.191   0.252   3.554 -2.2019 -0.9879  0.5548
 2239TIP3   OH228131   6.256   3.785  17.004 -0.0057 -0.9168  0.8027
 2239TIP3    H128132   6.259   3.812  17.096 -3.3399 -0.3136  0.8491
 2239TIP3    H228133   6.235   3.692  17.008 -0.7444 -0.7580  0.6640
 2240TIP3   OH228134   2.217   1.012   6.653  0.2410  0.5680 -0.0435
 2240TIP3    H128135   2.215   0.972   6.740  2.5384  0.8311  0.2061
 2240TIP3    H228136   2.169   0.951   6.597 -0.7383  0.0852  1.2806
 2241TIP3   OH228137   2.757   2.642  14.359 -0.6222 -0.1516 -0.4844
 2241TIP3    H128138   2.697   2.620  14.288  1.6016  0.7091 -2.7561
 2241TIP3    H228139   2.752   2.737  14.367  0.4900 -0.0472 -0.8119
 2242TIP3   OH228140   6.550   0.711   5.419 -0.2013 -0.2272  0.2264
 2242TIP3    H128141   6.460   0.744   5.425 -0.2176 -0.2291  0.0177
 2242TIP3    H228142   6.545   0.642   5.353 -0.3610 -1.3255  1.3564
 2243TIP3   OH228143   3.001   5.141  15.215  0.2300  0.2061 -0.2876
 2243TIP3    H128144   3.050   5.062  15.190  0.7128 -0.6818  2.9425
 2243TIP3    H228145   2.922   5.139  15.161  0.1175 -2.6644 -0.1504
 2244TIP3   OH228146   2.166   0.803   1.978 -0.1790  0.2131  0.0646
 2244TIP3    H128147   2.125   0.877   2.024 -0.4646 -0.5317  1.0419
 2244TIP3    H228148   2.096   0.769   1.922 -0.4051 -0.0156  0.4760
 2245TIP3   OH228149   2.973   4.985   5.188  0.5116 -0.1698  0.6461
 2245TIP3    H128150   2.973   4.898   5.147  0.3419 -0.0742  0.4406
 2245TIP3    H228151   2.985   5.046   5.114  1.7870 -0.0730  0.9065
 2246TIP3   OH228152   6.530   0.946  14.699 -0.3552 -0.2172 -0.5583
 2246TIP3    H128153   6.566   0.955  14.787 -2.6687  0.3064  0.3897
 2246TIP3    H228154   6.437   0.968  14.708 -0.1535  2.7128 -3.6333
 2247TIP3   OH228155   0.522   3.337  16.259 -0.0455 -0.0067 -0.0897
 2247TIP3    H128156   0.481   3.303  16.339  2.1244  0.1113  1.1400
 2247TIP3    H228157   0.506   3.269  16.193 -0.4038 -0.8957  0.8916
 2248TIP3   OH228158   2.693   5.661  15.306  0.2604  0.1132 -0.2614
 2248TIP3    H128159   2.683   5.585  15.363 -0.5012  0.4686  0.0967
 2248TIP3    H228160   2.621   5.654  15.244 -0.0804  0.7599  0.0433
 2249TIP3   OH228161   2.853   0.207  17.216  0.2673  0.0652  0.0598
 2249TIP3    H128162   2.811   0.147  17.278 -1.2030 -0.3950 -1.3086
 2249TIP3    H228163   2.928   0.243  17.264 -0.1475 -1.1305  1.6878
 2250TIP3   OH228164   0.279   0.993  14.513  0.2206 -0.2935 -0.3695
 2250TIP3    H128165   0.225   1.061  14.552  1.0199 -0.1489  0.5314
 2250TIP3    H228166   0.226   0.913  14.519  0.6709 -0.4927  1.9859
 2251TIP3   OH228167   2.327   2.547   0.011  0.7808  0.4212 -0.5645
 2251TIP3    H128168   2.421   2.549   0.025  0.7142 -1.7094  0.5403
 2251TIP3    H228169   2.317   2.533  -0.083  1.5706  0.1784 -0.6162
 2252TIP3   OH228170   2.049   5.663  15.670  0.2464  0.0248  0.4087
 2252TIP3    H128171   2.060   5.585  15.615 -0.5872 -0.1628  0.5001
 2252TIP3    H228172   2.083   5.734  15.617  0.8709 -0.3732  0.2611
 2253TIP3   OH228173   1.903   5.258  12.064  0.3360  0.0992  0.2359
 2253TIP3    H128174   1.937   5.210  12.140 -0.8325 -0.7104  0.2880
 2253TIP3    H228175   1.820   5.214  12.045 -0.4480  1.6991 -0.1498
 2254TIP3   OH228176   0.932   2.896  13.833  0.1338  0.2204 -0.3382
 2254TIP3    H128177   0.904   2.957  13.901  0.0930 -0.1784 -0.0018
 2254TIP3    H228178   0.875   2.820  13.842  0.5676 -0.1175 -0.3801
 2255TIP3   OH228179   5.358   6.117  16.537  0.0511 -0.0724 -0.1320
 2255TIP3    H128180   5.381   6.028  16.564  0.8190  0.6206  1.6605
 2255TIP3    H228181   5.384   6.121  16.445  1.3250 -1.2913  0.1294
 2256TIP3   OH228182   6.262   2.657  13.565 -0.1139  0.1020  0.4044
 2256TIP3    H128183   6.212   2.590  13.612 -0.0920  1.5035  2.6021
 2256TIP3    H228184   6.353   2.632  13.578  0.0218  1.5550  3.1341
 2257TIP3   OH228185   1.112   0.411  12.746  0.1608  0.7119  0.4925
 2257TIP3    H128186   1.083   0.359  12.821  0.1455 -1.5039 -0.9369
 2257TIP3    H228187   1.035   0.459  12.718 -0.0102  1.0095  1.4463
 2258TIP3   OH228188   3.268   5.329  11.727  0.1474 -0.2483  0.3015
 2258TIP3    H128189   3.304   5.365  11.807  0.5127 -0.6060  0.2999
 2258TIP3    H228190   3.230   5.245  11.753  0.3992 -0.4349  0.0729
 2259TIP3   OH228191   3.548   3.091  12.556 -0.2316  0.4693 -0.3862
 2259TIP3    H128192   3.625   3.087  12.613  1.3040 -0.6372 -2.4035
 2259TIP3    H228193   3.506   3.174  12.578 -0.0173 -0.1266  2.6619
 2260TIP3   OH228194   1.395   0.485   0.313  0.4294 -0.3550 -0.3903
 2260TIP3    H128195   1.477   0.466   0.359  0.3990  0.7225  0.1516
 2260TIP3    H228196   1.420   0.493   0.221  0.8391 -0.5802 -0.3003
 2261TIP3   OH228197   5.147   6.045  14.794  0.4171 -1.1031  0.3312
 2261TIP3    H128198   5.078   6.101  14.759 -0.7755 -2.3495  0.5789
 2261TIP3    H228199   5.136   6.051  14.889  1.8577  0.1189  0.4408
 2262TIP3   OH228200   4.541   6.742  14.747 -0.1355 -0.2382 -0.5416
 2262TIP3    H128201   4.571   6.734  14.837 -0.8067  3.3986  0.1976
 2262TIP3    H228202   4.612   6.708  14.694  1.4207 -0.0536  1.3238
 2263TIP3   OH228203   3.758   4.389   4.350 -0.1372  0.1479 -0.4262
 2263TIP3    H128204   3.820   4.337   4.298 -0.2753 -0.9645  0.4721
 2263TIP3    H228205   3.687   4.409   4.289  0.0070 -0.5633 -0.8441
 2264TIP3   OH228206   0.483   6.006  16.099  0.4347  0.2876 -0.5302
 2264TIP3    H128207   0.408   5.950  16.083  0.8327 -0.2857 -0.4292
 2264TIP3    H228208   0.461   6.055  16.178 -0.0344  0.4889 -0.7839
 2265TIP3   OH228209   3.915   1.638   5.596 -0.4467  0.0467  0.1452
 2265TIP3    H128210   3.869   1.722   5.595  0.0246  0.3339  1.2788
 2265TIP3    H228211   3.998   1.656   5.551 -0.3041  0.2139  0.4750
 2266TIP3   OH228212   2.387   4.051  15.013  0.3609 -0.3623  0.0761
 2266TIP3    H128213   2.471   4.012  15.038 -0.0360 -2.5550 -1.7352
 2266TIP3    H228214   2.403   4.089  14.927 -0.1485  0.5426  0.3654
 2267TIP3   OH228215   4.322   3.573   1.457 -0.0768  0.1385 -0.9038
 2267TIP3    H128216   4.233   3.554   1.487  0.6932 -2.4490 -0.0459
 2267TIP3    H228217   4.378   3.514   1.507  2.2856  2.3653 -0.7003
 2268TIP3   OH228218   1.362   0.038   1.338  0.5154  0.3334 -0.1695
 2268TIP3    H128219   1.394   0.112   1.287  0.4381  0.4017 -0.1181
 2268TIP3    H228220   1.267   0.044   1.333  0.4863  0.8638  0.7359
 2269TIP3   OH228221   3.909   6.598  15.793  0.0516  0.1870 -0.2540
 2269TIP3    H128222   3.920   6.582  15.700 -1.2853  0.7192 -0.5373
 2269TIP3    H228223   3.854   6.526  15.824  0.8372 -0.2209  0.2246
 2270TIP3   OH228224   4.332   6.615   5.474 -0.3602 -0.0542 -0.3347
 2270TIP3    H128225   4.418   6.579   5.453 -0.3920 -0.8892  0.8881
 2270TIP3    H228226   4.345   6.710   5.471  0.0874 -0.1421 -2.1489
 2271TIP3   OH228227   5.990   2.955  10.377 -0.2913  0.2677  0.6873
 2271TIP3    H128228   6.073   2.944  10.423  0.4125  0.5506 -0.4824
 2271TIP3    H228229   5.972   2.870  10.339  0.5558  0.7268 -0.8121
 2272TIP3   OH228230   4.309   1.595  12.685 -0.0793 -0.4616  0.1478
 2272TIP3    H128231   4.226   1.550  12.704 -0.2591 -0.5499 -0.7964
 2272TIP3    H228232   4.340   1.625  12.770 -0.9779 -0.6155  0.5403
 2273TIP3   OH228233   0.373   2.468   1.332  0.4860 -0.5747  0.0902
 2273TIP3    H128234   0.337   2.468   1.421 -0.3402  1.5756 -0.1886
 2273TIP3    H228235   0.302   2.432   1.278 -0.7108  1.9509 -0.1962
 2274TIP3   OH228236   5.474   3.797   0.312 -0.2220  0.3648 -0.5982
 2274TIP3    H128237   5.535   3.723   0.305  0.6161  1.1205 -1.5655
 2274TIP3    H228238   5.495   3.853   0.237 -0.1833  2.0520  0.6016
 2275TIP3   OH228239   3.088   3.557  10.821 -0.0073  0.1012 -0.3533
 2275TIP3    H128240   3.180   3.544  10.800  0.4745  1.5788  0.6807
 2275TIP3    H228241   3.088   3.624  10.889 -1.9087  1.4571 -1.5745
 2276TIP3   OH228242   2.217   5.109   0.239  0.1913  0.1207  0.1138
 2276TIP3    H128243   2.253   5.187   0.282  0.8639 -0.1667  0.0839
 2276TIP3    H228244   2.294   5.063   0.205 -0.2633 -0.0662 -0.6998
 2277TIP3   OH228245   4.472   4.108  13.884  0.3391 -0.2231 -0.0555
 2277TIP3    H128246   4.450   4.085  13.794 -1.6663  1.0820  0.0503
 2277TIP3    H228247   4.469   4.204  13.886 -1.3851 -0.2678  1.7775
 2278TIP3   OH228248   6.669   1.404  13.817  0.1363  0.3909  0.0345
 2278TIP3    H128249   6.681   1.451  13.734 -2.4130  0.0383 -0.6098
 2278TIP3    H228250   6.668   1.473  13.884  1.7057  0.7209 -0.2296
 2279TIP3   OH228251   2.722   3.367   1.095 -0.4156 -0.3743 -0.0006
 2279TIP3    H128252   2.785   3.360   1.023  0.1587  0.0300  0.4497
 2279TIP3    H228253   2.775   3.354   1.174 -1.0593 -0.9504  0.3457
 2280TIP3   OH228254   5.064   4.359  11.642 -0.1615  0.4163  0.4268
 2280TIP3    H128255   5.068   4.402  11.728 -0.5981  3.2382 -0.8387
 2280TIP3    H228256   5.094   4.270  11.658  0.5463  1.0740  3.3479
 2281TIP3   OH228257   3.497   0.261  11.483  0.2940 -0.2641  0.1423
 2281TIP3    H128258   3.538   0.326  11.425  0.0743  0.9466  1.2845
 2281TIP3    H228259   3.569   0.207  11.514  0.7679  0.5811  0.5633
 2282TIP3   OH228260   5.077   6.022   3.324  0.2809  0.1471 -0.3615
 2282TIP3    H128261   5.145   5.955   3.317 -0.4221 -0.4660 -1.6712
 2282TIP3    H228262   5.072   6.059   3.235  0.5187  1.8175  0.2842
 2283TIP3   OH228263   4.986   6.702  14.947 -0.1611  0.5474 -0.0085
 2283TIP3    H128264   4.993   6.609  14.968  2.5339  0.7627  0.3071
 2283TIP3    H228265   4.941   6.704  14.863 -0.8924 -0.9622  0.2939
 2284TIP3   OH228266   4.560   2.661   2.148  0.1121 -0.4218  0.4206
 2284TIP3    H128267   4.466   2.674   2.136  0.3938  1.5138  0.0913
 2284TIP3    H228268   4.570   2.566   2.158 -1.6603 -0.8710 -1.4715
 2285TIP3   OH228269   0.928   2.024   2.862 -0.1464  0.1160 -0.3986
 2285TIP3    H128270   0.836   2.005   2.881 -0.0347 -1.2674 -1.0938
 2285TIP3    H228271   0.973   1.940   2.875  0.7452  0.3663 -1.6808
 2286TIP3   OH228272   0.831   3.126  15.787 -0.4597 -0.2963 -0.2091
 2286TIP3    H128273   0.855   3.116  15.879  1.1701  0.3438 -0.5414
 2286TIP3    H228274   0.751   3.074  15.778 -0.0018 -1.3379  1.3020
 2287TIP3   OH228275   3.848   1.244  10.527  0.0106 -0.0815  0.0162
 2287TIP3    H128276   3.755   1.258  10.505  0.0607  1.6301  0.7031
 2287TIP3    H228277   3.896   1.285  10.454  0.2290 -0.4847 -0.0678
 2288TIP3   OH228278   0.357   1.385   1.221 -0.4249  0.2042  0.6552
 2288TIP3    H128279   0.439   1.358   1.263  0.4580  1.1521 -0.3806
 2288TIP3    H228280   0.318   1.303   1.190  1.7358 -0.0958 -1.6189
 2289TIP3   OH228281   1.202   4.242   3.840 -0.1276  0.1225  0.4263
 2289TIP3    H128282   1.111   4.245   3.870  0.0204  1.8794  0.8208
 2289TIP3    H228283   1.223   4.333   3.820  0.4324 -0.6406 -3.1418
 2290TIP3   OH228284   6.358   5.479   0.283 -0.3607  0.0689 -0.8530
 2290TIP3    H128285   6.311   5.396   0.272 -0.2074 -0.1977  0.2896
 2290TIP3    H228286   6.322   5.537   0.217 -1.9097 -0.2974 -0.3655
 2291TIP3   OH228287   3.687   3.338   5.889 -0.2279  0.1166 -0.2809
 2291TIP3    H128288   3.594   3.324   5.907 -0.1834  0.6895  0.4820
 2291TIP3    H228289   3.732   3.276   5.946 -0.1245  0.7767  0.3805
 2292TIP3   OH228290   4.797   0.764   3.844 -0.1083 -0.3933 -0.0828
 2292TIP3    H128291   4.878   0.735   3.884 -0.0810 -0.7790 -0.4191
 2292TIP3    H228292   4.752   0.684   3.818  0.3049 -0.1357 -1.6832
 2293TIP3   OH228293   5.065   1.299   0.906  0.0778 -0.2259 -0.8585
 2293TIP3    H128294   5.088   1.321   0.997 -0.2756  2.3778 -1.3319
 2293TIP3    H228295   4.993   1.236   0.915 -0.4325  0.5196  0.6833
 2294TIP3   OH228296   0.602   2.584  12.419 -0.3869  0.8939  0.3383
 2294TIP3    H128297   0.585   2.670  12.458  1.0374  0.6690  1.5309
 2294TIP3    H228298   0.692   2.589  12.387 -0.2650 -0.1536  0.4711
 2295TIP3   OH228299   3.295   0.941   1.703  0.8519 -0.0009 -0.2747
 2295TIP3    H128300   3.313   0.929   1.796  0.2778  1.5670  0.0632
 2295TIP3    H228301   3.206   0.978   1.700 -0.0615 -2.0985 -1.5728
 2296TIP3   OH228302   5.599   1.589  15.551 -0.0543 -0.0762  0.6241
 2296TIP3    H128303   5.689   1.592  15.583  0.6034 -3.1140 -0.5241
 2296TIP3    H228304   5.551   1.539  15.617 -0.8006  1.1099  0.9980
 2297TIP3   OH228305   6.590   1.879   1.729  0.2193 -0.0993  0.1091
 2297TIP3    H128306   6.502   1.905   1.701 -0.6928 -2.8968  0.0662
 2297TIP3    H228307   6.641   1.879   1.648 -0.3036 -0.4528 -0.2310
 2298TIP3   OH228308   2.974   3.680  14.107  0.3698 -0.1919  0.0984
 2298TIP3    H128309   2.921   3.619  14.158 -0.5959  0.9890  0.5637
 2298TIP3    H228310   2.922   3.700  14.030 -0.5158  1.9436  1.1608
 2299TIP3   OH228311   4.538   6.428   3.602  0.6470  0.1646  0.1751
 2299TIP3    H128312   4.585   6.407   3.682  0.0353 -1.5547  0.1298
 2299TIP3    H228313   4.594   6.490   3.556  2.3632 -1.0314  0.5929
 2300TIP3   OH228314   2.656   4.790  15.122  0.3266 -0.0348 -0.4864
 2300TIP3    H128315   2.740   4.754  15.092 -0.4420 -1.9107 -0.5448
 2300TIP3    H228316   2.618   4.830  15.044 -0.2147 -2.0113 -1.2916
 2301TIP3   OH228317   4.563   1.983  16.756 -0.1228 -0.2687 -0.0251
 2301TIP3    H128318   4.485   2.031  16.782  0.2048  0.6877 -0.7518
 2301TIP3    H228319   4.592   2.025  16.675 -0.3471 -2.2937 -1.2199
 2302TIP3   OH228320   0.715   4.638  14.349 -0.1499  0.2484  0.0350
 2302TIP3    H128321   0.633   4.684  14.363 -0.9182 -1.0026 -0.2132
 2302TIP3    H228322   0.703   4.554  14.394  2.0018  1.0476  2.3419
 2303TIP3   OH228323   1.520   5.616   6.749  0.2682 -0.2591  0.5249
 2303TIP3    H128324   1.555   5.543   6.698  1.0815  0.4345  0.0551
 2303TIP3    H228325   1.439   5.639   6.706  0.3352 -0.4679  0.2859
 2304TIP3   OH228326   4.656   4.131   3.565 -0.6201  0.4901  0.1692
 2304TIP3    H128327   4.612   4.111   3.648 -0.5370 -0.7818 -0.0706
 2304TIP3    H228328   4.585   4.155   3.505 -0.6759  1.4508  0.6075
 2305TIP3   OH228329   6.130   2.572  14.961  0.5907  0.2061 -0.0542
 2305TIP3    H128330   6.223   2.552  14.963  0.4325 -0.6743 -0.7998
 2305TIP3    H228331   6.090   2.495  14.922 -0.1586  1.6039 -2.2263
 2306TIP3   OH228332   5.553   4.480   0.793  0.7370  0.2869  0.6006
 2306TIP3    H128333   5.551   4.392   0.830 -1.4390  0.5006  1.1627
 2306TIP3    H228334   5.566   4.538   0.868 -0.6076  0.5555  0.6548
 2307TIP3   OH228335   5.385   0.195   6.391  0.2457 -0.2507 -0.0688
 2307TIP3    H128336   5.437   0.241   6.458  1.8143  0.0162 -1.4126
 2307TIP3    H228337   5.308   0.250   6.378  1.5521  1.4575 -0.8512
 2308TIP3   OH228338   2.679   4.618  12.764  0.7101 -0.0613 -0.1490
 2308TIP3    H128339   2.688   4.597  12.671  1.4541  0.3385 -0.1760
 2308TIP3    H228340   2.747   4.684  12.780  1.4383 -1.0497  0.9622
 2309TIP3   OH228341   0.219   6.687  16.714 -0.4217  0.4059  0.6849
 2309TIP3    H128342   0.184   6.631  16.646 -1.0975  0.5842  0.8848
 2309TIP3    H228343   0.288   6.737  16.670 -0.6579  0.3169  0.2046
 2310TIP3   OH228344   6.105   6.295  13.696  0.0929 -0.5864  0.6297
 2310TIP3    H128345   6.108   6.373  13.752 -0.2122  0.3340 -0.5868
 2310TIP3    H228346   6.175   6.239  13.728  0.5958  0.3854  1.2570
 2311TIP3   OH228347   5.575   5.616   1.182 -0.6412 -0.3689  0.2659
 2311TIP3    H128348   5.631   5.541   1.162  0.2675 -0.1192  1.7982
 2311TIP3    H228349   5.584   5.674   1.106 -0.2760 -1.1780 -0.3166
 2312TIP3   OH228350   6.182   5.830   5.798 -0.0633  0.4649 -0.1249
 2312TIP3    H128351   6.233   5.750   5.809 -1.3275 -0.2066  1.1677
 2312TIP3    H228352   6.107   5.819   5.856  0.0359  2.8522  0.5755
 2313TIP3   OH228353   4.115   4.816  11.326 -0.2920  0.3300  0.0846
 2313TIP3    H128354   4.125   4.755  11.253  0.3818 -1.2364  1.4317
 2313TIP3    H228355   4.039   4.784  11.374 -1.9720  2.5055 -0.9372
 2314TIP3   OH228356   0.596   5.732   5.310  0.3732 -0.3080  0.3997
 2314TIP3    H128357   0.667   5.698   5.364  0.5115  0.3414  0.6394
 2314TIP3    H228358   0.528   5.666   5.315  0.3594 -0.2345  1.4345
 2315TIP3   OH228359   5.757   2.266  10.984 -0.0071 -0.5473  0.1896
 2315TIP3    H128360   5.808   2.207  10.928  1.9289  0.4205  0.8191
 2315TIP3    H228361   5.667   2.234  10.978  0.4670 -1.6611 -1.8935
 2316TIP3   OH228362   4.138   0.359   4.589  0.1671  0.0803  0.4402
 2316TIP3    H128363   4.067   0.409   4.631  0.1351  1.5911 -1.2661
 2316TIP3    H228364   4.105   0.341   4.501  1.1653 -0.8776  0.2488
 2317TIP3   OH228365   4.129   0.190  14.939 -0.4358  0.2186  0.3938
 2317TIP3    H128366   4.212   0.163  14.978 -0.4117 -0.5911 -0.1773
 2317TIP3    H228367   4.153   0.260  14.878  0.3483 -1.9499 -2.0086
 2318TIP3   OH228368   4.198   6.401   2.622  0.3468  0.2158 -0.0283
 2318TIP3    H128369   4.127   6.373   2.565  0.1389 -0.4704  0.5429
 2318TIP3    H228370   4.277   6.363   2.582  0.6220  2.2015 -1.4789
 2319TIP3   OH228371   5.624   1.832   3.939 -0.2587  0.1674  0.3623
 2319TIP3    H128372   5.622   1.811   4.032 -1.0133  0.0089  0.3130
 2319TIP3    H228373   5.582   1.758   3.896  0.9789 -0.2383 -0.2061
 2320TIP3   OH228374   3.597   2.270  15.021 -0.4666  0.7383  0.1270
 2320TIP3    H128375   3.659   2.213  14.974  0.8503  2.0322  0.2327
 2320TIP3    H228376   3.519   2.270  14.965  0.5010  0.9997 -1.2942
 2321TIP3   OH228377   1.844   1.201  14.369 -0.7043  0.5694 -0.2801
 2321TIP3    H128378   1.757   1.162  14.370 -0.9241  1.0414 -0.7316
 2321TIP3    H228379   1.904   1.127  14.361 -1.1204  0.3194 -1.1790
 2322TIP3   OH228380   5.283   0.561  16.718  0.1320 -0.3631 -0.1661
 2322TIP3    H128381   5.378   0.563  16.734  0.1154  1.1860 -0.0997
 2322TIP3    H228382   5.265   0.470  16.694  1.2507 -1.2114  1.9666
 2323TIP3   OH228383   1.122   3.289  13.132 -1.2892 -0.6649 -0.8146
 2323TIP3    H128384   1.205   3.286  13.084 -0.2112  1.0515  0.7991
 2323TIP3    H228385   1.055   3.289  13.064  0.1836  2.5452 -2.5204
 2324TIP3   OH228386   4.374   4.326   5.370 -0.1771 -0.0276  0.1802
 2324TIP3    H128387   4.437   4.294   5.306  0.6385  2.8633 -0.6087
 2324TIP3    H228388   4.288   4.301   5.334  0.2777  1.2741 -1.9358
 2325TIP3   OH228389   3.015   4.106  13.933  0.0194 -0.1704  0.0061
 2325TIP3    H128390   3.014   4.081  14.026 -1.0063 -0.6152 -0.1223
 2325TIP3    H228391   3.101   4.077  13.902  0.2497 -0.3033  0.7388
 2326TIP3   OH228392   6.184   2.599   0.884 -0.1345 -0.0603  0.0865
 2326TIP3    H128393   6.185   2.512   0.924 -0.8111  0.2483  0.8161
 2326TIP3    H228394   6.233   2.589   0.803 -0.9455 -1.3373 -0.2806
 2327TIP3   OH228395   6.167   0.862   3.120  0.1461  0.4827 -0.0550
 2327TIP3    H128396   6.217   0.798   3.169 -4.0896 -2.1219  1.4400
 2327TIP3    H228397   6.192   0.847   3.029  1.7864 -0.8862  0.5712
 2328TIP3   OH228398   4.347   2.741   0.774 -0.1281 -0.1500 -0.0150
 2328TIP3    H128399   4.367   2.828   0.739  1.4133 -0.0556  1.0091
 2328TIP3    H228400   4.281   2.757   0.842 -0.6933  0.0657 -0.6101
 2329TIP3   OH228401   2.192   5.078  16.389 -0.3958 -0.5686  0.2755
 2329TIP3    H128402   2.124   5.046  16.329 -1.2389  0.5553  0.5985
 2329TIP3    H228403   2.273   5.073  16.338 -0.9858 -0.3569 -0.7048
 2330TIP3   OH228404   5.013   1.940  14.937  0.0570  0.0909 -0.5110
 2330TIP3    H128405   5.095   1.956  14.984  0.0194 -1.0048 -0.0268
 2330TIP3    H228406   4.968   2.025  14.936 -0.5456 -0.0764  2.6394
 2331TIP3   OH228407   3.064   5.394   3.532  0.3755 -0.0188  0.8326
 2331TIP3    H128408   3.066   5.300   3.550  0.9035 -0.0802  0.4740
 2331TIP3    H228409   3.154   5.416   3.511  0.4023  0.7162  1.6369
 2332TIP3   OH228410   3.077   5.397  15.998 -0.7771  0.0387 -0.3216
 2332TIP3    H128411   3.119   5.312  16.007 -0.3283  0.2038 -0.8044
 2332TIP3    H228412   3.034   5.413  16.082 -2.5694 -1.5655 -0.8550
 2333TIP3   OH228413   0.165   5.833   3.768 -0.0196 -0.4283 -0.3738
 2333TIP3    H128414   0.207   5.916   3.746  2.4450 -1.2782  0.8041
 2333TIP3    H228415   0.222   5.766   3.731 -1.3899 -1.6379 -0.3925
 2334TIP3   OH228416   3.396   5.428   4.632 -0.2749 -0.2607  0.1765
 2334TIP3    H128417   3.349   5.446   4.713 -0.7530 -1.8901  0.2917
 2334TIP3    H228418   3.360   5.491   4.569 -1.9314 -0.8168  0.5129
 2335TIP3   OH228419   4.706   0.449  12.327  0.4609  0.0202  0.2650
 2335TIP3    H128420   4.705   0.369  12.274 -0.1093  0.4771 -0.4271
 2335TIP3    H228421   4.614   0.469  12.343  0.4134  2.0503 -1.9405
 2336TIP3   OH228422   3.931   4.375   2.212 -0.3794  0.8889  0.1199
 2336TIP3    H128423   3.897   4.430   2.141 -0.6233  0.7767  0.1482
 2336TIP3    H228424   3.882   4.293   2.204  0.8805  0.2036 -0.7085
 2337TIP3   OH228425   5.565   2.171   0.588  0.9679 -0.4006 -0.5433
 2337TIP3    H128426   5.615   2.102   0.546 -0.1844 -1.5442 -0.1064
 2337TIP3    H228427   5.480   2.169   0.544  0.3345 -0.4473  0.6568
 2338TIP3   OH228428   1.144   2.371   1.341  0.0786 -0.3315 -0.1658
 2338TIP3    H128429   1.097   2.452   1.324  1.3391  0.6343  0.8266
 2338TIP3    H228430   1.085   2.321   1.398 -0.1848  0.4030  0.2107
 2339TIP3   OH228431   0.381   2.506   6.337  0.3120  0.3450  0.0819
 2339TIP3    H128432   0.474   2.502   6.314  0.2276  2.4904 -0.8653
 2339TIP3    H228433   0.336   2.518   6.254 -0.8399 -0.6159  0.5407
 2340TIP3   OH228434   6.381   4.211   3.133 -0.8713  0.2915 -0.3057
 2340TIP3    H128435   6.455   4.270   3.118 -1.4045  0.3821 -3.3892
 2340TIP3    H228436   6.329   4.252   3.201  0.6691  1.4502  0.2143
 2341TIP3   OH228437   0.179   3.999  13.670  0.0613  0.6331  0.3105
 2341TIP3    H128438   0.261   3.984  13.717 -1.5379 -1.5902  2.6906
 2341TIP3    H228439   0.152   3.912  13.640 -0.3258  1.6291 -2.5285
 2342TIP3   OH228440   5.966   3.171  10.548 -0.5270 -0.4127 -0.1203
 2342TIP3    H128441   6.036   3.155  10.610 -0.5167 -0.7808 -0.2231
 2342TIP3    H228442   5.969   3.096  10.488 -2.1529 -1.3940  0.9264
 2343TIP3   OH228443   0.121   3.262  15.491 -0.5386 -0.3132  0.2237
 2343TIP3    H128444   0.211   3.259  15.458 -0.2114 -0.8788  1.1243
 2343TIP3    H228445   0.081   3.336  15.445  0.2839 -0.2555 -0.4291
 2344TIP3   OH228446   1.062   6.378  14.202 -0.0587  0.2047 -0.4007
 2344TIP3    H128447   0.995   6.311  14.214  0.6058 -0.7670 -1.8303
 2344TIP3    H228448   1.085   6.406  14.291 -1.9703  0.2029  0.1347
 2345TIP3   OH228449   1.953   3.294   5.875 -0.2259  0.6270 -0.1719
 2345TIP3    H128450   1.861   3.312   5.897 -0.2432  1.2354 -0.7073
 2345TIP3    H228451   2.001   3.312   5.955 -0.6374 -0.3194  0.3074
 2346TIP3   OH228452   4.065   1.571   4.077  0.1292 -0.0909  0.4320
 2346TIP3    H128453   4.008   1.630   4.027  0.6041  0.0582  0.0565
 2346TIP3    H228454   4.097   1.623   4.150  0.0952 -0.0574  0.4225
 2347TIP3   OH228455   2.602   2.721  13.203  0.1370 -0.0647 -0.1001
 2347TIP3    H128456   2.622   2.665  13.128  0.3649 -0.0072 -0.0852
 2347TIP3    H228457   2.658   2.798  13.191 -2.1167  1.4537 -1.5812
 2348TIP3   OH228458   6.062   2.333   0.987 -0.1220  0.0816  0.3713
 2348TIP3    H128459   6.145   2.315   1.032 -0.4854  1.5547  1.7141
 2348TIP3    H228460   5.996   2.330   1.057 -0.6084  3.1938  0.2024
 2349TIP3   OH228461   5.486   1.177   0.834  0.2986 -0.2627  0.0388
 2349TIP3    H128462   5.469   1.138   0.748 -2.4456  0.7170  0.0228
 2349TIP3    H228463   5.428   1.130   0.894  1.2063 -0.0638  1.1073
 2350TIP3   OH228464   6.684   3.793  13.669  0.1582  0.2774 -0.3477
 2350TIP3    H128465   6.687   3.782  13.764  4.8625  3.5085  0.1952
 2350TIP3    H228466   6.605   3.845  13.654 -1.3184 -1.2730  1.5291
 2351TIP3   OH228467   0.326   3.049  15.689  0.0278  0.9875 -0.2929
 2351TIP3    H128468   0.342   3.140  15.714  1.0207  1.0396 -1.0607
 2351TIP3    H228469   0.391   3.031  15.621 -1.0456  0.1283 -1.1335
 2352TIP3   OH228470   5.334   0.005   5.493 -0.3387  0.3895 -0.4329
 2352TIP3    H128471   5.374   0.015   5.407  1.5488  0.1577  0.3711
 2352TIP3    H228472   5.317   0.095   5.522 -0.3247  0.4937 -0.7427
 2353TIP3   OH228473   0.712   4.210  13.161 -0.4405 -0.4153 -0.0193
 2353TIP3    H128474   0.653   4.265  13.110  0.4045 -0.3051 -0.9017
 2353TIP3    H228475   0.730   4.135  13.104  1.1516  0.0959 -0.2524
 2354TIP3   OH228476   5.334   1.108   4.997 -0.1249  0.1012 -0.0413
 2354TIP3    H128477   5.281   1.033   4.970  1.3042 -0.9700 -0.0052
 2354TIP3    H228478   5.334   1.166   4.921 -0.0231 -0.6574 -0.6350
 2355TIP3   OH228479   0.289   5.266  12.336 -0.3644 -0.3852 -0.2858
 2355TIP3    H128480   0.374   5.222  12.331 -0.0317  0.2116 -0.1001
 2355TIP3    H228481   0.310   5.358  12.321 -0.8726 -0.1270  0.5368
 2356TIP3   OH228482   2.074   4.982  15.688 -0.6401  0.2756 -0.2023
 2356TIP3    H128483   2.003   5.001  15.626 -0.1505  0.2249 -0.7932
 2356TIP3    H228484   2.154   4.996  15.637 -0.1696 -3.5289 -0.8238
 2357TIP3   OH228485   4.852   3.472  17.338 -1.1995  0.4111  0.4041
 2357TIP3    H128486   4.786   3.415  17.298 -1.5318  0.9235  0.2144
 2357TIP3    H228487   4.877   3.426  17.418 -0.1351 -0.8822 -0.6239
 2358TIP3   OH228488   2.067   5.319   2.110 -0.7778 -0.7348  0.5418
 2358TIP3    H128489   2.158   5.325   2.079 -0.5788 -1.2372  1.0287
 2358TIP3    H228490   2.025   5.259   2.048 -1.3570  1.1664 -1.0041
 2359TIP3   OH228491   3.299   5.149  13.731 -0.7836  0.3892  0.2466
 2359TIP3    H128492   3.204   5.148  13.715 -0.5840 -0.4274 -1.0238
 2359TIP3    H228493   3.337   5.176  13.647  0.2070 -1.7241 -0.0417
 2360TIP3   OH228494   4.056   4.832   6.086  0.2356  0.0212  0.5808
 2360TIP3    H128495   4.111   4.907   6.062  1.1819 -0.0981  2.2160
 2360TIP3    H228496   4.043   4.784   6.004 -0.9176  2.2805 -0.6212
 2361TIP3   OH228497   6.500   2.188   5.458 -0.2006 -0.1070 -0.0658
 2361TIP3    H128498   6.568   2.220   5.399 -0.3999  0.0258 -0.2246
 2361TIP3    H228499   6.547   2.162   5.537  0.0874 -0.4624 -0.3555
 2362TIP3   OH228500   5.228   0.839  15.272 -0.1161  0.7605 -0.1582
 2362TIP3    H128501   5.160   0.825  15.207  0.2256  0.0332 -0.3654
 2362TIP3    H228502   5.283   0.908  15.235  1.1387 -0.8852 -1.5189
 2363TIP3   OH228503   4.487   2.770   0.432  0.2358 -0.0114 -0.2319
 2363TIP3    H128504   4.418   2.729   0.380 -0.9857  1.4383  0.1620
 2363TIP3    H228505   4.550   2.804   0.368 -0.5654  0.5714 -0.7259
 2364TIP3   OH228506   0.500   2.899   1.354  0.3355 -0.6112  0.2746
 2364TIP3    H128507   0.586   2.926   1.321 -0.0721  1.2770  0.6742
 2364TIP3    H228508   0.484   2.956   1.429 -0.7245 -1.8037  0.9888
 2365TIP3   OH228509   0.916   4.635  10.840 -0.0387  0.3394  0.1049
 2365TIP3    H128510   0.856   4.652  10.913 -1.5649 -0.8224 -0.8274
 2365TIP3    H228511   1.003   4.632  10.881 -0.5298  2.2656  1.4619
 2366TIP3   OH228512   4.479   6.014  16.256  0.5031 -0.5831  0.4865
 2366TIP3    H128513   4.498   6.070  16.181  1.2774 -1.0172  0.3487
 2366TIP3    H228514   4.516   5.929  16.233  1.5018 -0.5021  1.6959
 2367TIP3   OH228515   4.441   2.690   1.509 -0.1412  0.4151  0.1681
 2367TIP3    H128516   4.346   2.677   1.505 -0.1847  0.9231 -0.6994
 2367TIP3    H228517   4.468   2.691   1.418  0.4200  2.2397  0.3259
 2368TIP3   OH228518   3.783   3.701  14.711 -0.5429 -0.6338 -0.2114
 2368TIP3    H128519   3.793   3.775  14.770  0.3399  0.7531 -2.0064
 2368TIP3    H228520   3.781   3.624  14.768  3.1811  0.3536  1.5303
 2369TIP3   OH228521   3.350   1.243  11.993 -0.0463 -0.1857  0.0208
 2369TIP3    H128522   3.301   1.248  12.076  1.0575  0.3977  0.6594
 2369TIP3    H228523   3.312   1.312  11.939  1.4623  1.7574  1.3131
 2370TIP3   OH228524   1.710   1.698  15.397  0.2673  0.1782  0.2863
 2370TIP3    H128525   1.630   1.698  15.450 -0.3066  0.1998 -0.5550
 2370TIP3    H228526   1.763   1.768  15.433 -1.4798  2.3812 -1.1420
 2371TIP3   OH228527   0.285   0.628   2.221  0.0527  0.3405  0.7140
 2371TIP3    H128528   0.244   0.659   2.302  0.7833 -0.9490  1.6161
 2371TIP3    H228529   0.379   0.638   2.236  0.1863  0.1620  0.0037
 2372TIP3   OH228530   0.200   4.189   5.825 -0.0599  0.7847  0.0326
 2372TIP3    H128531   0.215   4.283   5.837  0.9144  0.8403 -1.3725
 2372TIP3    H228532   0.268   4.147   5.877 -0.3253  0.8604  0.4426
 2373TIP3   OH228533   5.626   0.299   0.229 -0.7182 -0.1938 -0.3894
 2373TIP3    H128534   5.699   0.263   0.178  0.1704 -0.5745  1.0821
 2373TIP3    H228535   5.554   0.239   0.213 -0.0919 -1.0013 -0.2555
 2374TIP3   OH228536   1.102   1.706  15.133 -0.6308  0.0026  0.0926
 2374TIP3    H128537   1.014   1.681  15.105 -0.6085 -1.1709  1.0111
 2374TIP3    H228538   1.089   1.788  15.182 -1.3556 -0.6147  0.9762
 2375TIP3   OH228539   0.203   1.442  11.983  0.1284  0.7129  0.2142
 2375TIP3    H128540   0.133   1.427  12.046  0.2775  0.9673  0.4440
 2375TIP3    H228541   0.265   1.500  12.029  0.7098  0.1445  0.1726
 2376TIP3   OH228542   6.084   4.454   1.585  0.2406  0.1871 -0.1665
 2376TIP3    H128543   6.151   4.497   1.531  0.4549 -1.6736 -1.4784
 2376TIP3    H228544   6.124   4.371   1.612 -1.1353 -0.4931 -0.1033
 2377TIP3   OH228545   1.114   0.575  16.283 -0.0350  0.0494 -0.4052
 2377TIP3    H128546   1.188   0.522  16.314  0.8311  1.2545 -0.3224
 2377TIP3    H228547   1.147   0.617  16.203 -0.0629  1.7977  0.4502
 2378TIP3   OH228548   3.956   2.404   1.199 -0.2088 -0.2725  0.4196
 2378TIP3    H128549   4.011   2.481   1.205 -1.2802  0.5652 -0.1806
 2378TIP3    H228550   3.954   2.382   1.106 -0.1531 -0.8529  0.5468
 2379TIP3   OH228551   2.812   3.021  16.102  0.1410  0.4674  0.2686
 2379TIP3    H128552   2.749   3.080  16.143 -0.2318 -0.1859  0.6562
 2379TIP3    H228553   2.814   2.944  16.159 -0.2176 -0.3633 -0.7829
 2380TIP3   OH228554   0.276   5.561   2.437 -0.0275  1.0424  0.4245
 2380TIP3    H128555   0.186   5.534   2.454  0.7457 -2.0478  0.1102
 2380TIP3    H228556   0.310   5.585   2.523 -0.2256 -0.9722  1.1030
 2381TIP3   OH228557   0.066   3.487   5.312  0.6358  0.4507 -0.2702
 2381TIP3    H128558   0.155   3.523   5.306  0.9925 -0.3969 -0.1821
 2381TIP3    H228559   0.027   3.506   5.227  1.2744 -0.1228 -0.7042
 2382TIP3   OH228560   3.289   5.661   2.162  0.4066 -0.3149 -0.2771
 2382TIP3    H128561   3.209   5.695   2.202  0.4227  1.3155 -1.5476
 2382TIP3    H228562   3.261   5.581   2.118 -0.6043  0.3831 -0.9475
 2383TIP3   OH228563   3.567   1.184   5.832 -0.2273 -0.5034 -0.2925
 2383TIP3    H128564   3.575   1.156   5.923  0.8452 -0.7978 -0.4613
 2383TIP3    H228565   3.500   1.126   5.795 -0.4310 -0.6042  0.2232
 2384TIP3   OH228566   6.598   0.254  12.855  0.3318  0.1857 -0.4548
 2384TIP3    H128567   6.676   0.283  12.902 -0.3985  1.0883  0.2349
 2384TIP3    H228568   6.629   0.236  12.766  1.2956  0.6605 -0.2266
 2385TIP3   OH228569   2.317   6.101  17.177 -0.0770 -0.1407 -0.3924
 2385TIP3    H128570   2.304   6.045  17.100 -0.3150 -1.0563  0.2953
 2385TIP3    H228571   2.275   6.183  17.153 -0.8816 -0.6910 -0.9377
 2386TIP3   OH228572   0.205   4.211   4.842 -0.0817 -0.2188  0.4014
 2386TIP3    H128573   0.203   4.271   4.768  1.7009  1.7701  1.8719
 2386TIP3    H228574   0.167   4.130   4.808 -0.2201  0.9194 -2.3756
 2387TIP3   OH228575   4.433   5.383   5.142  0.4223  0.3673 -0.0617
 2387TIP3    H128576   4.443   5.440   5.066 -2.0065  1.6143  0.4465
 2387TIP3    H228577   4.497   5.415   5.205  1.3701  0.3338 -0.9852
 2388TIP3   OH228578   4.815   3.537   1.975  0.0164 -0.3409 -0.1388
 2388TIP3    H128579   4.825   3.479   1.900  1.8383 -0.0903 -0.1128
 2388TIP3    H228580   4.827   3.625   1.939  2.4238 -0.2869  0.6248
 2389TIP3   OH228581   0.899   1.319  11.662 -0.1884 -0.2630  0.2014
 2389TIP3    H128582   0.906   1.414  11.671 -0.3687 -0.1731 -0.5756
 2389TIP3    H228583   0.958   1.285  11.729 -0.5665  0.3855  0.8881
 2390TIP3   OH228584   0.190   4.998   4.647  0.0872  0.4776 -0.2589
 2390TIP3    H128585   0.248   5.030   4.577 -2.0711  0.3136 -2.2510
 2390TIP3    H228586   0.156   5.078   4.688  1.0804  0.5807  0.3877
 2391TIP3   OH228587   0.122   1.603   5.650 -0.2423  0.3266  0.0459
 2391TIP3    H128588   0.195   1.567   5.700 -0.6187 -0.4253  0.0707
 2391TIP3    H228589   0.088   1.674   5.705 -0.3666 -0.1927  0.6466
 2392TIP3   OH228590   0.326   6.485  16.977  0.2830 -0.1210  0.2581
 2392TIP3    H128591   0.255   6.421  16.988  0.5443 -0.2535  1.2700
 2392TIP3    H228592   0.368   6.488  17.062  0.2634  1.4242  0.2364
 2393TIP3   OH228593   0.071   6.332  16.997  0.4797 -0.0339  0.0120
 2393TIP3    H128594   0.097   6.242  16.979 -0.1454 -0.0492 -0.9376
 2393TIP3    H228595  -0.011   6.323  17.046  0.0934  0.0018 -0.6094
 2394TIP3   OH228596   2.310   5.481  16.583  0.2396 -0.2830 -0.2776
 2394TIP3    H128597   2.306   5.549  16.651  1.1447  1.0405 -1.4876
 2394TIP3    H228598   2.219   5.458  16.566 -0.0148 -0.4243  1.1516
 2395TIP3   OH228599   5.174   6.079  14.209 -0.1546 -0.6305 -0.1864
 2395TIP3    H128600   5.170   6.143  14.280  0.1937 -0.7281 -0.0762
 2395TIP3    H228601   5.164   5.994  14.253  2.3745 -0.8785  0.0762
 2396TIP3   OH228602   0.274   0.808   3.224 -0.1530 -0.7367  0.3630
 2396TIP3    H128603   0.314   0.830   3.139 -0.0046 -0.6801  0.4461
 2396TIP3    H228604   0.322   0.730   3.253 -0.4008 -0.9280  0.2603
 2397TIP3   OH228605   3.761   1.744  13.516  0.0617 -0.0523 -0.3297
 2397TIP3    H128606   3.764   1.839  13.505  0.9644  0.0415  0.6228
 2397TIP3    H228607   3.728   1.712  13.432  1.0666  1.0191 -1.1780
 2398TIP3   OH228608   2.834   4.118   4.726  0.4004 -0.8199 -0.3707
 2398TIP3    H128609   2.871   4.203   4.703 -1.1842 -0.7873 -3.1395
 2398TIP3    H228610   2.753   4.139   4.773  0.2877 -0.8192 -0.5669
 2399TIP3   OH228611   3.802   4.972   6.018 -0.3575 -0.5189  0.4344
 2399TIP3    H128612   3.892   4.941   6.011  0.8222  2.7860 -1.0051
 2399TIP3    H228613   3.786   4.980   6.112  0.8801 -1.0380  0.7062
 2400TIP3   OH228614   3.968   3.445  14.499 -0.2921 -0.2324 -0.0143
 2400TIP3    H128615   3.909   3.457  14.424  0.3653  1.0908 -0.3479
 2400TIP3    H228616   4.001   3.356  14.489  0.1714  0.0798 -1.5993
 2401TIP3   OH228617   0.602   2.744   5.806  0.3379 -0.0889  0.5217
 2401TIP3    H128618   0.542   2.691   5.754  1.2305 -1.6727  1.0397
 2401TIP3    H228619   0.659   2.786   5.742 -1.0751  1.1939  0.0421
 2402TIP3   OH228620   5.354   6.621  13.780  0.4959 -0.2414 -0.2325
 2402TIP3    H128621   5.340   6.704  13.825 -2.6110 -1.0716  0.6240
 2402TIP3    H228622   5.435   6.586  13.816  1.0779  1.7369  0.4545
 2403TIP3   OH228623   5.214   2.800   2.866  0.1380  0.0952 -0.3188
 2403TIP3    H128624   5.307   2.798   2.842  0.3060 -0.4375  0.3868
 2403TIP3    H228625   5.195   2.894   2.875  0.9734  0.1746  0.9219
 2404TIP3   OH228626   3.846   0.546  13.644  0.4612  0.1580  0.3265
 2404TIP3    H128627   3.812   0.475  13.590  2.5961 -0.6661 -0.0340
 2404TIP3    H228628   3.795   0.623  13.618 -1.1504 -0.9917 -0.0635
 2405TIP3   OH228629   3.285   5.798   3.623  0.6815 -0.4973  0.6237
 2405TIP3    H128630   3.349   5.855   3.665 -0.2681 -0.7149  2.4783
 2405TIP3    H228631   3.238   5.757   3.696 -0.7353 -1.2690 -0.6692
 2406TIP3   OH228632   3.759   6.231  10.751  0.2383  0.2694  0.1511
 2406TIP3    H128633   3.814   6.219  10.674  0.5724  2.3036  0.0277
 2406TIP3    H228634   3.674   6.260  10.717  0.5256  1.6261  0.5298
 2407TIP3   OH228635   2.185   0.185   2.151  0.3227  0.4785  0.0245
 2407TIP3    H128636   2.127   0.250   2.110 -0.3308  0.5300  1.0047
 2407TIP3    H228637   2.245   0.237   2.204 -1.1809  0.2693  2.0649
 2408TIP3   OH228638   5.818   4.676   3.174  0.4060 -0.3476 -0.2038
 2408TIP3    H128639   5.785   4.730   3.102 -0.1154 -1.5383 -0.8761
 2408TIP3    H228640   5.872   4.610   3.132  0.3802 -0.8475  0.5325
 2409TIP3   OH228641   5.830   0.556  14.730 -0.5897  0.3834  0.2324
 2409TIP3    H128642   5.780   0.616  14.674  1.8829  0.5657 -2.0061
 2409TIP3    H228643   5.850   0.481  14.673  4.0930  1.6352 -0.1583
 2410TIP3   OH228644   3.072   6.640  16.009  0.0209  0.5198 -0.1760
 2410TIP3    H128645   3.026   6.624  16.091  1.2711  0.9032  0.6302
 2410TIP3    H228646   3.101   6.731  16.014  2.7097 -0.2734  0.3648
 2411TIP3   OH228647   0.333   1.379   4.098  0.2464  0.0505  0.0081
 2411TIP3    H128648   0.338   1.451   4.035  0.7986 -0.9213 -1.1043
 2411TIP3    H228649   0.292   1.307   4.049  1.8491 -1.1315  0.3170
 2412TIP3   OH228650   0.299   3.986  16.225 -0.6063  0.5141  0.1422
 2412TIP3    H128651   0.289   3.896  16.194  0.0491  0.2329  0.7177
 2412TIP3    H228652   0.329   3.977  16.315 -0.5178  1.3163  0.2020
 2413TIP3   OH228653   0.424   4.046  13.283  0.3740  0.4376  0.1789
 2413TIP3    H128654   0.514   4.077  13.298  0.3426  0.2162  0.8430
 2413TIP3    H228655   0.380   4.121  13.243  1.0709  0.2713 -0.9562
 2414TIP3   OH228656   1.235   1.602   3.559  0.4525  0.2078  0.3758
 2414TIP3    H128657   1.144   1.607   3.587  0.2691 -0.7794 -0.0073
 2414TIP3    H228658   1.249   1.682   3.508 -0.0046  0.6718  0.9608
 2415TIP3   OH228659   5.847   4.683   5.070  0.5335  0.0654  0.0607
 2415TIP3    H128660   5.902   4.740   5.123 -0.5508  1.3109 -0.1100
 2415TIP3    H228661   5.766   4.733   5.057 -0.0529 -1.1018 -0.9474
 2416TIP3   OH228662   1.016   1.658  16.182 -0.6759  0.5240  0.2263
 2416TIP3    H128663   0.970   1.742  16.175 -2.7083 -0.5339 -0.0615
 2416TIP3    H228664   0.992   1.624  16.269 -2.3634 -1.0482 -0.7776
 2417TIP3   OH228665   4.406   2.912  13.298  0.4363  0.9074  0.2228
 2417TIP3    H128666   4.424   2.999  13.334 -0.1746  0.6977  1.0728
 2417TIP3    H228667   4.419   2.853  13.372  0.6426  0.2951 -0.2985
 2418TIP3   OH228668   5.637   0.309  15.499  0.2170 -0.1664  0.0126
 2418TIP3    H128669   5.673   0.397  15.513  0.7678 -0.1026 -1.6166
 2418TIP3    H228670   5.602   0.311  15.411 -2.5726 -0.6846  1.0183
 2419TIP3   OH228671   6.007   3.381  12.120 -0.4924  0.9538  0.2999
 2419TIP3    H128672   5.922   3.377  12.077  0.5275  1.9848 -2.0293
 2419TIP3    H228673   6.025   3.475  12.129  0.6784  0.7691  0.0766
 2420TIP3   OH228674   3.728   3.447   0.913 -0.3055  0.3202  0.6637
 2420TIP3    H128675   3.720   3.473   1.004 -1.0464  1.8901  0.1872
 2420TIP3    H228676   3.742   3.529   0.866 -0.4879 -0.3954 -0.6995
 2421TIP3   OH228677   0.499   5.510   0.605 -0.3668  0.2773  0.3528
 2421TIP3    H128678   0.495   5.606   0.597  4.4461  0.7620  0.5743
 2421TIP3    H228679   0.545   5.495   0.687 -2.7912 -2.4707  1.3797
 2422TIP3   OH228680   4.665   3.532   1.634 -0.1341  0.5066 -0.3780
 2422TIP3    H128681   4.653   3.611   1.581 -0.6399  0.1055 -0.8650
 2422TIP3    H228682   4.580   3.516   1.675 -0.2958 -0.2988 -1.0032
 2423TIP3   OH228683   3.233   3.838   0.339 -0.0160 -0.0643 -0.3095
 2423TIP3    H128684   3.227   3.906   0.272  0.8057  0.6135  0.2941
 2423TIP3    H228685   3.185   3.874   0.413  2.3932  0.9573  0.8772
 2424TIP3   OH228686   3.858   2.506  11.054  0.1305 -0.5603  0.0201
 2424TIP3    H128687   3.913   2.440  11.011  0.8522  0.8255 -1.2525
 2424TIP3    H228688   3.896   2.516  11.142  2.3368  0.7656 -1.0034
 2425TIP3   OH228689   2.646   3.809   1.291 -0.1725 -0.8557  0.0919
 2425TIP3    H128690   2.642   3.866   1.214  0.4484  0.5616  1.0700
 2425TIP3    H228691   2.739   3.789   1.302 -0.2220 -0.7989  0.6516
 2426TIP3   OH228692   5.499   5.308  14.836 -0.4211 -0.5813  0.0212
 2426TIP3    H128693   5.540   5.234  14.791  1.7677  0.2879  0.4773
 2426TIP3    H228694   5.461   5.361  14.765 -0.6263 -1.3288 -0.4336
 2427TIP3   OH228695   0.579   5.402   5.018  0.2877  0.2069 -0.2490
 2427TIP3    H128696   0.630   5.449   5.084 -0.8856 -0.6049  1.2804
 2427TIP3    H228697   0.545   5.471   4.961  0.7768  0.9835  0.3762
 2428TIP3   OH228698   0.769   4.364  14.166  0.6736  0.2906 -0.1670
 2428TIP3    H128699   0.691   4.333  14.212  1.8253 -1.1565  0.8873
 2428TIP3    H228700   0.747   4.454  14.140 -0.8940  0.3374  1.1639
 2429TIP3   OH228701   1.726   2.735   0.962  0.0104 -0.1630  0.6180
 2429TIP3    H128702   1.717   2.683   1.042 -0.4262  1.3989  1.6282
 2429TIP3    H228703   1.642   2.779   0.952 -0.0925 -0.6215 -0.9628
 2430TIP3   OH228704   0.190   0.670  14.275 -0.3788  0.0006 -0.1084
 2430TIP3    H128705   0.280   0.677  14.242  0.2032  2.6966  1.6851
 2430TIP3    H228706   0.148   0.751  14.246 -1.1640  0.3632  1.8764
 2431TIP3   OH228707   5.249   2.979  15.931 -0.2751 -0.1356 -0.5200
 2431TIP3    H128708   5.223   2.989  16.022 -0.8273  0.0892 -0.6954
 2431TIP3    H228709   5.207   3.053  15.886  1.1789  0.6128 -0.7199
 2432TIP3   OH228710   5.402   0.166  14.427 -0.1540  0.1803 -0.1717
 2432TIP3    H128711   5.376   0.196  14.340  0.8028  0.4644 -0.3720
 2432TIP3    H228712   5.470   0.101  14.410 -0.2348 -0.0454  0.3561
 2433TIP3   OH228713   5.196   2.101   3.675  0.8338 -0.4532 -0.1287
 2433TIP3    H128714   5.290   2.095   3.658  0.7200  1.6641 -1.9400
 2433TIP3    H228715   5.163   2.158   3.606 -1.7427 -0.8641  0.6771
 2434TIP3   OH228716   4.130   1.292   3.334  0.0962 -0.0510  0.2978
 2434TIP3    H128717   4.114   1.198   3.327 -2.2200 -0.0017  3.0919
 2434TIP3    H228718   4.047   1.328   3.365  0.7976  3.0205 -1.0218
 2435TIP3   OH228719   5.014   5.000   1.415 -0.2450 -0.1779  0.0011
 2435TIP3    H128720   5.042   5.036   1.331  1.4126  2.0857  1.3805
 2435TIP3    H228721   5.095   4.995   1.467 -1.0897 -2.1885  1.2625
 2436TIP3   OH228722   5.615   6.574  14.354  0.1740 -0.3606  0.1696
 2436TIP3    H128723   5.643   6.665  14.355  3.7670 -1.1948 -2.6687
 2436TIP3    H228724   5.628   6.543  14.444 -1.8190  1.9555  1.3662
 2437TIP3   OH228725   3.829   3.803  15.619  0.3172 -0.5636  0.0485
 2437TIP3    H128726   3.801   3.847  15.699  1.8720  1.2828 -0.3482
 2437TIP3    H228727   3.749   3.792  15.568 -0.1978  1.6403  0.2808
 2438TIP3   OH228728   0.259   5.015  13.144 -0.7345 -0.0982 -0.3531
 2438TIP3    H128729   0.239   4.946  13.080  0.1212 -0.7169  0.0191
 2438TIP3    H228730   0.257   5.096  13.093 -1.4095 -0.4272 -0.8768
 2439TIP3   OH228731   3.371   0.508   1.743  0.2210 -0.1607 -0.4475
 2439TIP3    H128732   3.411   0.421   1.742 -0.2619 -0.3890 -1.4207
 2439TIP3    H228733   3.294   0.498   1.799 -0.1477 -0.5288 -0.9995
 2440TIP3   OH228734   5.651   4.713   6.093  0.1294  0.4332  0.1814
 2440TIP3    H128735   5.713   4.640   6.085  0.9244  1.1588 -0.4780
 2440TIP3    H228736   5.641   4.746   6.004  2.4327  3.2805  0.8441
 2441TIP3   OH228737   3.093   3.869   0.008 -0.1560  0.3383  0.3056
 2441TIP3    H128738   3.108   3.892  -0.083  0.4915 -0.7872  0.1053
 2441TIP3    H228739   3.181   3.866   0.047 -0.2423 -1.1813  0.4436
 2442TIP3   OH228740   4.667   5.805   3.598  0.2429  0.0501 -0.0080
 2442TIP3    H128741   4.701   5.867   3.662 -0.4496  0.8249 -0.3657
 2442TIP3    H228742   4.661   5.856   3.516 -1.1509 -0.2223 -0.1038
 2443TIP3   OH228743   3.313   6.686  16.172  0.0489  0.0005  0.2172
 2443TIP3    H128744   3.228   6.697  16.131 -0.5277  1.3474  1.6746
 2443TIP3    H228745   3.347   6.775  16.181  1.8203 -0.5241 -0.6985
 2444TIP3   OH228746   5.016   5.195   1.692 -0.4862 -0.2319  0.4850
 2444TIP3    H128747   5.109   5.182   1.674 -0.4872 -1.4199  1.2156
 2444TIP3    H228748   5.012   5.276   1.741 -0.3260  2.3586 -3.3046
 2445TIP3   OH228749   0.445   5.141  13.807  0.0043  0.4582 -0.6576
 2445TIP3    H128750   0.417   5.051  13.792  0.0113  0.2061  0.7504
 2445TIP3    H228751   0.535   5.145  13.774  0.5863 -0.5112  0.7191
 2446TIP3   OH228752   0.231   3.094  16.800  0.1385 -0.3902  0.4140
 2446TIP3    H128753   0.271   3.174  16.834 -0.3664 -0.6898  1.8167
 2446TIP3    H228754   0.305   3.039  16.776  0.5097  0.1628  0.2804
 2447TIP3   OH228755   1.832   3.441   0.890 -0.2622 -0.4375  0.3105
 2447TIP3    H128756   1.827   3.534   0.912 -0.4243  0.0374 -1.6261
 2447TIP3    H228757   1.773   3.430   0.816 -1.5979 -2.4647  1.5689
 2448TIP3   OH228758   4.152   6.621   2.759 -0.1018 -0.3570  0.1500
 2448TIP3    H128759   4.173   6.548   2.701  1.3359 -0.2926  0.5439
 2448TIP3    H228760   4.236   6.665   2.774 -0.7952  0.8790  0.5993
 2449TIP3   OH228761   0.062   0.447  14.014 -0.3895  0.0600 -0.4006
 2449TIP3    H128762   0.018   0.437  13.930  0.9342  1.9211 -1.3949
 2449TIP3    H228763   0.109   0.530  14.006 -0.9189  0.7432  2.5065
 2450TIP3   OH228764   5.667   1.313   5.766 -0.0251  0.8101 -0.5940
 2450TIP3    H128765   5.743   1.367   5.785  0.5405  0.0099 -0.5522
 2450TIP3    H228766   5.598   1.349   5.822  0.4858  1.1561 -0.1769
 2451TIP3   OH228767   1.677   6.231   2.381  0.0622 -0.3929  0.3148
 2451TIP3    H128768   1.601   6.201   2.430 -0.0044  1.1595  1.2196
 2451TIP3    H228769   1.653   6.219   2.289 -0.7985 -1.0023  0.6054
 2452TIP3   OH228770   6.701   3.207  13.714  0.6114 -0.2600  0.1929
 2452TIP3    H128771   6.658   3.292  13.721 -1.6187 -1.2190 -0.8043
 2452TIP3    H228772   6.735   3.190  13.801 -0.9891  0.6379  1.0418
 2453TIP3   OH228773   5.130   4.570  11.821 -0.4882  0.3892  0.0099
 2453TIP3    H128774   5.071   4.629  11.774 -0.3629  1.9513  1.7003
 2453TIP3    H228775   5.217   4.587  11.783 -0.3873  1.6365  0.7557
 2454TIP3   OH228776   4.204   6.339   4.230  0.4894 -0.2546 -1.7123
 2454TIP3    H128777   4.129   6.358   4.174 -0.3803  0.4168 -0.3782
 2454TIP3    H228778   4.256   6.419   4.227 -0.5203  0.4930 -0.1335
 2455TIP3   OH228779   6.629   2.796  13.084 -0.3707  0.0965  0.0985
 2455TIP3    H128780   6.657   2.810  13.174  0.7537  0.1081 -0.2407
 2455TIP3    H228781   6.601   2.882  13.053  1.3363  0.5710 -0.2439
 2456TIP3   OH228782   4.832   1.763  12.049  0.1907 -0.1225  0.3092
 2456TIP3    H128783   4.886   1.842  12.057 -1.6267  1.1627  0.5228
 2456TIP3    H228784   4.782   1.759  12.131 -0.6303 -0.8012 -0.2036
 2457TIP3   OH228785   2.566   3.668  15.691 -0.8657  0.1764 -0.2011
 2457TIP3    H128786   2.473   3.671  15.710 -0.9582 -0.5402 -0.5340
 2457TIP3    H228787   2.588   3.575  15.691 -0.2162  0.3243 -0.4546
 2458TIP3   OH228788   0.134   4.068   1.320 -0.1289 -0.3064  0.3540
 2458TIP3    H128789   0.047   4.100   1.345  1.0603  2.4810  1.4273
 2458TIP3    H228790   0.187   4.077   1.399  1.4048 -0.8776 -0.5546
 2459TIP3   OH228791   0.984   3.106   5.306  0.4265  0.1198 -0.2405
 2459TIP3    H128792   0.893   3.133   5.321  0.7506  0.7190  0.7362
 2459TIP3    H228793   1.001   3.041   5.374 -0.3320 -2.7136 -2.5360
 2460TIP3   OH228794   5.929   4.158  11.915 -0.2822  0.0444 -0.4694
 2460TIP3    H128795   5.908   4.206  11.994 -0.9994 -0.9318 -0.0501
 2460TIP3    H228796   5.922   4.223  11.845 -2.4893  0.3111 -0.0851
 2461TIP3   OH228797   1.737   2.240  12.473  0.1398  0.1361 -0.2359
 2461TIP3    H128798   1.806   2.306  12.477  0.9811 -0.6556 -1.0880
 2461TIP3    H228799   1.781   2.158  12.495 -0.8296 -0.1892  0.5592
 2462TIP3   OH228800   5.364   5.051  16.705  0.2975  0.2134  0.0112
 2462TIP3    H128801   5.387   4.983  16.769 -0.7953 -0.4629 -0.2875
 2462TIP3    H228802   5.317   5.004  16.636  0.9853  1.0173 -1.0377
 2463TIP3   OH228803   5.693   3.414  14.642 -0.0389 -0.7162 -0.0855
 2463TIP3    H128804   5.609   3.419  14.687  0.2755  1.0028  0.3740
 2463TIP3    H228805   5.750   3.367  14.703 -0.4880 -1.3456 -0.1397
 2464TIP3   OH228806   4.635   2.741  13.915 -0.0367 -0.5058  0.5299
 2464TIP3    H128807   4.612   2.777  14.000 -2.4754 -2.3045  0.7577
 2464TIP3    H228808   4.586   2.658  13.910  0.5780 -0.8161 -2.3139
 2465TIP3   OH228809   4.114   0.468   3.351 -0.2215 -0.1137 -0.3944
 2465TIP3    H128810   4.041   0.416   3.385 -1.1513  0.5149 -1.3919
 2465TIP3    H228811   4.167   0.405   3.302  1.6958 -1.2800  2.8387
 2466TIP3   OH228812   3.168   4.441  16.391 -0.1388  0.3418 -0.3302
 2466TIP3    H128813   3.164   4.345  16.394  1.1966  0.2908  1.1159
 2466TIP3    H228814   3.145   4.464  16.301 -1.0853 -1.2946 -0.5382
 2467TIP3   OH228815   2.874   6.148   0.349  0.3141 -0.0235  0.7570
 2467TIP3    H128816   2.896   6.240   0.366 -0.0019 -0.1017  1.6161
 2467TIP3    H228817   2.908   6.100   0.424  0.5108 -0.6255  0.2953
 2468TIP3   OH228818   5.083   3.662  11.691 -0.1436  0.8666  0.3980
 2468TIP3    H128819   4.988   3.672  11.687 -0.4789 -2.0090 -1.6471
 2468TIP3    H228820   5.097   3.604  11.766 -0.2559 -0.2679 -0.4226
 2469TIP3   OH228821   5.407   4.395  11.760  0.2927  0.2886  0.1629
 2469TIP3    H128822   5.336   4.337  11.788  1.7992 -0.4430  2.8592
 2469TIP3    H228823   5.446   4.351  11.684 -1.6493  0.3832 -0.9531
 2470TIP3   OH228824   6.510   5.018   4.728 -0.5156 -0.2246  0.1742
 2470TIP3    H128825   6.508   4.923   4.733  1.8724 -0.6845 -3.7552
 2470TIP3    H228826   6.440   5.040   4.666  1.1023  0.1509 -1.5939
 2471TIP3   OH228827   5.998   1.203   3.747 -0.0227 -0.2191 -0.2181
 2471TIP3    H128828   5.950   1.120   3.749 -0.9222  0.2729  2.0429
 2471TIP3    H228829   5.998   1.232   3.838 -0.1599  2.5066 -1.0125
 2472TIP3   OH228830   4.061   1.850  17.195 -0.1291 -0.0246 -0.3496
 2472TIP3    H128831   4.134   1.807  17.241 -1.4623 -0.8985  1.0414
 2472TIP3    H228832   4.045   1.930  17.246  1.1847  1.2892 -1.8959
 2473TIP3   OH228833   4.423   5.041  14.465  0.3912  0.4800 -0.0649
 2473TIP3    H128834   4.439   5.025  14.372  0.1512  0.4379 -0.0991
 2473TIP3    H228835   4.508   5.024  14.507 -0.2005 -2.6121  0.1281
 2474TIP3   OH228836   1.880   0.800   5.796  0.4584  0.4189 -0.2174
 2474TIP3    H128837   1.825   0.752   5.735  1.5930 -0.5913 -0.4824
 2474TIP3    H228838   1.900   0.883   5.751  0.3491  0.1691 -0.7303
 2475TIP3   OH228839   2.046   0.369  16.449 -0.7740 -0.1403 -0.4573
 2475TIP3    H128840   2.097   0.426  16.392 -1.4945  0.2125 -0.7593
 2475TIP3    H228841   2.110   0.304  16.480 -0.3325 -0.2772 -1.5699
 2476TIP3   OH228842   1.935   2.991  10.774  0.4646  0.1357  0.6162
 2476TIP3    H128843   1.954   3.038  10.855  0.4599 -1.1048  1.3623
 2476TIP3    H228844   2.019   2.987  10.728  0.7193 -0.1776  1.1115
 2477TIP3   OH228845   1.089   4.253  15.101  0.1101 -0.1084 -0.1862
 2477TIP3    H128846   1.091   4.338  15.147  0.8331 -0.7929  1.1207
 2477TIP3    H228847   0.996   4.235  15.089 -0.0645  0.7029 -0.1576
 2478TIP3   OH228848   0.886   1.906  13.366  0.1945 -0.3453  0.3145
 2478TIP3    H128849   0.794   1.892  13.342  0.1632  1.9907 -1.1998
 2478TIP3    H228850   0.882   1.970  13.437  0.6421 -1.1204  1.0561
 2479TIP3   OH228851   1.161   2.523   2.694  0.0419  0.3539 -0.2452
 2479TIP3    H128852   1.107   2.444   2.703 -1.7855  1.2393 -2.5295
 2479TIP3    H228853   1.221   2.503   2.622 -0.6241  1.0908 -1.0308
 2480TIP3   OH228854   2.267   3.069   5.005 -0.3581  0.4557  0.4981
 2480TIP3    H128855   2.335   3.136   5.014 -0.9794  1.0142  1.0685
 2480TIP3    H228856   2.293   3.021   4.926  1.0077  0.2931  1.0125
 2481TIP3   OH228857   5.884   3.318   4.514 -0.4166  0.1742 -0.0926
 2481TIP3    H128858   5.839   3.387   4.564 -1.5696 -0.4345 -0.2622
 2481TIP3    H228859   5.953   3.287   4.573 -1.5105 -0.2707  0.9985
 2482TIP3   OH228860   1.628   5.286  14.690  0.2929  0.2957  0.1065
 2482TIP3    H128861   1.637   5.285  14.595  0.5150 -1.5236  0.1120
 2482TIP3    H228862   1.571   5.212  14.710  2.2058 -0.9104  1.5247
 2483TIP3   OH228863   0.925   2.342   5.302 -0.1345  0.2665 -0.5695
 2483TIP3    H128864   0.902   2.397   5.227  0.5263 -0.3936 -1.2751
 2483TIP3    H228865   0.841   2.310   5.335 -0.3737 -0.6241 -1.9560
 2484TIP3   OH228866   0.622   1.996   4.071  0.3646 -0.5044  0.1474
 2484TIP3    H128867   0.581   2.049   4.139  0.2677  0.9291 -0.9734
 2484TIP3    H228868   0.558   1.928   4.051  0.1471 -0.5771  1.0522
 2485TIP3   OH228869   4.695   5.333  13.495 -0.7484  0.3675  0.8811
 2485TIP3    H128870   4.727   5.412  13.539 -1.4056  0.5682  1.0044
 2485TIP3    H228871   4.707   5.263  13.560 -1.3432  0.5915  1.2373
 2486TIP3   OH228872   3.449   5.162   1.749  0.3349  0.1814  0.4318
 2486TIP3    H128873   3.439   5.232   1.813  0.0286 -0.2453  0.8627
 2486TIP3    H228874   3.373   5.172   1.691  0.3904  0.3163  0.3818
 2487TIP3   OH228875   2.774   5.896  14.003 -0.2253  0.2648 -0.0355
 2487TIP3    H128876   2.789   5.989  13.984 -1.2040  0.8066  1.6637
 2487TIP3    H228877   2.788   5.889  14.098  2.6287 -1.9126 -0.4742
 2488TIP3   OH228878   5.050   5.431  10.294  0.6197  0.1372 -0.0023
 2488TIP3    H128879   4.956   5.413  10.299  0.5436  0.6841  0.7495
 2488TIP3    H228880   5.067   5.491  10.367  1.4076  0.6850 -0.6120
 2489TIP3   OH228881   2.038   6.510  13.024  0.0244  0.6076  0.4075
 2489TIP3    H128882   2.000   6.495  13.110  0.8592 -1.2899  0.5032
 2489TIP3    H228883   2.132   6.495  13.036  0.0794 -0.3100 -0.9178
 2490TIP3   OH228884   1.483   4.290   2.275 -0.2600 -0.8439  0.0354
 2490TIP3    H128885   1.429   4.315   2.200 -0.1597 -0.7516 -0.0074
 2490TIP3    H228886   1.572   4.316   2.249 -0.2634 -0.5602  0.2988
 2491TIP3   OH228887   2.603   6.255  10.680 -0.5957  0.4328 -0.1550
 2491TIP3    H128888   2.691   6.272  10.646 -1.3874  0.9144 -2.1085
 2491TIP3    H228889   2.586   6.328  10.739  0.1861  0.5209 -0.0273
 2492TIP3   OH228890   2.114   0.866  12.314 -0.0288 -0.0681  0.1599
 2492TIP3    H128891   2.136   0.925  12.242 -1.0926  1.0128  0.6922
 2492TIP3    H228892   2.177   0.887  12.383 -1.1372  1.3251  0.7895
 2493TIP3   OH228893   5.331   0.168  13.566 -0.4052 -0.2038 -0.5212
 2493TIP3    H128894   5.418   0.207  13.569 -0.5439  0.0611  0.3783
 2493TIP3    H228895   5.332   0.113  13.488  0.5272 -0.1141 -0.5806
 2494TIP3   OH228896   1.608   4.868   4.753 -0.1546 -0.5734  0.4108
 2494TIP3    H128897   1.532   4.854   4.809  0.9097 -1.5977  1.6635
 2494TIP3    H228898   1.585   4.828   4.670 -1.2900 -0.1318  0.4964
 2495TIP3   OH228899   1.028   1.453  17.215  0.6874 -0.3668  0.1267
 2495TIP3    H128900   0.985   1.538  17.205 -0.2681 -0.8413  0.0256
 2495TIP3    H228901   0.967   1.390  17.176  1.8100 -0.9995 -0.6775
 2496TIP3   OH228902   5.648   3.408  12.716  0.5230  0.5229  0.2292
 2496TIP3    H128903   5.554   3.408  12.701  0.0476  0.0139  2.7149
 2496TIP3    H228904   5.679   3.329  12.673 -0.3528  0.1616  0.2360
 2497TIP3   OH228905   0.213   4.261   2.811 -0.4235  0.3455  0.0487
 2497TIP3    H128906   0.269   4.310   2.872  0.9890 -0.0733 -0.8629
 2497TIP3    H228907   0.185   4.327   2.747  1.0002  0.1349 -0.8429
 2498TIP3   OH228908   3.414   4.883   3.923 -0.3595 -0.2287  1.3201
 2498TIP3    H128909   3.471   4.960   3.933  0.4457 -0.4592 -0.9929
 2498TIP3    H228910   3.392   4.858   4.013 -0.0303  2.2355  2.1636
 2499TIP3   OH228911   3.958   6.383   5.666  0.5676 -0.2506  0.0106
 2499TIP3    H128912   3.877   6.335   5.685 -0.0064  0.8621  0.5005
 2499TIP3    H228913   3.938   6.435   5.588 -0.6153  2.9682  2.2028
 2500TIP3   OH228914   3.841   0.341   4.580  0.0814  0.2154 -0.0966
 2500TIP3    H128915   3.889   0.327   4.662  2.4028 -0.3837 -1.4437
 2500TIP3    H228916   3.778   0.269   4.577  2.5061 -2.0874 -0.4548
 2501TIP3   OH228917   3.812   3.869   5.677  0.2171 -0.4861  0.5999
 2501TIP3    H128918   3.765   3.931   5.621  0.8245  1.0643  1.7443
 2501TIP3    H228919   3.743   3.816   5.717 -0.2821 -0.9253 -0.7929
 2502TIP3   OH228920   2.919   0.322  16.597 -0.1841  0.1768 -0.2221
 2502TIP3    H128921   2.942   0.244  16.648 -2.0413  0.0742  0.5141
 2502TIP3    H228922   2.985   0.324  16.527  0.6026 -1.3856  0.4106
 2503TIP3   OH228923   6.314   5.262  15.008  0.4908  0.5314  0.0940
 2503TIP3    H128924   6.353   5.255  15.095  0.4659 -0.2484  0.0506
 2503TIP3    H228925   6.258   5.185  15.000 -0.3842  1.1711 -0.1845
 2504TIP3   OH228926   3.392   1.272   0.592 -0.1876  0.0023  0.2328
 2504TIP3    H128927   3.351   1.295   0.675 -1.3553  2.0966 -0.8462
 2504TIP3    H228928   3.441   1.350   0.567 -2.0859  0.4952 -2.3208
 2505TIP3   OH228929   3.062   5.233  11.540  0.4946  0.0854 -0.0426
 2505TIP3    H128930   2.990   5.170  11.545 -0.8728  1.5387 -0.5442
 2505TIP3    H228931   3.128   5.190  11.486 -0.9857 -0.4219 -1.5448
 2506TIP3   OH228932   5.803   6.433  12.007 -0.1858  0.5469 -0.5625
 2506TIP3    H128933   5.741   6.504  11.989 -0.9501  0.4179  1.3437
 2506TIP3    H228934   5.820   6.439  12.101  2.3450  0.2552 -0.9286
 2507TIP3   OH228935   4.297   2.840  13.744 -0.5890 -0.3088  0.2370
 2507TIP3    H128936   4.275   2.902  13.674 -1.1312 -0.2096  0.4914
 2507TIP3    H228937   4.282   2.888  13.825 -0.4675 -0.5905  0.4302
 2508TIP3   OH228938   3.731   1.866   0.933 -0.0775 -0.5641 -0.1997
 2508TIP3    H128939   3.660   1.926   0.910 -0.1612 -0.4866  0.2560
 2508TIP3    H228940   3.807   1.899   0.884 -0.2645 -0.4384 -0.4090
 2509TIP3   OH228941   4.058   0.068   3.432  0.4165 -0.3410 -0.2055
 2509TIP3    H128942   4.131   0.046   3.489  2.0234 -0.0399 -2.0290
 2509TIP3    H228943   4.060   0.163   3.425  0.0921 -0.3550 -0.5592
 2510TIP3   OH228944   3.771   0.635  11.241  0.3194  0.1989 -0.0793
 2510TIP3    H128945   3.844   0.640  11.179 -1.5117 -2.3635 -2.6830
 2510TIP3    H228946   3.718   0.712  11.221 -0.0147 -0.3615 -1.4724
 2511TIP3   OH228947   1.167   3.182   3.568  0.0957 -0.1278  0.0426
 2511TIP3    H128948   1.219   3.223   3.637  2.1374 -2.5998  0.1074
 2511TIP3    H228949   1.172   3.244   3.495  0.9426  0.8799  0.9264
 2512TIP3   OH228950   0.884   3.042   0.600  0.3562  0.0031 -0.1739
 2512TIP3    H128951   0.843   3.106   0.542 -0.8263 -0.2594  0.3486
 2512TIP3    H228952   0.945   3.094   0.653  0.4054  0.4691 -0.6813
 2513TIP3   OH228953   1.999   3.700   5.846 -0.1064 -0.5345  1.1649
 2513TIP3    H128954   1.988   3.786   5.886  1.7286  0.4718 -0.2883
 2513TIP3    H228955   1.929   3.694   5.781  2.4494  2.2106 -2.2916
 2514TIP3   OH228956   3.413   4.939  15.102  0.1946 -0.8830  0.6147
 2514TIP3    H128957   3.441   5.030  15.102  0.8759 -1.0867  0.2511
 2514TIP3    H228958   3.412   4.914  15.010  0.2168 -1.3002  0.7244
 2515TIP3   OH228959   4.591   4.224   5.159 -0.5671  0.1977  0.6389
 2515TIP3    H128960   4.612   4.188   5.245 -0.6123 -1.5357 -0.0386
 2515TIP3    H228961   4.676   4.248   5.122 -0.2713 -1.3525  0.2296
 2516TIP3   OH228962   3.323   1.247   0.172 -0.0004 -0.9679 -0.6025
 2516TIP3    H128963   3.416   1.241   0.154 -0.3072 -3.0342 -1.8272
 2516TIP3    H228964   3.282   1.246   0.086 -1.1443  1.4513 -0.1608
 2517TIP3   OH228965   5.393   1.872   6.678 -0.0219  0.6417  0.9497
 2517TIP3    H128966   5.299   1.868   6.660  0.5445  0.7268 -2.6068
 2517TIP3    H228967   5.414   1.965   6.678  0.5772  0.6071 -2.1689
 2518TIP3   OH228968   0.607   4.721   6.543  0.1870 -0.4127 -0.2745
 2518TIP3    H128969   0.692   4.687   6.568  0.4017  0.2352 -0.1001
 2518TIP3    H228970   0.544   4.657   6.575  0.6871 -1.9369 -2.1521
 2519TIP3   OH228971   1.174   2.115   5.721  0.3255  0.0851 -0.1429
 2519TIP3    H128972   1.143   2.117   5.630  0.0584 -1.1539 -0.1024
 2519TIP3    H228973   1.266   2.143   5.716  0.1004  0.7529 -0.6871
 2520TIP3   OH228974   3.071   0.080  11.407 -0.0238  0.1410 -0.1356
 2520TIP3    H128975   2.993   0.062  11.355 -0.7432 -1.3459  1.3221
 2520TIP3    H228976   3.062   0.171  11.435  0.0826  0.7699 -2.0318
 2521TIP3   OH228977   4.992   1.417  11.457  0.3890 -0.0360 -0.3228
 2521TIP3    H128978   4.960   1.380  11.375  1.1089 -2.0534  0.2615
 2521TIP3    H228979   4.932   1.385  11.523  0.0260  1.2878  0.0151
 2522TIP3   OH228980   6.402   4.407  11.252  0.2325  0.2656 -0.5168
 2522TIP3    H128981   6.378   4.461  11.177 -3.0300  2.6542  1.9418
 2522TIP3    H228982   6.420   4.470  11.322  0.5031 -1.8331  1.4235
 2523TIP3   OH228983   6.257   3.829  10.962  0.3663  0.1730 -0.0378
 2523TIP3    H128984   6.231   3.843  10.871 -2.1602  0.8383  0.7097
 2523TIP3    H228985   6.292   3.740  10.964  1.2589  0.4492 -1.7981
 2524TIP3   OH228986   0.909   6.079   4.363 -0.3658 -0.0079 -0.2640
 2524TIP3    H128987   0.928   6.165   4.401 -0.0983  1.2052 -2.9521
 2524TIP3    H228988   0.954   6.017   4.421  2.0113  1.9091  0.0934
 2525TIP3   OH228989   2.661   3.749   4.037 -0.1671 -0.0245 -1.1416
 2525TIP3    H128990   2.666   3.737   3.942 -0.1499 -1.7399 -0.9682
 2525TIP3    H228991   2.677   3.661   4.072  0.0527  0.6263  0.4612
 2526TIP3   OH228992   6.553   2.720  12.738  0.1901 -0.4485 -0.3062
 2526TIP3    H128993   6.467   2.731  12.780  0.2122  0.4590 -0.4728
 2526TIP3    H228994   6.606   2.677  12.805 -0.1260 -0.1506  0.1491
 2527TIP3   OH228995   5.061   4.530  10.854 -0.4547  0.0833 -0.4006
 2527TIP3    H128996   4.997   4.463  10.830 -1.7066  0.5618  1.4001
 2527TIP3    H228997   5.011   4.612  10.852  0.5115  0.6861 -0.4846
 2528TIP3   OH228998   0.367   6.507  11.637 -0.0459  0.6248 -0.3580
 2528TIP3    H128999   0.304   6.537  11.703  0.8784 -0.9149  1.2952
 2528TIP3    H229000   0.418   6.440  11.681 -0.2014 -1.4212 -3.0475
 2529TIP3   OH229001   4.289   4.885   0.449  0.0852 -0.7216 -0.0501
 2529TIP3    H129002   4.285   4.880   0.354 -1.9483 -1.0520 -0.0029
 2529TIP3    H229003   4.284   4.978   0.469  3.1395 -0.4106 -0.2509
 2530TIP3   OH229004   3.366   5.586   0.915 -0.0725 -0.1961 -0.4116
 2530TIP3    H129005   3.291   5.538   0.952  0.5752  1.1462  2.9474
 2530TIP3    H229006   3.360   5.673   0.954  1.5593  0.9410 -2.5192
 2531TIP3   OH229007   2.767   4.122  14.949 -0.2154  0.5013 -0.1231
 2531TIP3    H129008   2.734   4.156  14.866  0.8954  1.5507 -0.1599
 2531TIP3    H229009   2.704   4.054  14.974 -2.0854  2.0460 -0.4352
 2532TIP3   OH229010   5.545   5.573   3.729  0.0250 -0.6906 -0.1175
 2532TIP3    H129011   5.455   5.557   3.701 -0.3373  1.5538 -0.4744
 2532TIP3    H229012   5.597   5.505   3.686 -1.5122 -2.1905  0.3122
 2533TIP3   OH229013   0.427   0.698   3.667  0.4343  0.0862  0.0398
 2533TIP3    H129014   0.391   0.629   3.722 -0.0211  0.9352  0.8341
 2533TIP3    H229015   0.521   0.695   3.683  0.8625 -2.3842 -2.3248
 2534TIP3   OH229016   2.494   4.852  14.349  0.0844  0.4676 -0.1804
 2534TIP3    H129017   2.417   4.855  14.405  1.3764 -1.6174  1.9056
 2534TIP3    H229018   2.461   4.872  14.261 -2.3248  2.1757  1.0026
 2535TIP3   OH229019   0.676   4.110   5.846 -0.4842  0.0207 -0.2005
 2535TIP3    H129020   0.699   4.029   5.891 -1.3087  0.4812  1.1262
 2535TIP3    H229021   0.581   4.105   5.836 -0.3980  0.2700 -1.2407
 2536TIP3   OH229022   5.273   1.442  13.130  0.6007  0.5872  0.4429
 2536TIP3    H129023   5.179   1.428  13.120  0.9303 -1.5507 -0.2453
 2536TIP3    H229024   5.281   1.508  13.199 -1.3890  1.2124  0.1251
 2537TIP3   OH229025   2.571   6.589   4.983  0.4666 -0.0494  0.2272
 2537TIP3    H129026   2.593   6.592   5.076 -1.7043 -1.1415  0.8377
 2537TIP3    H229027   2.552   6.496   4.966  2.4454 -0.1966 -1.7602
 2538TIP3   OH229028   3.300   1.336   2.811 -0.0020  0.4835 -0.1909
 2538TIP3    H129029   3.299   1.298   2.724 -1.5685  1.8559 -0.8281
 2538TIP3    H229030   3.333   1.267   2.868  1.0744 -0.4329 -1.8510
 2539TIP3   OH229031   0.164   1.950  14.319  0.4545 -0.0636  0.0160
 2539TIP3    H129032   0.186   1.937  14.411 -0.3369 -1.9587 -0.0237
 2539TIP3    H229033   0.149   2.045  14.311 -1.0575 -0.0394  2.2189
 2540TIP3   OH229034   1.414   4.038  11.243 -0.3383 -0.3405 -0.4781
 2540TIP3    H129035   1.423   3.999  11.156 -1.8043  0.3789 -0.9907
 2540TIP3    H229036   1.405   4.132  11.226  0.9568  0.0029  0.5806
 2541TIP3   OH229037   1.727   5.944   5.740  0.0828  0.0422  0.4873
 2541TIP3    H129038   1.666   5.983   5.803  0.0912  1.8719 -0.5774
 2541TIP3    H229039   1.671   5.890   5.684 -0.3802  0.7218  0.2840
 2542TIP3   OH229040   2.293   2.521  13.066 -0.5924  0.0491 -0.1945
 2542TIP3    H129041   2.260   2.461  12.998  3.9082 -1.8534 -1.0953
 2542TIP3    H229042   2.327   2.463  13.134  1.3767  1.6299  0.2568
 2543TIP3   OH229043   3.774   0.839   3.450  0.2936  0.0549  1.1756
 2543TIP3    H129044   3.737   0.887   3.524 -1.7734  0.1028  0.1735
 2543TIP3    H229045   3.709   0.848   3.380  2.0816 -0.1851 -0.5900
 2544TIP3   OH229046   0.028   5.999  11.311  0.1859 -0.5889  0.2139
 2544TIP3    H129047   0.034   5.926  11.373 -2.7307  0.5921  2.1215
 2544TIP3    H229048  -0.055   5.984  11.265  0.5851  0.4404 -0.9024
 2545TIP3   OH229049   0.275   1.468   1.566 -0.5418  1.6115 -0.0106
 2545TIP3    H129050   0.220   1.537   1.604  0.8812  2.3697  0.7487
 2545TIP3    H229051   0.340   1.449   1.634 -0.5628 -0.1009 -0.4296
 2546TIP3   OH229052   5.350   0.222   5.119  0.2782 -0.0450 -0.3851
 2546TIP3    H129053   5.384   0.236   5.031  0.5350 -0.3897 -0.3447
 2546TIP3    H229054   5.255   0.225   5.109  0.3072  0.0918 -0.6414
 2547TIP3   OH229055   4.510   0.469   2.704  0.4220  0.3980 -0.2184
 2547TIP3    H129056   4.588   0.417   2.682 -1.2890 -2.8889  0.8171
 2547TIP3    H229057   4.532   0.510   2.788  1.3597  0.3359 -0.4156
 2548TIP3   OH229058   1.160   4.044  12.492  1.1209  0.0030  0.1642
 2548TIP3    H129059   1.127   4.133  12.497  1.9388  0.3660 -0.7678
 2548TIP3    H229060   1.139   4.006  12.577 -0.4321  0.6521  0.0995
 2549TIP3   OH229061   2.700   4.081   3.045  0.7409 -0.5626 -0.1172
 2549TIP3    H129062   2.607   4.059   3.054  0.6802 -0.2851 -0.0700
 2549TIP3    H229063   2.701   4.172   3.016  0.9762 -0.8932 -1.1934
 2550TIP3   OH229064   3.446   5.748  13.847  0.4250 -0.2825 -0.0224
 2550TIP3    H129065   3.468   5.840  13.858 -1.8539  0.0968  2.0974
 2550TIP3    H229066   3.358   5.749  13.808  0.7517 -1.6092 -0.8677
 2551TIP3   OH229067   5.316   2.977   3.263  0.1434 -0.3060 -0.3623
 2551TIP3    H129068   5.264   2.904   3.299 -0.1738 -0.5109 -1.2111
 2551TIP3    H229069   5.334   3.033   3.339 -0.2768 -0.8687  0.1654
 2552TIP3   OH229070   6.003   4.257  15.454 -0.2390 -0.5639 -0.1362
 2552TIP3    H129071   6.086   4.261  15.406  0.6787 -1.5146  1.2911
 2552TIP3    H229072   5.937   4.250  15.386  0.6541  2.0047 -1.4041
 2553TIP3   OH229073   1.243   5.142   2.832 -0.0553  0.4544  0.0407
 2553TIP3    H129074   1.170   5.091   2.796 -0.7786  1.7859 -0.4251
 2553TIP3    H229075   1.217   5.233   2.821  1.7474  0.9673 -0.2799
 2554TIP3   OH229076   3.939   4.791  11.617  0.1814 -0.1405  0.2474
 2554TIP3    H129077   3.980   4.707  11.597 -1.3143 -0.6679 -0.7894
 2554TIP3    H229078   3.861   4.768  11.668 -0.1962  0.6113  0.0306
 2555TIP3   OH229079   3.447   1.902   3.614  0.3820  0.3073  0.2053
 2555TIP3    H129080   3.517   1.879   3.553  0.2454 -0.1749  0.2242
 2555TIP3    H229081   3.489   1.961   3.677  0.9240 -0.4360  0.5585
 2556TIP3   OH229082   4.011   6.236  11.182  0.1190 -0.0121 -0.0603
 2556TIP3    H129083   3.966   6.259  11.101  1.5731  1.3900 -0.5291
 2556TIP3    H229084   4.092   6.193  11.153  1.2797  1.6673  0.5538
 2557TIP3   OH229085   0.459   3.925   5.397  0.5510 -0.3912  0.2223
 2557TIP3    H129086   0.518   4.001   5.397  0.9393 -0.6497 -1.3365
 2557TIP3    H229087   0.515   3.851   5.421  0.9955 -0.6841 -1.5427
 2558TIP3   OH229088   3.172   5.890  11.700  0.3050  0.0858 -0.2489
 2558TIP3    H129089   3.105   5.823  11.700  0.6667 -0.2780 -0.5516
 2558TIP3    H229090   3.241   5.856  11.643  0.6980  0.4998 -0.0322
 2559TIP3   OH229091   1.495   4.032   1.227  0.1555  0.1694 -0.0627
 2559TIP3    H129092   1.495   3.947   1.272  0.6411  0.3287  0.2460
 2559TIP3    H229093   1.452   4.015   1.143  1.3193 -0.6494 -0.5160
 2560TIP3   OH229094   3.165   2.605   4.462 -0.2896  0.1783  0.0330
 2560TIP3    H129095   3.128   2.527   4.502 -0.9452  0.4997  0.0654
 2560TIP3    H229096   3.158   2.591   4.368  0.6132 -0.2736  0.0163
 2561TIP3   OH229097   5.922   6.450   2.511 -0.6345 -0.5083  0.0309
 2561TIP3    H129098   6.006   6.483   2.481 -0.9988  0.7352  0.3101
 2561TIP3    H229099   5.943   6.373   2.564  0.0322 -2.8274 -3.3106
 2562TIP3   OH229100   1.206   1.887  12.477 -0.0195  0.5161  0.4018
 2562TIP3    H129101   1.264   1.963  12.477  0.1564  0.5455 -3.0091
 2562TIP3    H229102   1.179   1.878  12.386 -0.7707 -2.9919  0.8303
 2563TIP3   OH229103   5.569   1.573   2.795 -0.4512 -0.0842  0.3903
 2563TIP3    H129104   5.492   1.623   2.824  0.8038  1.0212  2.0063
 2563TIP3    H229105   5.617   1.634   2.739  0.8419  0.4232  1.9793
 2564TIP3   OH229106   4.690   0.948   1.576  1.1601  0.1035 -0.3142
 2564TIP3    H129107   4.694   0.878   1.641  0.8356  0.9012  0.5891
 2564TIP3    H229108   4.664   0.904   1.495  1.0966 -0.8369  0.2028
 2565TIP3   OH229109   3.840   3.174  13.109 -0.0895  0.1118  0.0608
 2565TIP3    H129110   3.870   3.103  13.167 -0.4091 -0.0975 -0.0283
 2565TIP3    H229111   3.921   3.217  13.081  0.0266  1.0553  1.6979
 2566TIP3   OH229112   3.353   3.356  16.463 -0.7551  0.3591 -0.1830
 2566TIP3    H129113   3.302   3.279  16.437 -0.8813  0.4202 -0.1211
 2566TIP3    H229114   3.440   3.322  16.483 -1.1612  0.0131  1.1530
 2567TIP3   OH229115   1.822   0.462  13.214  0.1531  0.6071 -0.6142
 2567TIP3    H129116   1.896   0.419  13.258  0.7383  0.2373 -1.9207
 2567TIP3    H229117   1.748   0.447  13.273  0.8002 -0.3338 -0.0073
 2568TIP3   OH229118   3.726   1.245  13.270  0.0079  0.1842  0.0174
 2568TIP3    H129119   3.659   1.190  13.310 -1.0494  1.0930 -0.4425
 2568TIP3    H229120   3.686   1.331  13.264  1.0582  0.6491 -0.6884
 2569TIP3   OH229121   3.330   4.131  17.169 -0.4833  0.1546 -0.2119
 2569TIP3    H129122   3.333   4.105  17.261  0.8596  0.3301 -0.1881
 2569TIP3    H229123   3.266   4.202  17.166 -0.5238  0.1558  0.5891
 2570TIP3   OH229124   3.835   3.779  17.306 -0.2741 -0.2781 -0.2281
 2570TIP3    H129125   3.806   3.688  17.305 -0.0398 -0.3727  0.5717
 2570TIP3    H229126   3.768   3.826  17.255 -0.1939 -0.9427 -0.9685
 2571TIP3   OH229127   2.537   4.838  15.853 -0.2512  0.6436 -0.5224
 2571TIP3    H129128   2.588   4.912  15.822  0.1703 -0.1165 -1.7004
 2571TIP3    H229129   2.595   4.793  15.915 -0.4134  1.1367 -0.0029
 2572TIP3   OH229130   2.812   4.979  17.120 -0.0839 -0.0819 -0.1981
 2572TIP3    H129131   2.722   5.011  17.114 -0.1575  0.0038  1.0670
 2572TIP3    H229132   2.861   5.032  17.057 -1.1629 -1.1719 -2.0527
 2573TIP3   OH229133   3.922   4.462   2.871 -0.0924 -0.7602 -0.4038
 2573TIP3    H129134   3.934   4.520   2.947  0.6956  0.5049 -1.4552
 2573TIP3    H229135   4.011   4.443   2.841 -0.4062 -0.5067 -1.5465
 2574TIP3   OH229136   3.588   3.029   4.727  0.1664  0.0248 -0.1030
 2574TIP3    H129137   3.582   3.090   4.654  1.6782 -0.0789 -0.3569
 2574TIP3    H229138   3.498   3.021   4.760 -0.6414 -0.2575 -2.2131
 2575TIP3   OH229139   6.458   0.893   5.018 -0.2751 -0.9758 -0.2043
 2575TIP3    H129140   6.484   0.866   4.931 -2.1961 -0.6346 -0.9325
 2575TIP3    H229141   6.512   0.970   5.036 -2.2459  1.1805 -2.6489
 2576TIP3   OH229142   4.465   4.273   0.086  0.0748 -0.3005  0.1740
 2576TIP3    H129143   4.504   4.346   0.133  3.0123 -2.2255  0.9713
 2576TIP3    H229144   4.379   4.262   0.127  0.8048  0.8088  2.1561
 2577TIP3   OH229145   2.384   1.217  13.381 -0.0454  0.0615 -0.1002
 2577TIP3    H129146   2.439   1.153  13.335  0.2605  0.0275  0.3022
 2577TIP3    H229147   2.389   1.190  13.473 -0.4721  0.2572 -0.0179
 2578TIP3   OH229148   3.558   0.296   2.979 -0.6361 -0.3534 -0.0888
 2578TIP3    H129149   3.645   0.257   2.991 -0.8672 -0.5504  1.0167
 2578TIP3    H229150   3.537   0.280   2.887  0.5209 -0.2565 -0.3803
 2579TIP3   OH229151   5.730   0.997  17.328 -0.0030 -0.4264 -0.2327
 2579TIP3    H129152   5.685   1.027  17.407  0.7950 -0.4190  0.2252
 2579TIP3    H229153   5.756   0.907  17.348 -1.2580 -1.0141 -1.1202
 2580TIP3   OH229154   0.020   1.073  14.611  0.2600  0.0448 -0.5603
 2580TIP3    H129155   0.028   0.980  14.593  0.5670  0.1621 -1.0494
 2580TIP3    H229156  -0.073   1.086  14.632  0.1420 -0.3050 -0.8601
 2581TIP3   OH229157   1.342   2.969   0.437 -0.5754  0.1199  0.3963
 2581TIP3    H129158   1.430   2.975   0.400 -0.5955 -2.3441 -0.2278
 2581TIP3    H229159   1.313   3.060   0.444  2.1858  1.0738  1.1183
 2582TIP3   OH229160   4.319   0.609  12.406  0.3954  0.5679  0.4537
 2582TIP3    H129161   4.304   0.602  12.311 -1.0538 -1.1874  0.7490
 2582TIP3    H229162   4.400   0.560  12.420  1.0713  1.5358  0.0470
 2583TIP3   OH229163   3.686   2.669   3.239 -0.2479  0.2842 -0.9672
 2583TIP3    H129164   3.649   2.747   3.198  1.5651  1.0107 -1.3062
 2583TIP3    H229165   3.760   2.645   3.183  0.1756 -0.7480 -0.0078
 2584TIP3   OH229166   3.778   5.770   0.394  0.2459  0.2699  0.1231
 2584TIP3    H129167   3.753   5.812   0.311  0.0563  0.3563  0.2241
 2584TIP3    H229168   3.730   5.819   0.461  0.8210  0.5476  0.3335
 2585TIP3   OH229169   6.540   4.462   3.069  0.1283  0.3079  0.7998
 2585TIP3    H129170   6.617   4.482   3.124  1.4199  1.1299 -1.1801
 2585TIP3    H229171   6.572   4.473   2.979 -1.8043 -1.3178 -0.1517
 2586TIP3   OH229172   5.598   2.170  14.378 -0.2015  0.2104 -0.2218
 2586TIP3    H129173   5.670   2.134  14.428 -0.2792  1.4318  0.8282
 2586TIP3    H229174   5.623   2.157  14.287  0.2891 -1.3884  0.1082
 2587TIP3   OH229175   3.798   4.023  16.139  0.1249 -0.5306 -0.0966
 2587TIP3    H129176   3.743   4.080  16.086  1.1348  0.4195 -0.1676
 2587TIP3    H229177   3.880   4.072  16.149  0.6424 -1.5287  0.7199
 2588TIP3   OH229178   6.266   4.078  11.562 -0.3959  0.4492 -0.3402
 2588TIP3    H129179   6.253   4.042  11.474  0.6967  1.5506 -0.9866
 2588TIP3    H229180   6.293   4.003  11.615  0.5684  0.0570 -1.3472
 2589TIP3   OH229181   5.378   1.398   4.353  0.3640  0.8413 -0.2611
 2589TIP3    H129182   5.341   1.310   4.361  1.8482  0.3466  2.1953
 2589TIP3    H229183   5.376   1.433   4.442  2.4421  2.1582 -0.6652
 2590TIP3   OH229184   5.783   5.189   4.322  0.8151  0.2363  0.1185
 2590TIP3    H129185   5.783   5.284   4.314 -1.9116  0.2463 -0.7003
 2590TIP3    H229186   5.733   5.158   4.247  0.0503 -1.7061  1.3391
 2591TIP3   OH229187   0.498   6.424   4.546 -0.4066  0.5073 -0.0658
 2591TIP3    H129188   0.406   6.409   4.526 -0.5646  0.4595  0.6935
 2591TIP3    H229189   0.540   6.431   4.460 -0.5563 -2.6565 -0.5143
 2592TIP3   OH229190   3.252   5.809   0.260 -0.0635  0.1163  0.4285
 2592TIP3    H129191   3.231   5.841   0.172  1.2790  0.3446  0.1702
 2592TIP3    H229192   3.176   5.756   0.285 -0.7202  0.5252 -0.6248
 2593TIP3   OH229193   6.175   1.312  11.291  0.2449  0.5215 -0.0252
 2593TIP3    H129194   6.215   1.396  11.311 -3.0224  1.6854  2.5672
 2593TIP3    H229195   6.198   1.257  11.366 -0.7570  0.3583  0.1682
 2594TIP3   OH229196   5.579   1.437   6.532 -0.0571 -0.9328  0.5281
 2594TIP3    H129197   5.515   1.493   6.576  1.1787  1.2236 -0.2742
 2594TIP3    H229198   5.658   1.446   6.584  0.4206 -1.1838 -0.1398
 2595TIP3   OH229199   1.182   1.308  11.255 -0.0846  0.8920  0.0388
 2595TIP3    H129200   1.226   1.274  11.178 -0.8428  0.1835 -0.0986
 2595TIP3    H229201   1.093   1.271  11.250  0.5658 -1.3426  2.5878
 2596TIP3   OH229202   2.790   1.423   5.132  0.3022 -0.1892  0.5111
 2596TIP3    H129203   2.856   1.485   5.100  1.0860 -2.1838 -2.1947
 2596TIP3    H229204   2.831   1.382   5.208  0.9765  0.6282  0.6049
 2597TIP3   OH229205   3.571   2.633  17.007 -0.4142 -0.2498  0.4616
 2597TIP3    H129206   3.491   2.580  17.002 -1.3573  1.2150 -1.7952
 2597TIP3    H229207   3.572   2.667  17.096 -1.8273 -1.0260  0.8110
 2598TIP3   OH229208   3.388   3.871  16.107  0.5008 -0.9664 -0.3718
 2598TIP3    H129209   3.329   3.849  16.035  0.5249  0.1682 -0.7515
 2598TIP3    H229210   3.441   3.792  16.120  0.4889 -1.1909 -1.5848
 2599TIP3   OH229211   2.546   4.195   2.439 -0.1401 -0.6359  0.6585
 2599TIP3    H129212   2.529   4.167   2.349 -1.4022  0.0953  0.6541
 2599TIP3    H229213   2.622   4.142   2.466  0.6205 -0.4592 -1.0073
 2600TIP3   OH229214   0.525   2.620   5.414  0.6136 -0.1866  0.4120
 2600TIP3    H129215   0.439   2.586   5.390  0.8707 -0.8316  0.3918
 2600TIP3    H229216   0.566   2.641   5.330  0.8247 -0.7439  0.3743
 2601TIP3   OH229217   2.996   0.565   2.893 -0.3957  0.1086  0.6474
 2601TIP3    H129218   3.036   0.652   2.901 -1.4751  0.9931 -2.2068
 2601TIP3    H229219   2.989   0.534   2.983  1.0067  2.5064  1.7018
 2602TIP3   OH229220   5.924   0.587  16.400  0.6816  0.1933  0.2336
 2602TIP3    H129221   5.991   0.653  16.418  0.2072  0.5600  0.7251
 2602TIP3    H229222   5.846   0.638  16.377  0.2320 -0.1736  0.8885
 2603TIP3   OH229223   2.731   0.982  11.421 -0.1236 -0.1265  0.4882
 2603TIP3    H129224   2.743   0.889  11.399 -0.7516  0.1740 -1.3793
 2603TIP3    H229225   2.718   1.024  11.336 -0.4476  1.5918  1.3518
 2604TIP3   OH229226   6.072   1.797  12.745 -0.0400  0.3395  0.2640
 2604TIP3    H129227   6.053   1.881  12.703 -1.2225  0.1298  0.3386
 2604TIP3    H229228   6.161   1.775  12.717 -0.1101  1.1093 -0.5911
 2605TIP3   OH229229   5.017   4.836   4.821  0.3012  0.2220  0.5627
 2605TIP3    H129230   4.992   4.779   4.749 -0.3107  0.9475  0.1973
 2605TIP3    H229231   4.936   4.850   4.871  0.1673  1.7230 -0.0263
 2606TIP3   OH229232   6.368   2.251   6.031 -0.3172 -0.4867 -0.3830
 2606TIP3    H129233   6.384   2.335   6.073  2.1209 -1.3592  0.6354
 2606TIP3    H229234   6.325   2.198   6.097 -1.3037 -0.2555 -0.8224
 2607TIP3   OH229235   5.222   6.284  14.016  0.3510  0.2614 -0.1548
 2607TIP3    H129236   5.286   6.252  13.953  0.4748  0.1280  0.0401
 2607TIP3    H229237   5.211   6.213  14.079  1.1013  0.8287  0.6405
 2608TIP3   OH229238   6.765   2.368   2.308  0.0253 -0.3722 -0.5302
 2608TIP3    H129239   6.772   2.463   2.306  2.0404 -0.4820 -0.5823
 2608TIP3    H229240   6.675   2.351   2.337  0.3045  1.5505  1.7652
 2609TIP3   OH229241   5.923   2.298  16.583  0.3392 -0.0547  0.3375
 2609TIP3    H129242   5.981   2.231  16.618 -0.9008 -0.6376  1.3536
 2609TIP3    H229243   5.966   2.381  16.604  1.0020 -0.4802  0.6806
 2610TIP3   OH229244   0.389   5.839  15.682 -0.9746  0.2649 -0.2835
 2610TIP3    H129245   0.304   5.795  15.688  0.2126 -2.3267 -0.8546
 2610TIP3    H229246   0.453   5.768  15.692  1.1590  2.2601  1.1514
 2611TIP3   OH229247   4.902   2.471   4.009 -0.2605 -0.2646 -0.3213
 2611TIP3    H129248   4.944   2.555   3.992 -0.3293 -0.5600 -2.1421
 2611TIP3    H229249   4.810   2.485   3.986 -0.3005 -0.7897 -0.4905
 2612TIP3   OH229250   3.944   5.459  11.361  0.6791  0.0132 -0.4906
 2612TIP3    H129251   3.880   5.399  11.400 -0.1443  1.8736  1.2544
 2612TIP3    H229252   4.010   5.403  11.323 -0.5055 -1.9928  0.2465
 2613TIP3   OH229253   2.893   2.495   0.607  0.5150 -0.0570  0.0762
 2613TIP3    H129254   2.967   2.475   0.549 -0.0684  0.1460 -0.7637
 2613TIP3    H229255   2.850   2.411   0.619  0.5425 -0.0711  0.0767
 2614TIP3   OH229256   1.952   5.989  14.299  0.9185 -0.4381  0.3070
 2614TIP3    H129257   1.899   6.055  14.345  2.0088  0.0005  0.9797
 2614TIP3    H229258   1.931   6.001  14.207  2.2418  1.9664  0.2302
 2615TIP3   OH229259   3.285   1.710   4.557  0.3063 -0.3368 -0.1282
 2615TIP3    H129260   3.302   1.670   4.642  1.8528  0.1547 -0.1856
 2615TIP3    H229261   3.201   1.672   4.530 -0.0059 -0.8260  1.4043
 2616TIP3   OH229262   5.555   1.522  16.623  0.3076  0.0725  0.3746
 2616TIP3    H129263   5.596   1.437  16.608 -0.5524 -0.0399 -1.6120
 2616TIP3    H229264   5.468   1.502  16.657  0.5460  0.2160  1.0934
 2617TIP3   OH229265   5.063   4.715  14.043  0.4377 -0.4550  0.0335
 2617TIP3    H129266   5.018   4.666  14.112  1.0401 -1.1011 -0.0312
 2617TIP3    H229267   5.136   4.659  14.017 -0.0733 -0.4558 -1.4874
 2618TIP3   OH229268   6.000   2.770  15.113 -0.3171  0.0075  0.1112
 2618TIP3    H129269   6.070   2.715  15.077 -1.5017 -1.1038 -0.5966
 2618TIP3    H229270   5.921   2.715  15.108 -1.3874  1.4566  0.2281
 2619TIP3   OH229271   3.735   2.093  16.911  0.1692  0.3202  0.4294
 2619TIP3    H129272   3.733   2.015  16.966 -0.5975 -1.0582 -1.4468
 2619TIP3    H229273   3.828   2.107  16.892  0.2912 -0.3525  0.5070
 2620TIP3   OH229274   0.969   1.465  13.626  0.6686  0.4012  0.1649
 2620TIP3    H129275   0.874   1.457  13.621  0.7155 -1.1895  1.0954
 2620TIP3    H229276   1.002   1.386  13.584  1.5988  1.0362 -0.3302
 2621TIP3   OH229277   6.514   4.488  12.724  0.5884  0.1476 -0.4232
 2621TIP3    H129278   6.519   4.583  12.707  2.7126  0.2185  0.2468
 2621TIP3    H229279   6.435   4.477  12.775 -0.8029  1.2568 -2.2033
 2622TIP3   OH229280   6.402   1.880  13.677 -0.3286 -0.6325  0.4835
 2622TIP3    H129281   6.490   1.916  13.687  0.2739 -1.2560 -2.0741
 2622TIP3    H229282   6.346   1.957  13.670  0.3416 -0.2045 -0.3102
 2623TIP3   OH229283   4.838   5.542  11.091  0.0945 -0.5419  0.0863
 2623TIP3    H129284   4.920   5.591  11.101  0.7004 -1.5887  0.4537
 2623TIP3    H229285   4.821   5.542  10.997  1.0203 -1.0839 -0.0942
 2624TIP3   OH229286   5.412   4.871  12.579 -0.3899 -0.1430 -0.8869
 2624TIP3    H129287   5.327   4.911  12.598  0.4214  1.0920  0.3659
 2624TIP3    H229288   5.416   4.795  12.638  0.2560  1.1049  0.7744
 2625TIP3   OH229289   0.085   0.603   3.672  0.0528 -0.4333 -0.6423
 2625TIP3    H129290  -0.004   0.596   3.635  0.3022  0.5546 -1.5002
 2625TIP3    H229291   0.129   0.523   3.644 -0.1889 -0.3327 -1.3316
 2626TIP3   OH229292   0.216   2.337   4.364 -0.2159 -0.0716  0.3486
 2626TIP3    H129293   0.292   2.311   4.417 -0.0950  0.5018  0.4698
 2626TIP3    H229294   0.255   2.378   4.286 -0.3765 -1.6201 -0.5896
 2627TIP3   OH229295   6.563   1.552   4.873  0.0234 -0.0668  0.8444
 2627TIP3    H129296   6.534   1.476   4.925 -0.5184 -0.8532 -0.5575
 2627TIP3    H229297   6.610   1.514   4.799  0.3349  1.0123  0.4684
 2628TIP3   OH229298   5.950   5.116   2.465  0.1482  0.0195  0.4326
 2628TIP3    H129299   6.003   5.174   2.519 -0.2430 -0.5153  1.4145
 2628TIP3    H229300   5.864   5.117   2.505 -0.5709  0.7150 -1.0269
 2629TIP3   OH229301   2.743   4.443   1.781 -0.1046 -0.5105 -0.6470
 2629TIP3    H129302   2.650   4.465   1.776 -0.2821 -0.4907  1.6792
 2629TIP3    H229303   2.788   4.527   1.775 -0.5500  0.1745  3.1163
 2630TIP3   OH229304   4.270   5.539  12.485  0.5830 -0.0072 -0.0256
 2630TIP3    H129305   4.277   5.630  12.455 -0.0200 -0.6416 -2.2729
 2630TIP3    H229306   4.267   5.487  12.405 -1.3132 -1.8586  1.1290
 2631TIP3   OH229307   6.507   1.459   2.716 -0.6319 -0.5254 -0.2498
 2631TIP3    H129308   6.501   1.496   2.628 -0.7583  0.5494  0.1956
 2631TIP3    H229309   6.596   1.423   2.722  0.8910  2.9982  0.5243
 2632TIP3   OH229310   3.110   5.424  14.013  0.3116  0.4294  0.2045
 2632TIP3    H129311   3.183   5.435  13.952 -1.1246  0.1148 -1.6543
 2632TIP3    H229312   3.067   5.344  13.983 -0.5300  0.3564  1.5630
 2633TIP3   OH229313   4.308   2.981  13.962 -0.1713  0.1718 -0.0921
 2633TIP3    H129314   4.400   3.006  13.956 -0.1811  0.1039 -0.6664
 2633TIP3    H229315   4.294   2.957  14.053  0.3262  0.3923  0.0410
 2634TIP3   OH229316   5.070   3.228  16.926 -0.5684  0.3180  0.1008
 2634TIP3    H129317   5.081   3.300  16.988 -1.4187  0.7137 -0.1842
 2634TIP3    H229318   5.067   3.149  16.980  1.9252  0.2904  0.3154
 2635TIP3   OH229319   3.638   2.272  17.212  0.1556  0.4058  0.0912
 2635TIP3    H129320   3.576   2.208  17.179 -2.3564  2.3109  0.7517
 2635TIP3    H229321   3.587   2.324  17.275  2.4320  2.1453  0.6354
 2636TIP3   OH229322   4.228   2.239   5.234 -0.5782  0.1587  0.6005
 2636TIP3    H129323   4.172   2.241   5.156  0.2492  1.4976 -0.0045
 2636TIP3    H229324   4.281   2.160   5.223 -1.4829 -0.4598  0.5645
 2637TIP3   OH229325   6.691   6.635  13.332  0.3022  0.2306  0.3456
 2637TIP3    H129326   6.718   6.551  13.368 -2.2103 -0.2094  1.3578
 2637TIP3    H229327   6.606   6.619  13.293  0.0502  2.1670  0.0003
 2638TIP3   OH229328   1.685   1.401  14.056  0.3719 -0.4633 -0.0879
 2638TIP3    H129329   1.772   1.362  14.047  0.8771  0.6220 -0.0522
 2638TIP3    H229330   1.702   1.490  14.087 -0.8714 -0.9315  2.0926
 2639TIP3   OH229331   4.569   0.097   0.054  0.3263 -0.2636  0.5022
 2639TIP3    H129332   4.610   0.115   0.138  2.1814 -0.3678 -0.3319
 2639TIP3    H229333   4.501   0.032   0.073 -0.4717  0.9843  2.1485
 2640TIP3   OH229334   3.534   1.443  15.047  0.7212 -0.0769  0.1787
 2640TIP3    H129335   3.564   1.367  15.096  2.7901  1.7356  1.9338
 2640TIP3    H229336   3.450   1.466  15.087  0.3475 -1.0607 -0.0076
 2641TIP3   OH229337   2.027   4.364  13.648  0.2703 -0.1791 -0.2276
 2641TIP3    H129338   2.089   4.299  13.615 -1.6453 -1.5103 -1.4318
 2641TIP3    H229339   1.945   4.316  13.657 -0.7359  1.6328  0.7917
 2642TIP3   OH229340   1.591   1.261   0.766 -0.1406  0.9001  0.3809
 2642TIP3    H129341   1.593   1.346   0.809 -2.3127 -0.0948  2.6631
 2642TIP3    H229342   1.501   1.251   0.736  0.4304 -0.0380 -1.1753
 2643TIP3   OH229343   0.524   2.929  12.914  0.6559  0.4725  0.2756
 2643TIP3    H129344   0.449   2.873  12.896 -0.2106  2.0541 -1.2968
 2643TIP3    H229345   0.590   2.869  12.949 -0.8029 -1.2094  0.2915
 2644TIP3   OH229346   2.354   5.032   3.437 -0.1089  0.6781  0.2336
 2644TIP3    H129347   2.301   5.105   3.405 -1.4166 -0.5098 -0.4441
 2644TIP3    H229348   2.290   4.969   3.470  0.6952 -1.4145 -1.8641
 2645TIP3   OH229349   0.052   2.892  11.673 -0.2952  0.1896  0.2515
 2645TIP3    H129350   0.097   2.845  11.743  0.4038 -0.9939 -0.9269
 2645TIP3    H229351   0.119   2.902  11.605 -1.7170 -1.4819 -1.4964
 2646TIP3   OH229352   1.422   0.254  12.073 -0.2129  0.7874  0.2974
 2646TIP3    H129353   1.404   0.248  11.979 -0.2146  0.7026  0.3026
 2646TIP3    H229354   1.339   0.283  12.111 -1.1702 -2.0222  0.6181
 2647TIP3   OH229355   6.427   0.631   0.018 -0.8778  0.2923  0.0830
 2647TIP3    H129356   6.405   0.539   0.002 -0.9552  0.6681 -2.3753
 2647TIP3    H229357   6.522   0.630   0.030 -1.0131 -0.2195  1.2639
 2648TIP3   OH229358   6.502   2.901   4.813 -0.2753  0.0715  0.0879
 2648TIP3    H129359   6.446   2.935   4.883 -2.2062 -0.9103 -0.8949
 2648TIP3    H229360   6.477   2.809   4.806  0.4990 -0.0514 -1.3100
 2649TIP3   OH229361   4.607   2.016  15.024  0.3219  0.5449  0.5243
 2649TIP3    H129362   4.680   2.070  15.056  1.5335 -0.3596 -0.6194
 2649TIP3    H229363   4.575   2.061  14.946  1.3275 -0.3431 -0.4256
 2650TIP3   OH229364   2.369   4.476  13.103  0.1079  0.9894 -0.1975
 2650TIP3    H129365   2.389   4.521  13.021  1.4345 -0.1554 -0.5597
 2650TIP3    H229366   2.333   4.391  13.076 -1.1248  1.2816  0.4449
 2651TIP3   OH229367   2.592   3.419   3.506 -0.1656 -0.3142 -0.1585
 2651TIP3    H129368   2.551   3.504   3.493 -0.8250 -0.8009 -1.5201
 2651TIP3    H229369   2.661   3.434   3.570 -1.7928  0.7394  1.4210
 2652TIP3   OH229370   1.614   3.245  12.491  0.4433 -0.5906  0.4835
 2652TIP3    H129371   1.695   3.296  12.487 -0.2766  0.6530  1.2110
 2652TIP3    H229372   1.553   3.292  12.435  0.0176 -1.1439  0.4708
 2653TIP3   OH229373   0.876   3.671  13.425 -0.5606  0.0800 -0.1073
 2653TIP3    H129374   0.926   3.751  13.437 -0.9427 -0.1003  5.0775
 2653TIP3    H229375   0.930   3.617  13.367  2.5189  1.9388  0.7844
 2654TIP3   OH229376   6.520   4.203  14.752 -0.0165  0.2970  0.0930
 2654TIP3    H129377   6.523   4.278  14.692  1.7551  0.4032  0.2737
 2654TIP3    H229378   6.459   4.230  14.820 -1.4942  0.4697 -1.2340
 2655TIP3   OH229379   4.495   6.141   3.604 -1.3429 -0.1241 -0.2528
 2655TIP3    H129380   4.519   6.234   3.608 -0.1434 -0.2958 -2.1945
 2655TIP3    H229381   4.497   6.112   3.695 -0.7634  1.5339  0.2972
 2656TIP3   OH229382   1.692   0.775  12.748 -0.0968 -0.1215 -0.1531
 2656TIP3    H129383   1.772   0.799  12.702  0.6793 -0.1776  1.1161
 2656TIP3    H229384   1.679   0.683  12.727 -0.3765  0.1276 -1.1310
 2657TIP3   OH229385   6.149   3.640   1.575  0.2304  0.2178 -0.1583
 2657TIP3    H129386   6.100   3.659   1.495  1.4197  0.3143 -0.8972
 2657TIP3    H229387   6.146   3.722   1.624 -0.1410  0.2943 -0.3040
 2658TIP3   OH229388   5.966   6.455  15.589  0.1891  0.2134 -0.0584
 2658TIP3    H129389   5.943   6.431  15.679  1.5168  1.2635  0.5904
 2658TIP3    H229390   6.023   6.384  15.559 -1.3669 -0.8570 -0.6087
 2659TIP3   OH229391   6.131   1.259  14.732 -0.0577 -0.5609  0.2309
 2659TIP3    H129392   6.045   1.258  14.775  0.4141  1.3236  1.3519
 2659TIP3    H229393   6.119   1.209  14.652 -3.3441  2.8478 -1.7259
 2660TIP3   OH229394   3.171   3.458   3.156  0.2315  0.0130  0.3467
 2660TIP3    H129395   3.144   3.549   3.149  1.4682  0.3627 -0.2779
 2660TIP3    H229396   3.152   3.420   3.070 -1.3003 -0.6485  0.9365
 2661TIP3   OH229397   1.422   0.335  12.671  0.7073  0.4231  0.3051
 2661TIP3    H129398   1.436   0.378  12.586 -0.5235 -0.7148 -0.5248
 2661TIP3    H229399   1.362   0.394  12.717 -0.0996  0.1788 -0.3888
 2662TIP3   OH229400   2.862   5.047   3.428  0.0860 -0.1122 -0.2559
 2662TIP3    H129401   2.951   5.047   3.464  0.0274 -1.5241 -0.0509
 2662TIP3    H229402   2.831   5.136   3.442  0.1745 -0.4612  2.9964
 2663TIP3   OH229403   4.683   3.808  12.253  0.3510 -0.3909  0.1286
 2663TIP3    H129404   4.628   3.846  12.321  0.6113  0.8705 -0.3271
 2663TIP3    H229405   4.767   3.791  12.296 -0.1694 -1.7614  0.6731
 2664TIP3   OH229406   4.085   2.675  11.467 -0.1049  0.4548 -0.3388
 2664TIP3    H129407   4.104   2.717  11.383  1.0166 -2.0729 -1.4581
 2664TIP3    H229408   4.169   2.675  11.513 -0.4062  0.6212  0.2168
 2665TIP3   OH229409   6.098   2.946  12.150  0.3385  0.3324 -0.4778
 2665TIP3    H129410   6.045   2.974  12.224  0.1398 -0.2494 -0.3888
 2665TIP3    H229411   6.039   2.890  12.099  1.2115 -1.4232  0.3165
 2666TIP3   OH229412   6.477   5.868  15.159 -0.8664  0.3284  0.3501
 2666TIP3    H129413   6.484   5.939  15.094  0.8309  0.3067  0.4522
 2666TIP3    H229414   6.538   5.894  15.229 -1.1514 -0.6325  0.9730
 2667TIP3   OH229415   0.070   5.102   0.450 -0.2809 -0.2072  0.0206
 2667TIP3    H129416   0.155   5.145   0.447 -0.4255  0.1799  1.0870
 2667TIP3    H229417   0.038   5.117   0.539 -1.2087 -0.8430 -0.1856
 2668TIP3   OH229418   3.405   4.483   4.646 -0.4974  0.1532  0.5287
 2668TIP3    H129419   3.471   4.470   4.714 -1.2299 -0.0633  1.2123
 2668TIP3    H229420   3.455   4.509   4.568  0.3353  0.5865  1.1989
 2669TIP3   OH229421   0.985   0.258   5.661 -0.1541 -0.0686  0.0085
 2669TIP3    H129422   1.071   0.240   5.701 -0.0406 -1.9653 -0.9670
 2669TIP3    H229423   0.926   0.270   5.735  0.6107 -0.5487  0.7093
 2670TIP3   OH229424   3.627   5.330  13.709  0.5221  0.2471 -0.4031
 2670TIP3    H129425   3.697   5.383  13.747 -0.4718  0.9586  0.5001
 2670TIP3    H229426   3.556   5.392  13.693  0.5094 -0.2206 -2.4972
 2671TIP3   OH229427   4.070   4.082   4.560  0.3029 -0.1949 -0.1587
 2671TIP3    H129428   4.155   4.068   4.516  0.2807 -0.4406 -0.1275
 2671TIP3    H229429   4.092   4.130   4.640  0.1948  1.4897 -1.0966
 2672TIP3   OH229430   0.517   3.929   2.144 -0.3250 -0.6768  0.3467
 2672TIP3    H129431   0.547   3.985   2.216  1.1915 -0.2953 -0.5445
 2672TIP3    H229432   0.532   3.840   2.176  0.7031 -0.5063  0.3903
 2673TIP3   OH229433   3.241   2.847  11.866  0.3194 -0.1470  0.0114
 2673TIP3    H129434   3.149   2.852  11.889  0.0816 -0.0251 -0.8960
 2673TIP3    H229435   3.280   2.790  11.931 -0.3182  0.1253  0.6388
 2674TIP3   OH229436   2.728   1.355  15.785  0.4946 -0.0652  0.5363
 2674TIP3    H129437   2.657   1.419  15.778  2.3866  2.0192 -0.6347
 2674TIP3    H229438   2.763   1.367  15.874  0.5683  0.2178  0.4690
 2675TIP3   OH229439   5.647   6.653  11.896 -0.6917 -0.3414 -0.5762
 2675TIP3    H129440   5.570   6.708  11.914  0.0711  0.8977 -0.9613
 2675TIP3    H229441   5.722   6.712  11.906  0.1963 -1.4244 -0.5973
 2676TIP3   OH229442   3.661   4.017  13.461 -0.6536  0.2597  0.1696
 2676TIP3    H129443   3.710   3.937  13.443 -0.4352 -0.0175  1.8435
 2676TIP3    H229444   3.618   4.037  13.378  1.4128 -0.0738 -1.0633
 2677TIP3   OH229445   6.583   5.841   1.744  0.8078 -0.1665 -0.3220
 2677TIP3    H129446   6.609   5.843   1.652 -1.2198  0.0717 -0.9243
 2677TIP3    H229447   6.651   5.891   1.789  2.4815 -1.2854 -1.4867
 2678TIP3   OH229448   5.740   5.311  15.304 -0.2298  0.1087  0.3184
 2678TIP3    H129449   5.716   5.345  15.218 -2.3381 -2.4970 -0.2706
 2678TIP3    H229450   5.748   5.216  15.291  0.7615 -0.1962  2.7113
 2679TIP3   OH229451   5.640   6.240  16.844  0.5414  0.2415  0.1731
 2679TIP3    H129452   5.569   6.221  16.783  0.4954 -1.6675  0.7429
 2679TIP3    H229453   5.596   6.259  16.927  0.6258 -1.5539  0.6881
 2680TIP3   OH229454   5.795   2.286  11.295  1.0165 -0.1171  0.2421
 2680TIP3    H129455   5.766   2.235  11.220  1.0750 -0.8762  0.7278
 2680TIP3    H229456   5.746   2.368  11.288  0.8959 -0.2464 -0.5226
 2681TIP3   OH229457   3.438   6.669   2.049  0.5697 -0.6260 -0.8444
 2681TIP3    H129458   3.403   6.657   2.137 -0.9842  3.1650 -0.7353
 2681TIP3    H229459   3.496   6.594   2.036 -2.5568 -3.8374  1.5575
 2682TIP3   OH229460   3.561   2.628  11.013  0.0564 -0.8564 -0.0976
 2682TIP3    H129461   3.642   2.674  10.988 -0.4317 -0.1755 -0.4565
 2682TIP3    H229462   3.578   2.537  10.990  1.1034 -0.9034  0.7612
 2683TIP3   OH229463   4.001   2.708   1.964  0.1010 -0.0154 -0.3554
 2683TIP3    H129464   4.062   2.638   1.987  0.6570  1.0002  1.4082
 2683TIP3    H229465   3.928   2.663   1.922  0.7845 -1.5678  0.0552
 2684TIP3   OH229466   3.023   4.203  16.474 -0.4004  0.0142 -0.3863
 2684TIP3    H129467   2.999   4.199  16.566  2.2440  0.8851  0.4455
 2684TIP3    H229468   3.060   4.117  16.455  0.7722  0.4213 -0.0465
 2685TIP3   OH229469   3.963   4.683   5.857  0.2159 -0.2233 -0.7326
 2685TIP3    H129470   3.898   4.648   5.796 -1.2431 -0.1600  0.7328
 2685TIP3    H229471   3.974   4.615   5.923  0.8066  0.2233 -0.3609
 2686TIP3   OH229472   0.742   5.585  11.914 -0.0681  0.1733 -0.9959
 2686TIP3    H129473   0.669   5.524  11.924 -0.9397  1.3168 -0.0421
 2686TIP3    H229474   0.708   5.669  11.947  1.8141  0.6275 -0.0838
 2687TIP3   OH229475   2.776   1.090  17.284 -0.1874 -0.2234 -0.2717
 2687TIP3    H129476   2.760   1.165  17.341  0.1075  0.5354 -1.1699
 2687TIP3    H229477   2.695   1.082  17.232  0.1071 -0.0047 -0.7643
 2688TIP3   OH229478   3.843   4.319  15.059  0.0000 -0.2014  0.3761
 2688TIP3    H129479   3.794   4.370  14.994  0.9226  1.5236  0.9661
 2688TIP3    H229480   3.778   4.289  15.122 -0.5093  0.6913  0.2824
 2689TIP3   OH229481   4.999   0.285  14.847  0.0737 -0.3735  0.4873
 2689TIP3    H129482   5.017   0.270  14.754 -1.0256  0.2874  0.1558
 2689TIP3    H229483   5.061   0.353  14.873 -1.0689  1.0334 -0.3450
 2690TIP3   OH229484   4.715   5.117  15.129  0.4952  0.4414  0.1451
 2690TIP3    H129485   4.681   5.110  15.040  0.4093 -1.8065  0.2982
 2690TIP3    H229486   4.637   5.119  15.185  0.5124 -1.6635  0.3210
 2691TIP3   OH229487   4.586   3.297  16.572 -0.2977 -0.5162 -0.3927
 2691TIP3    H129488   4.672   3.314  16.535  0.3735 -0.4329  1.1398
 2691TIP3    H229489   4.528   3.362  16.530  0.8155  0.8757  0.1379
 2692TIP3   OH229490   4.003   4.354  16.385  0.0478  0.2941  0.0478
 2692TIP3    H129491   3.918   4.383  16.418  0.5410  0.5700  1.1024
 2692TIP3    H229492   4.061   4.428  16.401  0.6250 -0.1136 -0.1317
 2693TIP3   OH229493   2.889   3.836   7.034  0.2383  0.1193  0.5517
 2693TIP3    H129494   2.961   3.898   7.028  1.2128 -0.9022  1.2499
 2693TIP3    H229495   2.900   3.779   6.957 -0.9499  1.0737 -0.3684
 2694TIP3   OH229496   5.688   2.932  11.709 -0.4477 -0.4464  0.3020
 2694TIP3    H129497   5.619   2.916  11.645  0.2792 -1.6080 -0.2337
 2694TIP3    H229498   5.755   2.982  11.661  0.2118 -1.5352  0.0559
 2695TIP3   OH229499   2.553   4.679  13.357  0.3462 -0.1486 -0.0280
 2695TIP3    H129500   2.587   4.598  13.395 -0.0024 -0.8295 -1.1076
 2695TIP3    H229501   2.593   4.682  13.270  2.7599  2.3911  1.0217
 2696TIP3   OH229502   0.024   3.066  15.988 -0.1811 -0.0180 -0.5334
 2696TIP3    H129503  -0.007   2.975  15.991 -0.8741  0.0514 -3.1431
 2696TIP3    H229504   0.083   3.073  16.063  1.3995 -3.2013 -1.2698
 2697TIP3   OH229505   3.763   4.698   5.189 -0.4229 -0.4458 -0.1344
 2697TIP3    H129506   3.755   4.783   5.233  0.3588 -0.5450  0.2217
 2697TIP3    H229507   3.796   4.719   5.102 -0.8981 -0.3307 -0.2851
 2698TIP3   OH229508   1.327   6.231  13.258  0.1230 -0.0098  0.1691
 2698TIP3    H129509   1.234   6.232  13.278  0.0980  1.3266  0.0805
 2698TIP3    H229510   1.369   6.267  13.336  0.4693  0.4383 -0.2203
 2699TIP3   OH229511   4.665   3.723   1.130  0.2690 -0.1231  0.2213
 2699TIP3    H129512   4.633   3.733   1.040  1.8047  0.6313 -0.2885
 2699TIP3    H229513   4.597   3.673   1.175  0.1552 -1.8723 -1.7452
 2700TIP3   OH229514   0.908   1.441   4.022 -0.1100 -0.2020 -0.4709
 2700TIP3    H129515   0.941   1.351   4.024  2.9953  0.8072 -1.1167
 2700TIP3    H229516   0.891   1.463   4.114  0.4238 -1.0018 -0.1745
 2701TIP3   OH229517   5.058   1.573   0.892  0.4528  0.2624  0.1035
 2701TIP3    H129518   5.118   1.607   0.959  0.9859  1.1594 -0.8023
 2701TIP3    H229519   5.045   1.481   0.916 -0.9642  1.0034  2.6132
 2702TIP3   OH229520   5.887   3.117   3.151  0.6638 -0.5673 -0.3492
 2702TIP3    H129521   5.919   3.066   3.077  0.3350 -0.9216 -0.2488
 2702TIP3    H229522   5.906   3.064   3.228  0.7064 -0.3477 -0.2064
 2703TIP3   OH229523   0.876   5.720   2.644 -0.4892 -0.0713 -0.1628
 2703TIP3    H129524   0.870   5.642   2.588 -0.8549 -0.1092 -0.0755
 2703TIP3    H229525   0.845   5.690   2.730 -2.6360  0.6436 -0.6078
 2704TIP3   OH229526   0.264   2.285   4.071  0.2313 -0.1446  0.0401
 2704TIP3    H129527   0.207   2.361   4.078 -0.3296 -0.6731  1.7052
 2704TIP3    H229528   0.321   2.304   3.996 -1.0167  1.1315 -0.6211
 2705TIP3   OH229529   3.470   3.385  12.613  0.1845  0.0993  0.3339
 2705TIP3    H129530   3.494   3.451  12.678 -0.2413  0.1058  0.4855
 2705TIP3    H229531   3.506   3.419  12.531 -0.2834  0.6644  0.3571
 2706TIP3   OH229532   0.438   4.076  12.526 -0.3910 -0.2305 -0.6247
 2706TIP3    H129533   0.361   4.020  12.539 -1.2117  1.0045 -0.0257
 2706TIP3    H229534   0.446   4.084  12.431 -2.1627  1.1352 -0.7118
 2707TIP3   OH229535   5.604   3.719  13.944 -0.4304 -0.1082 -0.2416
 2707TIP3    H129536   5.607   3.757  14.031 -0.1143 -2.5797  0.9349
 2707TIP3    H229537   5.511   3.701  13.929 -0.6188  1.3606 -0.9427
 2708TIP3   OH229538   5.029   0.879  14.018  0.2212 -0.7119  0.1786
 2708TIP3    H129539   5.095   0.945  14.040 -0.0438 -0.5777  0.5922
 2708TIP3    H229540   4.961   0.891  14.084 -0.3664 -0.6429 -0.4342
 2709TIP3   OH229541   6.099   0.819   6.111  0.2461 -0.3027 -0.0139
 2709TIP3    H129542   6.125   0.739   6.067 -1.7670 -1.7950  1.3171
 2709TIP3    H229543   6.138   0.813   6.198  0.8327  0.6263 -0.1993
 2710TIP3   OH229544   0.873   4.118   2.671  0.1869 -0.2337  0.2802
 2710TIP3    H129545   0.867   4.190   2.608 -2.8884 -0.0279  0.6498
 2710TIP3    H229546   0.962   4.123   2.706  1.8344  0.0346 -3.4895
 2711TIP3   OH229547   3.896   5.435  15.101  0.0517  0.3448  0.5818
 2711TIP3    H129548   3.936   5.351  15.121  2.1193  1.4804  1.4325
 2711TIP3    H229549   3.856   5.463  15.183 -3.5087 -1.1631 -0.4376
 2712TIP3   OH229550   3.727   2.993  15.559  0.0031  0.1727 -0.4582
 2712TIP3    H129551   3.706   3.058  15.493 -1.8404  0.3206  0.1977
 2712TIP3    H229552   3.645   2.983  15.609  1.3135  0.0976  1.7960
 2713TIP3   OH229553   5.014   5.258  15.300 -0.1447  0.1843 -0.1958
 2713TIP3    H129554   5.018   5.187  15.363 -0.4230  0.2022 -0.1590
 2713TIP3    H229555   5.067   5.328  15.339 -0.0388  0.0735 -0.1401
 2714TIP3   OH229556   3.928   6.743   1.751 -0.0017 -0.1725 -0.3427
 2714TIP3    H129557   3.967   6.709   1.671  1.0346  1.8100 -0.7455
 2714TIP3    H229558   3.972   6.698   1.822  0.5726 -0.4347 -0.8661
 2715TIP3   OH229559   2.889   6.724  15.205  0.5394  0.1318  0.0398
 2715TIP3    H129560   2.921   6.710  15.294 -1.3992 -1.6526  0.5345
 2715TIP3    H229561   2.945   6.669  15.150  1.2514  0.6483  0.2340
 2716TIP3   OH229562   6.217   3.514  10.991  0.0870  0.3573  0.1814
 2716TIP3    H129563   6.311   3.536  10.992  0.0429  0.5509  0.2358
 2716TIP3    H229564   6.195   3.500  11.083  0.3680 -1.0529  0.0559
 2717TIP3   OH229565   6.366   6.298  13.067  0.1025 -0.4510 -0.6079
 2717TIP3    H129566   6.373   6.236  13.140 -1.3730  1.1012  0.9689
 2717TIP3    H229567   6.272   6.302  13.049  0.4554 -0.9230 -2.7737
 2718TIP3   OH229568   0.189   2.835  13.406  0.9943  0.6378  0.3029
 2718TIP3    H129569   0.253   2.832  13.477 -0.2160  1.2079  1.4464
 2718TIP3    H229570   0.121   2.895  13.436  0.3441  0.7409 -1.2579
 2719TIP3   OH229571   5.344   0.623   6.276  0.0691  0.1422 -0.5570
 2719TIP3    H129572   5.366   0.579   6.195  1.8651  1.5737 -0.9205
 2719TIP3    H229573   5.257   0.590   6.299  0.7444 -2.5009 -1.4674
 2720TIP3   OH229574   0.315   0.971  17.216 -0.5194 -0.5760 -0.7152
 2720TIP3    H129575   0.362   0.888  17.228  1.4725  0.5031 -0.5789
 2720TIP3    H229576   0.283   0.992  17.304  2.1733  0.5222  0.1384
 2721TIP3   OH229577   4.674   5.873  14.970  0.0229 -0.3297 -0.1675
 2721TIP3    H129578   4.662   5.962  14.935  0.2785 -0.6355 -1.0469
 2721TIP3    H229579   4.763   5.873  15.005 -0.6676  0.3798  1.7402
 2722TIP3   OH229580   0.442   2.104   2.725  0.4976 -0.9169  0.5423
 2722TIP3    H129581   0.389   2.074   2.798 -0.6942  0.6700  0.3811
 2722TIP3    H229582   0.434   2.036   2.659 -1.4844 -0.6762  0.4751
 2723TIP3   OH229583   6.152   1.158   2.686  0.2068 -0.5417 -0.3136
 2723TIP3    H129584   6.134   1.161   2.593  0.8611 -2.6420 -0.5471
 2723TIP3    H229585   6.099   1.229   2.723  0.1757  0.5299 -2.2779
 2724TIP3   OH229586   3.471   3.107   1.786  0.9635 -0.2283  0.4798
 2724TIP3    H129587   3.429   3.075   1.867  0.8741  0.8169  0.8609
 2724TIP3    H229588   3.476   3.030   1.730 -1.6267 -0.3972  0.3616
 2725TIP3   OH229589   5.981   3.904  17.038 -0.6502 -0.3149 -0.4128
 2725TIP3    H129590   6.051   3.871  17.095 -1.6609 -0.0209  1.0630
 2725TIP3    H229591   5.978   3.841  16.966  1.5894  0.0594 -0.9141
 2726TIP3   OH229592   4.175   0.773  11.705 -0.2644  0.3784 -0.3080
 2726TIP3    H129593   4.229   0.797  11.630 -0.0860  0.3309 -0.1930
 2726TIP3    H229594   4.090   0.815  11.687  0.2249  1.6255  0.1934
 2727TIP3   OH229595   5.519   2.104  12.498  0.2573 -0.1337 -0.8486
 2727TIP3    H129596   5.425   2.111  12.512  0.5126  0.7176  0.5445
 2727TIP3    H229597   5.534   2.012  12.478 -0.4156 -1.1628  2.7686
 2728TIP3   OH229598   4.897   1.906  12.940 -0.5168 -0.3045  0.6252
 2728TIP3    H129599   4.934   1.983  12.983  2.1601 -1.8500  1.3217
 2728TIP3    H229600   4.841   1.942  12.871  0.8570  2.2634  0.7219
 2729TIP3   OH229601   6.356   1.761  14.423 -0.8088  0.1117 -0.2205
 2729TIP3    H129602   6.382   1.850  14.399  0.2155 -0.3517 -0.9534
 2729TIP3    H229603   6.408   1.741  14.501  0.5866 -0.5562 -1.2664
 2730TIP3   OH229604   5.766   2.931   0.431  0.2566  0.2346 -0.6959
 2730TIP3    H129605   5.828   2.899   0.497 -1.1321  2.1279  1.6916
 2730TIP3    H229606   5.788   3.024   0.422 -1.4718  0.6724 -0.6451
 2731TIP3   OH229607   4.170   1.796  15.518 -0.4825 -0.0633  0.5528
 2731TIP3    H129608   4.258   1.820  15.548 -0.1184 -0.6556 -0.0192
 2731TIP3    H229609   4.185   1.743  15.440 -1.3212 -0.9086  0.9471
 2732TIP3   OH229610   5.062   1.256  13.518 -0.0518  0.1724  0.2885
 2732TIP3    H129611   4.994   1.237  13.582 -0.4471 -1.6232 -0.6089
 2732TIP3    H229612   5.063   1.181  13.459  1.2970  1.0883 -0.9687
 2733TIP3   OH229613   1.473   0.209  11.184  0.0319  0.0430 -0.4970
 2733TIP3    H129614   1.521   0.289  11.162  2.8557 -1.7047 -1.1098
 2733TIP3    H229615   1.473   0.157  11.104 -1.7503 -0.6348 -0.1170
 2734TIP3   OH229616   4.702   1.757   4.649 -0.4244  0.3383  0.1023
 2734TIP3    H129617   4.728   1.671   4.682 -1.5326  0.4748  1.4310
 2734TIP3    H229618   4.734   1.818   4.715 -0.7068  0.8360 -0.2203
 2735TIP3   OH229619   6.530   6.495   4.887 -0.1426 -0.0452  0.0013
 2735TIP3    H129620   6.530   6.419   4.945 -0.4037  0.3663  0.5463
 2735TIP3    H229621   6.619   6.500   4.853 -0.4819 -1.4963 -1.2458
 2736TIP3   OH229622   0.494   2.698  14.943 -0.3002 -0.7048  0.1664
 2736TIP3    H129623   0.404   2.730  14.940 -0.3350 -0.7839  0.3718
 2736TIP3    H229624   0.491   2.610  14.906 -0.1114 -0.2641 -0.9295
 2737TIP3   OH229625   5.470   0.707   3.545 -0.6559  0.0024 -0.5477
 2737TIP3    H129626   5.518   0.790   3.539  0.4614 -0.4636  1.2404
 2737TIP3    H229627   5.389   0.730   3.590 -0.2707  0.0911  0.0999
 2738TIP3   OH229628   4.957   4.050  13.086 -0.6028 -0.0592 -0.5004
 2738TIP3    H129629   4.953   4.122  13.023 -2.2058  0.3551  0.0277
 2738TIP3    H229630   4.929   3.973  13.036  1.5584 -0.4937 -1.1931
 2739TIP3   OH229631   2.771   2.033  15.991 -0.0690 -0.2592  0.7142
 2739TIP3    H129632   2.855   2.052  15.950  0.1346 -0.0536  1.2118
 2739TIP3    H229633   2.739   2.119  16.019  0.2933 -0.4968  1.9191
 2740TIP3   OH229634   1.617   4.862  14.167  0.0770 -0.1873  0.2571
 2740TIP3    H129635   1.656   4.842  14.082  0.6029  1.4056  0.0926
 2740TIP3    H229636   1.527   4.887  14.147  0.3133  0.5760  0.0966
 2741TIP3   OH229637   4.297   4.701   1.277 -0.3071 -0.5035  0.3153
 2741TIP3    H129638   4.288   4.645   1.354  0.2807 -1.2296 -0.1314
 2741TIP3    H229639   4.235   4.772   1.291 -0.2212 -0.6426  1.4450
 2742TIP3   OH229640   6.717   2.539  15.995  0.3270  0.0339  0.1213
 2742TIP3    H129641   6.745   2.615  16.045  0.7413 -1.3965  2.1724
 2742TIP3    H229642   6.782   2.472  16.014 -0.4936 -1.1194 -0.9302
 2743TIP3   OH229643   4.115   3.162  13.336  0.1683  0.0262  0.1992
 2743TIP3    H129644   4.068   3.082  13.314 -0.7513  0.8607 -1.0066
 2743TIP3    H229645   4.066   3.201  13.408  1.2562 -1.0166  1.5589
 2744TIP3   OH229646   4.276   5.419   0.821  0.2099 -0.0365  0.0014
 2744TIP3    H129647   4.310   5.426   0.732  0.9980 -2.8062  0.0041
 2744TIP3    H229648   4.200   5.362   0.813 -1.2301  1.6698  0.8137
 2745TIP3   OH229649   4.752   0.624   5.681 -0.0576 -0.3041  0.3186
 2745TIP3    H129650   4.771   0.716   5.701 -1.3758  0.8638 -3.0370
 2745TIP3    H229651   4.662   0.611   5.711  0.3969 -0.7804  1.5116
 2746TIP3   OH229652   5.340   3.275  15.138 -0.2247  0.0840  0.1678
 2746TIP3    H129653   5.386   3.192  15.149  0.1587  0.1999 -0.5058
 2746TIP3    H229654   5.260   3.264  15.189 -0.4984 -0.9591 -0.4395
 2747TIP3   OH229655   2.768   0.966   4.583  0.1896 -0.1205 -0.3987
 2747TIP3    H129656   2.746   1.031   4.650  0.1016 -0.7813  0.2302
 2747TIP3    H229657   2.861   0.981   4.565  0.1369  0.2683 -0.3615
 2748TIP3   OH229658   3.413   6.439  16.117  0.1239 -0.0989  0.0434
 2748TIP3    H129659   3.346   6.393  16.067  0.8181 -1.1572  0.0592
 2748TIP3    H229660   3.373   6.524  16.138 -1.4572 -0.9385  0.6061
 2749TIP3   OH229661   5.977   0.969   2.442 -0.4187 -0.0475  0.4713
 2749TIP3    H129662   6.026   0.926   2.513 -0.8670 -0.4164  0.5632
 2749TIP3    H229663   6.034   1.040   2.413  0.5226 -0.9385  0.0500
 2750TIP3   OH229664   1.792   6.472   2.306  0.0417 -0.1348 -0.1753
 2750TIP3    H129665   1.730   6.521   2.252 -1.9006  0.4649  2.4414
 2750TIP3    H229666   1.738   6.412   2.357  1.3890  1.1416  3.0019
 2751TIP3   OH229667   3.604   4.220  11.483 -0.6987 -0.5072 -0.1294
 2751TIP3    H129668   3.577   4.147  11.540 -0.4886 -0.0567  0.5580
 2751TIP3    H229669   3.637   4.177  11.404  0.3503 -1.2182  0.6587
 2752TIP3   OH229670   1.040   2.990   0.230 -0.2313  0.1503  0.7138
 2752TIP3    H129671   1.082   2.941   0.301 -2.0385 -1.5998  0.6777
 2752TIP3    H229672   1.019   3.075   0.269  0.5019 -0.0846  1.6727
 2753TIP3   OH229673   0.273   3.044  12.249  0.1168 -0.0156  0.2632
 2753TIP3    H129674   0.316   2.973  12.201 -1.1491 -1.6063  1.3543
 2753TIP3    H229675   0.197   3.067  12.195 -0.1159 -0.3121  0.4602
 2754TIP3   OH229676   0.432   0.348   2.000  0.0571  0.0645 -0.2360
 2754TIP3    H129677   0.349   0.363   2.045  0.0831  0.6667 -0.3873
 2754TIP3    H229678   0.444   0.253   2.004  0.7651  0.1862  2.2672
 2755TIP3   OH229679   4.882   6.341  15.654  0.0262  0.2719  0.6562
 2755TIP3    H129680   4.897   6.264  15.599 -0.3033  0.8612 -0.2795
 2755TIP3    H229681   4.894   6.309  15.744 -0.8031 -1.0356  0.3233
 2756TIP3   OH229682   5.439   2.790  16.964  0.1449 -0.1342  0.0916
 2756TIP3    H129683   5.409   2.810  16.876  1.4716  0.2505 -0.2924
 2756TIP3    H229684   5.359   2.773  17.014 -1.2316  5.3431  0.3410
 2757TIP3   OH229685   1.817   5.198  17.043 -0.1748  0.0380 -0.1999
 2757TIP3    H129686   1.764   5.187  17.122  0.9998  0.5191  0.6757
 2757TIP3    H229687   1.780   5.275  17.000 -0.7804 -0.1907 -0.1081
 2758TIP3   OH229688   6.676   4.632  17.116 -0.2203  0.0668 -0.3437
 2758TIP3    H129689   6.650   4.550  17.158  1.3590 -1.0747 -1.4699
 2758TIP3    H229690   6.643   4.700  17.173 -1.5045 -1.3553  0.6845
 2759TIP3   OH229691   1.900   6.750  14.362 -0.2485  0.2397 -0.1619
 2759TIP3    H129692   1.974   6.812  14.365  0.3652 -0.4844  0.1087
 2759TIP3    H229693   1.883   6.729  14.453  0.3237 -0.8733 -0.2941
 2760TIP3   OH229694   3.395   5.069  12.794  0.2126 -0.2639 -0.1015
 2760TIP3    H129695   3.434   5.087  12.879 -0.1755 -0.9449  0.2341
 2760TIP3    H229696   3.461   5.018  12.747  0.5811  0.4425 -0.3603
 2761TIP3   OH229697   1.082   5.492   0.955 -0.5387  0.2118  0.4291
 2761TIP3    H129698   1.157   5.521   1.007 -1.8132 -0.1671  2.6087
 2761TIP3    H229699   1.007   5.536   0.995 -1.6424 -0.3516 -0.9237
 2762TIP3   OH229700   4.595   4.079   0.660  0.4397  0.0857  0.1815
 2762TIP3    H129701   4.616   4.162   0.702  3.3598  0.5001 -1.7989
 2762TIP3    H229702   4.670   4.061   0.603 -0.9744 -2.9442 -0.9557
 2763TIP3   OH229703   0.435   1.303  11.934 -0.3999 -0.1649  0.9810
 2763TIP3    H129704   0.425   1.208  11.922 -0.8208  0.1036 -1.4624
 2763TIP3    H229705   0.346   1.338  11.925  0.0627  0.6407 -0.9940
 2764TIP3   OH229706   6.667   3.854  11.791 -0.0738 -0.6995  0.9351
 2764TIP3    H129707   6.713   3.927  11.833  0.5386 -0.2992 -0.3870
 2764TIP3    H229708   6.693   3.778  11.842  0.3232 -0.1754  1.5395
 2765TIP3   OH229709   5.401   0.032  11.869 -0.0331 -0.3731 -0.4907
 2765TIP3    H129710   5.342   0.032  11.944 -0.9256  0.5265 -1.1642
 2765TIP3    H229711   5.453   0.112  11.880 -0.1364 -0.2616 -0.8064
 2766TIP3   OH229712   0.528   2.832  12.636 -0.2220 -0.7925 -0.0756
 2766TIP3    H129713   0.440   2.795  12.634 -0.0498 -1.2203  0.1412
 2766TIP3    H229714   0.516   2.924  12.611 -1.0742 -0.1875  2.2878
 2767TIP3   OH229715   4.548   1.613  11.807 -0.7854  0.3222  0.3623
 2767TIP3    H129716   4.500   1.556  11.747 -1.8117  2.5972 -1.1365
 2767TIP3    H229717   4.626   1.640  11.758 -0.8657  1.0313  0.6067
 2768TIP3   OH229718   1.295   1.774  14.912  0.2351  0.3472 -0.2190
 2768TIP3    H129719   1.246   1.790  14.993  0.6001  2.5985 -0.3606
 2768TIP3    H229720   1.228   1.760  14.845 -0.1129  0.1496  0.1676
 2769TIP3   OH229721   0.712   6.736  12.512  0.2162  0.0910 -0.5924
 2769TIP3    H129722   0.799   6.712  12.544 -0.0921  1.3027  1.3669
 2769TIP3    H229723   0.658   6.658  12.526  0.2225  0.4015  1.5286
 2770TIP3   OH229724   1.193   4.752   0.720  0.3907 -0.1025  0.2402
 2770TIP3    H129725   1.287   4.767   0.730  0.8147 -2.7047  1.1215
 2770TIP3    H229726   1.163   4.731   0.808 -1.4294  2.2866  0.2806
 2771TIP3   OH229727   0.265   0.731   1.699  0.1729  0.2427 -0.3161
 2771TIP3    H129728   0.310   0.705   1.780  0.3905  0.5994 -0.3181
 2771TIP3    H229729   0.332   0.722   1.631 -0.6409 -2.3928 -0.8908
 2772TIP3   OH229730   2.912   1.220   5.622  0.3019 -0.0148 -0.2666
 2772TIP3    H129731   2.930   1.265   5.539  2.7590  3.5959  1.8986
 2772TIP3    H229732   2.837   1.267   5.659  0.0242 -0.7394  0.1125
 2773TIP3   OH229733   2.470   1.628   0.154  0.1543 -0.2613 -0.3510
 2773TIP3    H129734   2.536   1.698   0.161 -2.1294  2.2516 -1.9917
 2773TIP3    H229735   2.500   1.574   0.081  0.1221  1.2325 -1.5118
 2774TIP3   OH229736   6.229   5.287  10.982  0.7397  0.0804  0.7249
 2774TIP3    H129737   6.143   5.329  10.969  0.2773 -1.2551 -0.8777
 2774TIP3    H229738   6.210   5.193  10.981  2.2579 -0.2425 -0.0370
 2775TIP3   OH229739   5.896   0.794  12.389 -0.5331  0.1484 -0.0125
 2775TIP3    H129740   5.925   0.810  12.299 -0.4771 -1.4943 -0.3231
 2775TIP3    H229741   5.830   0.861  12.405 -1.9599 -0.6591 -2.0053
 2776TIP3   OH229742   2.848   0.933  14.474 -0.1673 -0.6181 -0.4093
 2776TIP3    H129743   2.782   0.865  14.467  0.1991 -1.0896  0.5552
 2776TIP3    H229744   2.821   0.999  14.410 -1.3694 -0.9583 -0.2747
 2777TIP3   OH229745   5.422   1.636  12.304 -0.5499 -0.5238  0.1446
 2777TIP3    H129746   5.426   1.613  12.211  0.4814  0.2648 -0.0309
 2777TIP3    H229747   5.440   1.730  12.306  1.7377 -0.9220  1.2822
 2778TIP3   OH229748   2.433   5.592  15.182 -0.0455  0.3449 -0.2750
 2778TIP3    H129749   2.413   5.683  15.205  0.1674  0.4866 -0.6309
 2778TIP3    H229750   2.385   5.577  15.100  0.7315  0.4675 -0.7616
 2779TIP3   OH229751   6.472   4.694   3.233  0.4921  0.1343 -0.2712
 2779TIP3    H129752   6.497   4.697   3.326 -0.8013  0.0955  0.0866
 2779TIP3    H229753   6.452   4.602   3.216 -2.8170  0.5988  0.4251
 2780TIP3   OH229754   2.723   6.709  14.460 -0.0082 -0.5600 -0.3668
 2780TIP3    H129755   2.653   6.773  14.473 -0.3411 -0.5933 -1.8003
 2780TIP3    H229756   2.684   6.644  14.401  1.2718 -0.4832 -1.3347
 2781TIP3   OH229757   1.441   5.907  15.545  0.6511  0.5770 -0.0655
 2781TIP3    H129758   1.417   5.904  15.452  0.7296  0.5238 -0.0838
 2781TIP3    H229759   1.421   5.819  15.577  1.2462  0.3966 -0.1836
 2782TIP3   OH229760   1.712   1.925  12.293  0.0823 -0.1281 -0.3971
 2782TIP3    H129761   1.638   1.986  12.292  0.4203  0.3627  1.3147
 2782TIP3    H229762   1.787   1.978  12.265  0.8931  1.1094  3.4906
 2783TIP3   OH229763   6.410   5.098   5.166 -0.9581 -0.0822  0.1805
 2783TIP3    H129764   6.345   5.104   5.095 -0.8513 -0.9006  0.0072
 2783TIP3    H229765   6.357   5.093   5.246 -1.1071 -0.6710  0.0459
 2784TIP3   OH229766   1.831   4.586  16.820  0.2562  0.0196 -0.2860
 2784TIP3    H129767   1.879   4.572  16.902  0.2420 -0.0922 -0.2961
 2784TIP3    H229768   1.892   4.560  16.751 -0.2104 -1.2511 -0.2538
 2785TIP3   OH229769   2.660   2.901  14.742 -0.1333 -0.0964  0.2060
 2785TIP3    H129770   2.686   2.822  14.789  0.4487  0.1951  0.3803
 2785TIP3    H229771   2.576   2.878  14.703  0.0357 -0.8114  0.2348
 2786TIP3   OH229772   0.929   2.410  12.657 -0.0591 -0.4191  0.2531
 2786TIP3    H129773   0.869   2.474  12.695 -0.4466 -0.5022 -0.2051
 2786TIP3    H229774   0.995   2.396  12.725 -0.4067 -0.1222  0.6619
 2787TIP3   OH229775   6.046   6.350  14.550 -0.2197 -1.1157 -0.0973
 2787TIP3    H129776   6.003   6.424  14.507 -1.0897  0.2913  2.9125
 2787TIP3    H229777   6.024   6.274  14.496 -0.7414  0.5536 -2.3509
 2788TIP3   OH229778   5.141   1.591  15.209 -0.0029 -0.1821 -0.0366
 2788TIP3    H129779   5.160   1.685  15.208  2.3537 -0.5005  2.8590
 2788TIP3    H229780   5.227   1.549  15.204 -0.8316 -2.1311  1.0449
 2789TIP3   OH229781   3.799   0.279   0.164 -0.1162 -0.3323 -0.1273
 2789TIP3    H129782   3.844   0.194   0.167  1.2968  0.4064  0.2783
 2789TIP3    H229783   3.800   0.303   0.072  0.3290 -0.3277 -0.1242
 2790TIP3   OH229784   5.369   0.263  12.173 -0.4190 -0.2277  0.3893
 2790TIP3    H129785   5.410   0.349  12.165  2.3643 -1.3914  1.0144
 2790TIP3    H229786   5.305   0.261  12.102  0.7022  1.7221 -0.7803
 2791TIP3   OH229787   3.108   5.473   5.551 -0.0514 -0.3495  0.2265
 2791TIP3    H129788   3.033   5.423   5.521 -0.2118 -0.2106  0.3965
 2791TIP3    H229789   3.179   5.448   5.492 -0.6068  0.6630 -0.9184
 2792TIP3   OH229790   6.372   1.805  12.772 -0.0730  0.0569 -0.0998
 2792TIP3    H129791   6.389   1.884  12.823 -0.0581 -0.5574  0.8846
 2792TIP3    H229792   6.454   1.788  12.726 -0.0696  0.6023 -0.2967
 2793TIP3   OH229793   3.976   6.009   3.172 -0.4810  0.1722 -0.0696
 2793TIP3    H129794   3.937   5.964   3.096 -0.2474 -1.3602  0.6822
 2793TIP3    H229795   3.920   6.084   3.186 -0.7927  0.2457 -1.4899
 2794TIP3   OH229796   0.745   3.759  12.719  0.4037 -0.5105  0.1486
 2794TIP3    H129797   0.715   3.844  12.687  0.6562 -0.5830 -0.3043
 2794TIP3    H229798   0.811   3.780  12.785  0.6678 -0.3493 -0.1613
 2795TIP3   OH229799   5.426   1.739  10.956 -0.0925 -0.7853 -0.1570
 2795TIP3    H129800   5.339   1.753  10.994 -0.9046 -2.4395 -1.2738
 2795TIP3    H229801   5.428   1.796  10.879  0.2731  0.0932  0.4871
 2796TIP3   OH229802   4.159   0.114  13.201 -0.1773 -0.2463  0.3251
 2796TIP3    H129803   4.146   0.209  13.192 -0.1493 -0.2737 -0.0127
 2796TIP3    H229804   4.074   0.076  13.179 -1.3456 -0.1442  4.0507
 2797TIP3   OH229805   5.049   6.415   5.834  0.7800  0.0594 -0.0410
 2797TIP3    H129806   5.044   6.398   5.740 -0.2529 -0.0856  0.0286
 2797TIP3    H229807   4.959   6.437   5.860  1.0671  0.2028  0.8923
 2798TIP3   OH229808   0.010   3.695   2.309 -0.0393 -0.1433 -0.3305
 2798TIP3    H129809  -0.083   3.707   2.328  0.2701 -1.2910  2.2619
 2798TIP3    H229810   0.041   3.783   2.287 -1.5243  0.4364 -0.2280
 2799TIP3   OH229811   2.885   5.614  14.115  0.0938 -0.3279 -0.0078
 2799TIP3    H129812   2.800   5.577  14.139  0.1329  0.0145  0.7010
 2799TIP3    H229813   2.937   5.539  14.086 -0.3534 -0.5799 -0.1644
 2800TIP3   OH229814   5.951   4.039  14.483  0.0564 -0.3493 -0.0737
 2800TIP3    H129815   6.001   4.019  14.563 -0.5155  0.4681  0.4937
 2800TIP3    H229816   5.860   4.031  14.509 -0.1758  1.7036 -0.1554
 2801TIP3   OH229817   6.520   4.451   3.375  0.3392  0.4382 -0.0016
 2801TIP3    H129818   6.591   4.394   3.348 -0.4556  0.1114 -1.4959
 2801TIP3    H229819   6.562   4.523   3.421  1.3827 -1.2590  1.8513
 2802TIP3   OH229820   0.870   0.433  11.451  0.0649 -0.2832 -0.3472
 2802TIP3    H129821   0.817   0.392  11.520 -1.3895  1.4486 -0.3582
 2802TIP3    H229822   0.834   0.521  11.442  4.0737  1.7580  0.9086
 2803TIP3   OH229823   1.777   1.285   2.576  0.2267 -0.5441  0.4904
 2803TIP3    H129824   1.711   1.218   2.592 -1.3183  0.3189 -1.6630
 2803TIP3    H229825   1.846   1.240   2.528 -0.3185 -0.8229 -0.0444
 2804TIP3   OH229826   1.462   1.206   6.122  0.5530 -0.2631 -0.2063
 2804TIP3    H129827   1.448   1.115   6.148  0.3210 -0.6190 -1.5268
 2804TIP3    H229828   1.528   1.238   6.183 -0.0928 -1.0005  0.9231
 2805TIP3   OH229829   1.485   3.945  15.336  0.5094 -0.1958  0.0428
 2805TIP3    H129830   1.574   3.914  15.316  1.3295  0.7800  1.9460
 2805TIP3    H229831   1.498   4.024  15.388 -1.4847  2.3641 -2.9621
 2806TIP3   OH229832   0.305   2.827   6.475  0.0573 -0.0044 -0.5711
 2806TIP3    H129833   0.399   2.841   6.475 -0.0371  0.7192 -1.0429
 2806TIP3    H229834   0.277   2.854   6.387 -0.8991  2.0777  0.3175
 2807TIP3   OH229835   2.824   1.785   6.722 -0.3813 -0.3379 -0.2503
 2807TIP3    H129836   2.733   1.789   6.691 -0.4730  0.7344  0.1323
 2807TIP3    H229837   2.866   1.860   6.680 -0.5343  1.2530  2.2583
 2808TIP3   OH229838   4.416   4.821  12.779 -0.0232  0.1301 -0.3269
 2808TIP3    H129839   4.507   4.814  12.806 -0.3620  0.1451  0.8857
 2808TIP3    H229840   4.374   4.872  12.849 -0.3689  2.7465 -2.2843
 2809TIP3   OH229841   5.951   0.426   2.889  0.6552  0.0047 -0.2052
 2809TIP3    H129842   5.901   0.364   2.942  1.7540  0.0246  0.9008
 2809TIP3    H229843   6.034   0.435   2.935  1.2696  0.7868 -1.4273
 2810TIP3   OH229844   4.803   0.355  11.891 -0.0798  0.5390 -0.4022
 2810TIP3    H129845   4.863   0.281  11.881  0.9898  1.3396 -0.1970
 2810TIP3    H229846   4.722   0.327  11.848  0.4488 -0.5671 -0.7153
 2811TIP3   OH229847   4.629   3.212   4.639  0.3866  0.1435  0.0929
 2811TIP3    H129848   4.580   3.277   4.689  0.6562 -0.2163  0.8430
 2811TIP3    H229849   4.721   3.238   4.648  0.3938  0.4096 -0.7093
 2812TIP3   OH229850   1.952   1.346   4.175  0.4215  0.0667 -0.0367
 2812TIP3    H129851   2.007   1.308   4.244  0.6662  1.1479  0.3796
 2812TIP3    H229852   1.908   1.420   4.217  0.1377  0.3958 -0.8904
 2813TIP3   OH229853   3.125   4.559  11.049 -0.0723  0.1857  0.0220
 2813TIP3    H129854   3.057   4.521  11.105 -0.0041 -1.5523 -1.0129
 2813TIP3    H229855   3.143   4.644  11.089 -0.9023 -0.4607  1.9129
 2814TIP3   OH229856   4.967   6.133  10.091  0.2661 -0.7605 -0.5714
 2814TIP3    H129857   4.894   6.184  10.057  0.4895  0.9306  1.3215
 2814TIP3    H229858   5.045   6.174  10.054  0.3787 -0.7397 -0.3140
 2815TIP3   OH229859   0.650   1.268   0.189 -0.3185 -0.3599  0.3159
 2815TIP3    H129860   0.636   1.208   0.116  1.3106  2.8413 -2.9613
 2815TIP3    H229861   0.569   1.319   0.194  0.5799  1.4038 -1.4884
 2816TIP3   OH229862   6.633   2.677  14.506  0.1288 -0.3400 -0.4781
 2816TIP3    H129863   6.592   2.590  14.508  0.2841 -0.4102  0.4082
 2816TIP3    H229864   6.560   2.738  14.497  0.0417 -0.5743 -1.3858
 2817TIP3   OH229865   4.651   4.539   3.394  0.0320  0.5458 -0.6524
 2817TIP3    H129866   4.680   4.453   3.363  0.2867  0.8864 -1.3782
 2817TIP3    H229867   4.675   4.599   3.323 -0.1979  1.2058 -0.1752
 2818TIP3   OH229868   4.483   3.920  13.046 -0.2252 -0.6551  0.0820
 2818TIP3    H129869   4.500   4.014  13.054 -2.7180 -0.2379  1.9535
 2818TIP3    H229870   4.556   3.879  13.091  0.8709  0.3681 -0.6986
 2819TIP3   OH229871   4.067   0.171  11.970  0.2256 -0.6027 -0.2305
 2819TIP3    H129872   4.090   0.258  12.004 -0.1984 -1.1649  1.6068
 2819TIP3    H229873   4.019   0.189  11.889  1.4996  0.7980 -0.7289
 2820TIP3   OH229874   6.271   3.887   4.704  0.0755 -0.1176  0.4330
 2820TIP3    H129875   6.275   3.894   4.799 -0.8292 -2.0219  0.6633
 2820TIP3    H229876   6.180   3.908   4.683 -0.5584 -2.6043  0.3646
 2821TIP3   OH229877   4.977   6.761   1.102  0.2187 -0.3741  0.1424
 2821TIP3    H129878   4.949   6.767   1.193  0.7285 -1.6122  0.3946
 2821TIP3    H229879   4.975   6.668   1.082  1.0779 -0.2027 -0.8169
 2822TIP3   OH229880   3.022   0.094  11.033 -0.5183 -0.2088  0.0082
 2822TIP3    H129881   3.096   0.140  11.071  0.3223 -0.7333 -0.9654
 2822TIP3    H229882   2.953   0.102  11.099  0.9071 -1.1785  1.7061
 2823TIP3   OH229883   4.283   4.532  17.288  0.1454 -0.2731  0.3707
 2823TIP3    H129884   4.317   4.584  17.215 -0.3267 -1.1012 -0.4680
 2823TIP3    H229885   4.308   4.442  17.266  0.6331 -0.4519  1.6044
 2824TIP3   OH229886   5.707   3.334  15.979  0.3799  0.1887  0.2157
 2824TIP3    H129887   5.737   3.336  15.888  1.7693 -4.0157  0.3458
 2824TIP3    H229888   5.619   3.297  15.975  1.3890 -2.5453  0.5090
 2825TIP3   OH229889   4.308   0.010  12.964  0.1843 -0.0547  0.1013
 2825TIP3    H129890   4.304   0.085  12.906  0.8110 -0.0260  0.0931
 2825TIP3    H229891   4.250   0.033  13.037 -0.2081  0.1185 -0.2656
 2826TIP3   OH229892   6.508   2.550   0.849 -0.3778 -0.3038  0.1476
 2826TIP3    H129893   6.430   2.495   0.838  0.7262 -1.6807 -1.2984
 2826TIP3    H229894   6.478   2.638   0.829 -1.8533 -0.5720  0.9930
 2827TIP3   OH229895   6.757   4.889   1.002 -0.1980  0.1019  0.1142
 2827TIP3    H129896   6.684   4.947   0.978  1.2922  3.3836  2.6824
 2827TIP3    H229897   6.833   4.928   0.959  1.1059  1.1580  3.1221
 2828TIP3   OH229898   3.448   2.242   3.969  0.8239 -0.2809  0.4944
 2828TIP3    H129899   3.363   2.205   3.947  1.4118 -1.3684  0.0153
 2828TIP3    H229900   3.460   2.222   4.062  1.0802 -1.1892  0.2705
 2829TIP3   OH229901   0.034   5.543  16.713  0.3145 -0.1048  0.6165
 2829TIP3    H129902   0.033   5.455  16.751 -0.1340 -0.5144 -0.3236
 2829TIP3    H229903   0.125   5.556  16.686 -0.0026 -1.1029 -1.0730
 2830TIP3   OH229904   2.964   0.960  12.219  0.5332  0.5194  0.1369
 2830TIP3    H129905   2.956   1.052  12.193 -0.8437 -0.2082 -2.3074
 2830TIP3    H229906   2.899   0.948  12.288 -0.8415  0.9064 -1.0567
 2831TIP3   OH229907   0.541   1.114   4.598  0.6492  0.3960  0.0351
 2831TIP3    H129908   0.628   1.086   4.573  0.7074 -0.9883  1.5732
 2831TIP3    H229909   0.542   1.113   4.694 -0.9580  0.5939  0.0927
 2832TIP3   OH229910   4.960   6.588   5.311  0.1003 -0.4527 -0.2943
 2832TIP3    H129911   4.934   6.661   5.367  0.1738 -0.7996  0.2001
 2832TIP3    H229912   5.031   6.623   5.257  0.0963 -0.1450 -0.1034
 2833TIP3   OH229913   3.779   6.700   3.891  0.2115  0.0730 -0.3535
 2833TIP3    H129914   3.756   6.716   3.983  1.4098  0.9105 -0.1723
 2833TIP3    H229915   3.755   6.780   3.845  0.8933  0.1936 -0.5110
 2834TIP3   OH229916   5.652   5.492   2.925 -0.4513  0.3031 -0.0806
 2834TIP3    H129917   5.572   5.535   2.955 -0.6322 -0.3417  0.3714
 2834TIP3    H229918   5.622   5.428   2.860 -0.3291 -0.0792  0.2352
 2835TIP3   OH229919   1.234   0.133  15.303  0.3236  0.3494 -0.5802
 2835TIP3    H129920   1.210   0.215  15.259  0.5063  0.8753  0.2799
 2835TIP3    H229921   1.217   0.150  15.395  4.1388  0.8754  0.1886
 2836TIP3   OH229922   0.863   0.421  15.996 -0.0145 -0.0378 -0.0096
 2836TIP3    H129923   0.804   0.447  15.925  0.8830 -0.2266 -0.8325
 2836TIP3    H229924   0.842   0.329  16.012 -1.7081  0.5346  1.4674
 2837TIP3   OH229925   6.554   2.221   1.956  0.0091 -0.6041 -0.2668
 2837TIP3    H129926   6.465   2.196   1.980 -0.0075  0.2331  0.6188
 2837TIP3    H229927   6.610   2.167   2.011 -0.0030  0.2787  0.6396
 2838TIP3   OH229928   0.838   5.517   3.093 -0.0105 -0.3436  0.3505
 2838TIP3    H129929   0.819   5.541   3.183  1.1754 -0.8316  0.7372
 2838TIP3    H229930   0.823   5.423   3.089  0.8749 -0.4876  0.2930
 2839TIP3   OH229931   1.843   4.383  14.696 -0.5726  0.2045  0.4372
 2839TIP3    H129932   1.871   4.345  14.779 -0.2995 -0.2745  0.1258
 2839TIP3    H229933   1.917   4.371  14.637 -0.5529  1.0392  0.2741
 2840TIP3   OH229934   6.760   1.079  16.742 -0.0296 -0.4525 -0.0506
 2840TIP3    H129935   6.748   1.091  16.837  0.4696  1.2590 -0.1646
 2840TIP3    H229936   6.680   1.113  16.703 -0.9487 -2.6744 -0.2151
 2841TIP3   OH229937   2.714   0.387   5.144  0.0174 -0.0600 -0.3670
 2841TIP3    H129938   2.642   0.374   5.082 -0.1840 -0.5549 -0.0348
 2841TIP3    H229939   2.700   0.321   5.211 -0.3015  1.0699  0.7074
 2842TIP3   OH229940   0.300   3.523   6.531  0.4111 -0.4863  0.3395
 2842TIP3    H129941   0.390   3.543   6.558  0.5504  0.7724 -0.9510
 2842TIP3    H229942   0.302   3.531   6.436 -0.8141 -1.5877  0.2027
 2843TIP3   OH229943   4.925   2.659  12.044  0.6047  0.3274 -0.7627
 2843TIP3    H129944   4.944   2.623  11.958  0.6812  1.5857 -1.2960
 2843TIP3    H229945   5.011   2.671  12.085  0.5500 -0.6274 -0.3446
 2844TIP3   OH229946   4.995   1.951  14.579  1.3521 -0.4457  0.0248
 2844TIP3    H129947   4.997   1.865  14.538  1.5566  0.2083 -1.3900
 2844TIP3    H229948   5.076   1.955  14.630  1.2395 -1.1677  0.2624
 2845TIP3   OH229949   0.412   0.652  12.343  0.4992  0.1294  0.7589
 2845TIP3    H129950   0.332   0.700  12.322  0.4305 -0.8599 -1.4399
 2845TIP3    H229951   0.401   0.567  12.300  2.4960 -0.2496  0.9131
 2846TIP3   OH229952   5.897   5.534   1.809  0.1734  0.1508 -0.1212
 2846TIP3    H129953   5.891   5.570   1.721 -0.9424  1.0265  0.2958
 2846TIP3    H229954   5.976   5.480   1.807  0.4641  0.5842 -1.4933
 2847TIP3   OH229955   4.263   0.808  11.106  0.3859  0.2353  0.3533
 2847TIP3    H129956   4.282   0.731  11.159 -2.8264 -0.9183  0.0460
 2847TIP3    H229957   4.263   0.775  11.016  0.8003  1.0533  0.0427
 2848TIP3   OH229958   6.225   3.098   0.015  0.0779  0.1352  0.0423
 2848TIP3    H129959   6.231   3.011  -0.025 -0.5918 -0.7141  1.7101
 2848TIP3    H229960   6.306   3.106   0.067  0.7490  1.0635 -1.0999
 2849TIP3   OH229961   6.400   3.306  16.223  0.2202 -0.0183 -0.5039
 2849TIP3    H129962   6.492   3.278  16.228  0.0084 -1.0299 -1.6754
 2849TIP3    H229963   6.353   3.226  16.199 -0.7309  0.8912 -1.7457
 2850TIP3   OH229964   1.639   2.769   0.628 -0.2882 -0.0080 -0.3929
 2850TIP3    H129965   1.646   2.838   0.695 -2.5472 -0.8221  0.7924
 2850TIP3    H229966   1.729   2.750   0.604  0.6236  0.5856  2.1774
 2851TIP3   OH229967   4.886   4.213   1.949  0.1059 -0.2267 -0.3378
 2851TIP3    H129968   4.935   4.163   2.014 -1.6019 -0.7605  0.6017
 2851TIP3    H229969   4.952   4.267   1.905  1.5263 -0.9980  0.7727
 2852TIP3   OH229970   1.092   0.872  11.799 -0.0136  0.2184  0.2399
 2852TIP3    H129971   1.104   0.816  11.722 -1.9169 -0.5010  0.4090
 2852TIP3    H229972   0.999   0.862  11.821  0.4323  0.5841  2.5035
 2853TIP3   OH229973   5.261   3.194   5.441  0.5288 -0.3353  0.3115
 2853TIP3    H129974   5.355   3.185   5.460  0.3947 -0.7209  0.7938
 2853TIP3    H229975   5.222   3.114   5.476  0.4139 -1.6709 -2.5969
 2854TIP3   OH229976   5.168   4.461  12.569 -0.1961  0.6728  0.1586
 2854TIP3    H129977   5.172   4.374  12.530  3.2806  0.6651  0.2538
 2854TIP3    H229978   5.224   4.515  12.514  0.9606  1.8352  2.3372
 2855TIP3   OH229979   1.252   6.136   5.015 -0.0521 -0.3794 -0.0816
 2855TIP3    H129980   1.292   6.137   4.928  0.0389 -1.2542 -0.0542
 2855TIP3    H229981   1.218   6.047   5.026 -0.8653 -0.0253  0.4206
 2856TIP3   OH229982   0.953   4.303   4.959  0.5774 -0.5863 -0.2635
 2856TIP3    H129983   1.043   4.284   4.935  0.0556 -0.9694 -2.1517
 2856TIP3    H229984   0.946   4.398   4.952  0.6937 -0.6087 -0.7207
 2857TIP3   OH229985   0.045   6.013  16.596 -0.0659 -0.2825 -0.0995
 2857TIP3    H129986   0.140   6.015  16.598 -0.0526  1.6886 -0.9893
 2857TIP3    H229987   0.024   5.947  16.529  0.7280  0.6937 -1.3448
 2858TIP3   OH229988   4.241   2.398   3.507  0.0487 -0.1900  0.2991
 2858TIP3    H129989   4.278   2.312   3.489 -3.0915 -1.5157 -0.4710
 2858TIP3    H229990   4.218   2.395   3.600 -0.7331 -0.4884  0.1014
 2859TIP3   OH229991   4.613   6.484   2.540  0.4604  0.0835 -0.4799
 2859TIP3    H129992   4.610   6.435   2.458 -3.6553  1.0671 -1.1256
 2859TIP3    H229993   4.561   6.433   2.601 -0.1752  1.4495  0.1705
 2860TIP3   OH229994   6.474   6.451  12.672  0.0690 -0.0968 -0.2354
 2860TIP3    H129995   6.393   6.408  12.699 -0.4585  1.4953  0.8809
 2860TIP3    H229996   6.459   6.475  12.581 -0.3162 -0.6901 -0.3341
 2861TIP3   OH229997   2.278   5.307   0.712  0.0928 -0.5201 -0.0384
 2861TIP3    H129998   2.232   5.266   0.785 -1.0206 -0.2489 -0.5715
 2861TIP3    H229999   2.232   5.276   0.634 -0.1129  0.9228 -0.5099
 2862TIP3   OH230000   4.324   4.272   1.882 -0.2719 -0.0112  0.0119
 2862TIP3    H130001   4.355   4.267   1.792 -0.3700 -1.5359  0.0350
 2862TIP3    H230002   4.271   4.193   1.894  0.2285 -0.1478  1.5914
 2863TIP3   OH230003   2.868   3.728   1.467 -0.4460  0.2672  0.4577
 2863TIP3    H130004   2.952   3.771   1.480 -0.6964  1.3214 -1.1116
 2863TIP3    H230005   2.891   3.638   1.441  0.2507  0.7842 -0.8126
 2864TIP3   OH230006   0.891   6.455  12.389  0.2275  0.5541 -0.3463
 2864TIP3    H130007   0.814   6.438  12.335  0.4785 -3.0065  0.2022
 2864TIP3    H230008   0.881   6.397  12.464  1.8381  2.4774  1.5081
 2865TIP3   OH230009   6.110   4.898   1.668 -0.1961 -0.0183 -0.0616
 2865TIP3    H130010   6.078   4.969   1.724  0.8571 -0.6864  1.4848
 2865TIP3    H230011   6.176   4.939   1.612  0.5113  0.2555  0.9199
 2866TIP3   OH230012   0.360   3.022  17.233 -0.2100 -0.4123  0.2263
 2866TIP3    H130013   0.421   3.094  17.221 -0.4111 -0.5452 -2.1872
 2866TIP3    H230014   0.408   2.958  17.286 -0.2259  1.6162  2.8784
 2867TIP3   OH230015   6.251   3.255  10.575  0.1267  0.1847  0.4772
 2867TIP3    H130016   6.278   3.298  10.656  1.2005  0.9896 -0.2883
 2867TIP3    H230017   6.184   3.312  10.538  1.5280  1.2570 -0.5215
 2868TIP3   OH230018   2.100   6.341   0.637  0.1700 -0.1418  0.1475
 2868TIP3    H130019   2.084   6.414   0.577  0.6829 -0.9411 -1.0124
 2868TIP3    H230020   2.044   6.270   0.603  0.5402 -0.6373  0.5541
 2869TIP3   OH230021   4.954   1.859  16.233 -0.0984 -0.5772 -0.0659
 2869TIP3    H130022   4.870   1.817  16.216 -0.0738 -0.9449  0.6562
 2869TIP3    H230023   5.017   1.787  16.232  0.0558 -0.4530  0.3837
 2870TIP3   OH230024   0.842   5.231   1.720  0.1560  0.9566 -0.2948
 2870TIP3    H130025   0.760   5.235   1.671  0.1023  0.7042 -0.2303
 2870TIP3    H230026   0.904   5.188   1.661  0.4726  1.8873 -0.6500
 2871TIP3   OH230027   3.118   5.710   3.869  0.4045  0.2543  0.0955
 2871TIP3    H130028   3.102   5.619   3.843  1.0894  0.7524 -2.2996
 2871TIP3    H230029   3.192   5.704   3.930  0.8542 -0.7645 -0.5128
 2872TIP3   OH230030   5.217   4.872   5.733 -0.0160 -0.3311  0.1049
 2872TIP3    H130031   5.204   4.887   5.639  0.0055  0.6129  0.2350
 2872TIP3    H230032   5.266   4.949   5.763  1.7301 -1.5459  0.5354
 2873TIP3   OH230033   2.598   1.041   3.454 -0.0002 -0.1055 -0.3810
 2873TIP3    H130034   2.557   1.015   3.372  0.1541 -0.0420 -0.4772
 2873TIP3    H230035   2.691   1.025   3.441 -0.0408 -0.7347  0.0132
 2874TIP3   OH230036   0.270   3.723   5.360 -0.1108  0.0463  0.1272
 2874TIP3    H130037   0.317   3.806   5.346 -0.1991  0.3856  1.6701
 2874TIP3    H230038   0.216   3.739   5.437 -0.1586 -1.4381  0.4352
 2875TIP3   OH230039   3.123   2.245   2.705 -1.1757 -0.0062  0.3184
 2875TIP3    H130040   3.147   2.247   2.798  0.8642 -1.2515 -0.1320
 2875TIP3    H230041   3.061   2.317   2.695 -2.5003 -0.6830  2.9119
 2876TIP3   OH230042   3.011   3.491   6.103  0.1686 -0.3217 -0.0256
 2876TIP3    H130043   2.956   3.532   6.169 -1.5708  0.8140 -2.0590
 2876TIP3    H230044   2.983   3.400   6.101  0.4972 -0.4555  1.0200
 2877TIP3   OH230045   0.687   3.639   3.876  0.0778 -0.4115  0.1652
 2877TIP3    H130046   0.775   3.658   3.844  0.8575 -1.4406  1.5833
 2877TIP3    H230047   0.656   3.568   3.820 -0.5766  1.0601 -1.4374
 2878TIP3   OH230048   1.968   5.907  13.056  0.1408 -0.4466 -0.2806
 2878TIP3    H130049   2.020   5.987  13.048  0.2368 -0.4173  0.5625
 2878TIP3    H230050   1.877   5.937  13.062  0.2300 -0.3538  0.7182
 2879TIP3   OH230051   2.190   5.265   1.418  0.7283  0.4693  0.0410
 2879TIP3    H130052   2.199   5.241   1.326 -0.0100 -0.1311  0.1179
 2879TIP3    H230053   2.195   5.361   1.417  1.3520  0.4433 -0.5402
 2880TIP3   OH230054   2.902   2.667  12.145  0.3326  0.1139 -0.4464
 2880TIP3    H130055   2.824   2.637  12.098 -0.4167 -0.6072  1.1780
 2880TIP3    H230056   2.912   2.604  12.216  1.6686  0.9323  0.1170
 2881TIP3   OH230057   1.458   1.177   1.831 -0.0217  0.4459 -0.8130
 2881TIP3    H130058   1.464   1.156   1.924 -1.1946 -0.0612 -0.8281
 2881TIP3    H230059   1.546   1.205   1.806  0.7260 -1.0345  0.0495
 2882TIP3   OH230060   4.862   3.586   3.596  0.2854  0.1223 -0.3708
 2882TIP3    H130061   4.913   3.654   3.552 -0.7899  0.6313 -0.8550
 2882TIP3    H230062   4.908   3.505   3.574  2.1162  0.7193  0.9673
 2883TIP3   OH230063   2.943   0.720   6.096  0.1188 -0.3363 -0.8029
 2883TIP3    H130064   2.956   0.720   6.190 -0.7018 -2.3018 -0.6557
 2883TIP3    H230065   3.022   0.681   6.060  0.5935  0.7510 -0.9911
 2884TIP3   OH230066   4.234   5.786  13.201 -0.0093  0.1207  0.2024
 2884TIP3    H130067   4.242   5.694  13.226 -1.9964 -0.1420  0.0117
 2884TIP3    H230068   4.245   5.786  13.106 -1.5964 -0.1699 -0.0019
 2885TIP3   OH230069   1.245   5.847  15.837 -0.1336  0.1007 -0.0847
 2885TIP3    H130070   1.181   5.814  15.773 -0.6083  0.2557  0.3104
 2885TIP3    H230071   1.244   5.942  15.825  0.1979  0.0869 -0.2382
 2886TIP3   OH230072   6.680   0.909  13.269 -0.0998  0.3691 -0.4545
 2886TIP3    H130073   6.664   0.997  13.302 -0.2030  0.4974 -0.8402
 2886TIP3    H230074   6.700   0.857  13.347 -0.6169  0.6041 -0.1588
 2887TIP3   OH230075   4.565   0.282  17.140  0.3166  0.1928 -0.5207
 2887TIP3    H130076   4.586   0.231  17.218 -0.2033  0.1868 -0.3826
 2887TIP3    H230077   4.563   0.373  17.169  1.5514  0.3330 -0.8304
 2888TIP3   OH230078   0.573   4.474  13.862  0.1945 -0.4988 -0.0803
 2888TIP3    H130079   0.581   4.526  13.942  0.4290  0.4598 -0.7111
 2888TIP3    H230080   0.639   4.405  13.872  0.1993 -0.4092  0.5603
 2889TIP3   OH230081   6.205   5.317  10.395 -0.4075 -0.3983  0.0983
 2889TIP3    H130082   6.167   5.230  10.395  0.1045 -0.6268 -0.1410
 2889TIP3    H230083   6.267   5.317  10.469  0.2326 -0.5306 -0.4262
 2890TIP3   OH230084   1.831   5.427  16.088  0.6544 -0.6205 -0.0165
 2890TIP3    H130085   1.800   5.496  16.146  0.7841 -2.2626  2.1789
 2890TIP3    H230086   1.757   5.408  16.030  0.4904  1.0265 -0.3863
 2891TIP3   OH230087   5.387   3.450  13.740 -0.0345 -0.1906  0.0430
 2891TIP3    H130088   5.399   3.367  13.785  1.8399  0.2433  0.4494
 2891TIP3    H230089   5.298   3.447  13.705 -0.8484 -1.3573  2.0826
 2892TIP3   OH230090   1.391   2.727   2.421  0.1940 -0.1148  0.2495
 2892TIP3    H130091   1.357   2.685   2.500 -1.5641  1.0483  0.1794
 2892TIP3    H230092   1.485   2.739   2.439  0.6870 -3.3827  0.4895
 2893TIP3   OH230093   3.920   0.108  15.809 -0.2941  0.0335 -0.1033
 2893TIP3    H130094   3.902   0.014  15.811  0.6824 -0.1630  0.0773
 2893TIP3    H230095   3.850   0.147  15.861  0.0365 -0.7389  0.9614
 2894TIP3   OH230096   1.176   3.121  12.784 -0.2297 -0.3665 -0.2552
 2894TIP3    H130097   1.205   3.116  12.875 -0.3887  2.2841  0.0058
 2894TIP3    H230098   1.253   3.099  12.733  0.2657 -0.4220  0.5057
 2895TIP3   OH230099   4.821   3.535  16.647  0.0852 -0.0851  0.0652
 2895TIP3    H130100   4.843   3.532  16.554 -0.3476 -0.7216 -0.0276
 2895TIP3    H230101   4.725   3.529  16.649  0.1721 -2.2297  0.6014
 2896TIP3   OH230102   2.298   5.593  12.762 -0.5085  0.9176  0.1275
 2896TIP3    H130103   2.354   5.596  12.685  0.9602  0.7869  1.1347
 2896TIP3    H230104   2.228   5.656  12.744 -1.0796 -0.2206 -1.9190
 2897TIP3   OH230105   5.761   0.761   0.495 -0.4087  0.2974  0.0893
 2897TIP3    H130106   5.682   0.740   0.546  0.5199 -1.8205  0.7532
 2897TIP3    H230107   5.762   0.695   0.425 -0.9434  2.3394 -2.0014
 2898TIP3   OH230108   1.046   5.983  13.396 -0.4785 -0.0264  0.1948
 2898TIP3    H130109   1.108   5.922  13.356 -0.5005  0.3509 -0.4317
 2898TIP3    H230110   1.024   5.943  13.480  1.7386  0.5280  1.1181
 2899TIP3   OH230111   1.007   0.439  13.702 -0.3415 -0.2073 -1.1474
 2899TIP3    H130112   1.022   0.456  13.609  1.6560 -2.9696 -1.4391
 2899TIP3    H230113   1.023   0.345  13.713  0.9696  0.2681  2.2448
 2900TIP3   OH230114   4.781   0.551  14.527  0.8372 -0.3431  0.3721
 2900TIP3    H130115   4.699   0.510  14.498  0.6640 -0.3247  0.8304
 2900TIP3    H230116   4.774   0.641  14.497 -0.0557  0.1057  1.8469
 2901TIP3   OH230117   4.628   6.437  11.217  0.3027  0.4329  0.4159
 2901TIP3    H130118   4.553   6.382  11.193  0.5246 -0.2347  1.2066
 2901TIP3    H230119   4.641   6.494  11.141 -0.7539  0.2898  0.1029
 2902TIP3   OH230120   2.615   6.330   6.119 -0.5954 -0.0284 -0.7989
 2902TIP3    H130121   2.629   6.417   6.082  0.3235  0.0433 -0.3084
 2902TIP3    H230122   2.675   6.273   6.069 -1.3067 -0.4144 -1.2255
 2903TIP3   OH230123   1.898   3.589   6.421 -0.5932 -0.0246  0.4435
 2903TIP3    H130124   1.909   3.575   6.327  0.9957 -0.1987  0.6188
 2903TIP3    H230125   1.826   3.652   6.428 -1.2396 -0.5888 -0.8344
 2904TIP3   OH230126   1.517   3.462   2.635 -0.0597  0.2143 -0.1270
 2904TIP3    H130127   1.510   3.494   2.545 -0.1350  1.7847  0.4066
 2904TIP3    H230128   1.605   3.488   2.663 -0.2541  0.2533  0.4527
 2905TIP3   OH230129   1.109   3.210   1.793  0.0194 -0.0248 -0.4015
 2905TIP3    H130130   1.194   3.171   1.775  1.0663  1.2406  1.4221
 2905TIP3    H230131   1.045   3.148   1.757  1.6729 -1.4156 -1.0661
 2906TIP3   OH230132   3.265   0.227   3.108  0.0300 -0.0122 -0.0270
 2906TIP3    H130133   3.253   0.257   3.018  0.4023  0.7829  0.1800
 2906TIP3    H230134   3.337   0.164   3.104  0.0483  0.0266 -0.2798
 2907TIP3   OH230135   4.413   0.556   1.849 -0.2158  0.7005  0.8313
 2907TIP3    H130136   4.367   0.496   1.791  0.1000  1.9280 -0.7460
 2907TIP3    H230137   4.357   0.633   1.854  0.7274  1.4326  0.4590
 2908TIP3   OH230138   5.771   6.368   3.938  0.4958 -0.4753  0.2899
 2908TIP3    H130139   5.767   6.452   3.892  0.2875 -0.4820  0.2922
 2908TIP3    H230140   5.810   6.308   3.875 -2.3666 -1.1876 -0.9986
 2909TIP3   OH230141   0.921   2.121  11.837 -0.4083 -0.4356  0.3969
 2909TIP3    H130142   0.878   2.206  11.824 -0.8265 -0.6881  0.0847
 2909TIP3    H230143   0.851   2.064  11.867 -1.2032 -1.7448 -3.3533
 2910TIP3   OH230144   2.130   2.620  12.327 -0.1342  0.0545  0.3218
 2910TIP3    H130145   2.128   2.716  12.322  1.5466  0.1254  0.2041
 2910TIP3    H230146   2.130   2.602  12.421 -0.8596  0.1411  0.3433
 2911TIP3   OH230147   4.941   3.292  11.524  0.0518  0.9100 -0.0853
 2911TIP3    H130148   4.849   3.308  11.545  0.3337  0.7778  1.3381
 2911TIP3    H230149   4.973   3.235  11.594  0.9898  0.2000 -1.0535
 2912TIP3   OH230150   0.088   4.756   2.078  0.0784  0.6256 -0.1938
 2912TIP3    H130151   0.042   4.743   1.995  0.4941  1.3491 -0.5483
 2912TIP3    H230152   0.156   4.820   2.057  0.9998 -0.1435  0.4080
 2913TIP3   OH230153   1.580   3.797  12.930  0.1826  0.4107 -0.1913
 2913TIP3    H130154   1.577   3.707  12.962  0.6801  0.0196 -1.1939
 2913TIP3    H230155   1.617   3.790  12.842  1.4320  1.7313  0.1902
 2914TIP3   OH230156   1.141   2.721   0.677  0.0397 -0.5024 -0.0971
 2914TIP3    H130157   1.173   2.790   0.735 -0.5670 -0.5670  0.3245
 2914TIP3    H230158   1.203   2.719   0.605  0.5082 -0.0593  0.2913
 2915TIP3   OH230159   5.772   2.622   3.087  0.0300 -0.7640  0.0056
 2915TIP3    H130160   5.759   2.701   3.034 -0.7057 -1.4524 -0.8718
 2915TIP3    H230161   5.764   2.550   3.025  2.7182 -1.5082  0.4052
 2916TIP3   OH230162   6.603   6.092  11.116  0.3072 -0.3052 -0.1869
 2916TIP3    H130163   6.582   6.036  11.041 -1.7150 -0.4517  0.4273
 2916TIP3    H230164   6.610   6.180  11.079  0.8076 -0.5855 -0.7648
 2917TIP3   OH230165   5.497   2.225  16.759 -0.2742 -0.0464 -0.1611
 2917TIP3    H130166   5.574   2.184  16.800  0.5986  2.0628  0.4563
 2917TIP3    H230167   5.454   2.154  16.713  2.3748 -1.2236 -1.0357
 2918TIP3   OH230168   0.628   0.669  15.400 -0.3866 -0.2238  0.2078
 2918TIP3    H130169   0.708   0.698  15.443 -0.1804 -0.3755 -0.0760
 2918TIP3    H230170   0.559   0.725  15.438 -0.1594 -0.1376  0.4960
 2919TIP3   OH230171   4.298   4.677  13.026  0.3678 -0.1432 -0.3386
 2919TIP3    H130172   4.282   4.762  12.983 -0.0793 -0.5663 -1.0377
 2919TIP3    H230173   4.312   4.699  13.118 -2.5449  0.4936  0.0719
 2920TIP3   OH230174   4.769   1.760   3.613 -0.0672 -0.3118 -0.2680
 2920TIP3    H130175   4.830   1.834   3.615 -0.5188  0.0615  1.3612
 2920TIP3    H230176   4.813   1.692   3.664 -0.3435 -0.5950 -0.4029
 2921TIP3   OH230177   3.359   5.387  13.897 -0.0664 -0.3785 -0.9189
 2921TIP3    H130178   3.419   5.444  13.849  0.4593  0.0127  0.1661
 2921TIP3    H230179   3.328   5.324  13.832  0.4149  0.2916 -1.8190
 2922TIP3   OH230180   4.000   2.759  15.879 -0.0130 -0.7256  0.9383
 2922TIP3    H130181   3.984   2.849  15.908 -0.4994 -0.6378  0.4222
 2922TIP3    H230182   3.970   2.705  15.952  0.8197 -0.4563  1.4830
 2923TIP3   OH230183   2.876   3.931   4.266 -0.1954  0.3120 -0.0799
 2923TIP3    H130184   2.849   3.927   4.174  0.1631 -0.4701 -0.1645
 2923TIP3    H230185   2.911   4.019   4.277 -1.1239  0.7424 -0.4348
 2924TIP3   OH230186   5.511   3.584  15.645 -0.3972  0.6505 -0.2326
 2924TIP3    H130187   5.511   3.667  15.598  0.2147  0.1903 -1.0725
 2924TIP3    H230188   5.426   3.582  15.690 -0.6819  1.4339 -0.7093
 2925TIP3   OH230189   1.387   3.608  11.553  0.3242  0.5402 -0.3557
 2925TIP3    H130190   1.336   3.546  11.605 -0.1760  0.0828 -1.3607
 2925TIP3    H230191   1.443   3.652  11.616  1.0481 -1.2800  0.3507
 2926TIP3   OH230192   5.991   6.640   0.311 -0.7107  0.2987  0.1512
 2926TIP3    H130193   5.997   6.567   0.374 -0.6193 -0.2450 -0.4813
 2926TIP3    H230194   6.032   6.714   0.357  0.9305 -0.5262  0.1043
 2927TIP3   OH230195   1.348   6.233   1.062 -0.7032 -0.0789  0.5252
 2927TIP3    H130196   1.308   6.210   1.146 -0.2635 -1.0028  0.4933
 2927TIP3    H230197   1.432   6.187   1.063 -1.5493 -1.8002 -1.2710
 2928TIP3   OH230198   5.668   0.617  15.028 -0.4258  0.2585  0.3623
 2928TIP3    H130199   5.730   0.652  14.965 -0.5350 -1.0848 -0.5216
 2928TIP3    H230200   5.703   0.644  15.113  0.5535  0.7705 -0.1856
 2929TIP3   OH230201   4.736   0.172  16.246 -0.0904  0.1624 -0.0698
 2929TIP3    H130202   4.738   0.240  16.178  1.2749  1.6057  1.3186
 2929TIP3    H230203   4.797   0.105  16.214  0.9553  1.0799 -0.0466
 2930TIP3   OH230204   2.749   3.505  14.229 -0.5362  0.0668  0.4490
 2930TIP3    H130205   2.669   3.456  14.209 -0.6919  0.4348  0.1491
 2930TIP3    H230206   2.793   3.454  14.297  0.7292 -2.0502 -1.7914
 2931TIP3   OH230207   3.402   0.519  11.618 -0.1863 -0.4055  0.3844
 2931TIP3    H130208   3.473   0.459  11.596  1.2208  1.2099  0.2973
 2931TIP3    H230209   3.360   0.480  11.695  0.7148 -1.4655  0.3544
 2932TIP3   OH230210   5.082   0.153  13.009 -0.0624  0.6154 -0.5396
 2932TIP3    H130211   5.059   0.203  13.087 -0.8072  0.4842 -0.6760
 2932TIP3    H230212   5.167   0.188  12.982  1.0016 -0.4071  1.2618
 2933TIP3   OH230213   2.214   2.699  12.031 -0.7883  0.2803  0.0122
 2933TIP3    H130214   2.126   2.721  12.001 -0.5940  1.4310  0.2698
 2933TIP3    H230215   2.217   2.727  12.122 -0.3979 -0.4720  0.2422
 2934TIP3   OH230216   1.191   4.718  13.488 -0.0604  0.2280  0.0603
 2934TIP3    H130217   1.125   4.750  13.549 -0.5376 -2.1954  0.9325
 2934TIP3    H230218   1.142   4.666  13.425  0.8339 -0.2572 -0.2560
 2935TIP3   OH230219   0.815   2.985  12.499  0.0787 -0.5331 -0.0906
 2935TIP3    H130220   0.812   2.907  12.553 -1.4080 -0.8131 -0.5373
 2935TIP3    H230221   0.726   2.994  12.464  1.0037 -0.5204 -2.6690
 2936TIP3   OH230222   6.386   0.343  15.192 -0.1931  0.1361  0.3370
 2936TIP3    H130223   6.332   0.416  15.160  0.1757  0.1170 -0.3360
 2936TIP3    H230224   6.364   0.270  15.135 -0.3476 -0.2086  0.8326
 2937TIP3   OH230225   4.727   0.250   2.805  0.0871  0.0031 -0.7461
 2937TIP3    H130226   4.664   0.183   2.828 -0.2695 -0.1364 -2.0547
 2937TIP3    H230227   4.800   0.202   2.764 -0.4598  0.4286 -2.2949
 2938TIP3   OH230228   6.104   0.866  14.991 -0.0484 -0.5320 -0.3040
 2938TIP3    H130229   6.173   0.868  15.058 -0.2327  2.0849 -0.1005
 2938TIP3    H230230   6.023   0.863  15.041 -0.1553 -1.3192 -0.5061
 2939TIP3   OH230231   0.360   4.930  13.586  0.0879 -0.5789 -0.1313
 2939TIP3    H130232   0.394   4.904  13.500  0.6085  0.4558 -0.2640
 2939TIP3    H230233   0.293   4.996  13.565  0.0872 -0.4619  0.2441
 2940TIP3   OH230234   3.470   3.810   4.310  0.3962  0.0963  0.6595
 2940TIP3    H130235   3.555   3.814   4.355 -0.3715  0.3416  2.1723
 2940TIP3    H230236   3.429   3.894   4.329  0.0893  0.2535 -0.6526
 2941TIP3   OH230237   1.710   2.766   0.290  0.0079  0.2942 -0.0231
 2941TIP3    H130238   1.648   2.692   0.296 -2.1099  2.0096  0.7555
 2941TIP3    H230239   1.780   2.744   0.351  0.1123 -1.6382 -0.7739
 2942TIP3   OH230240   1.082   2.685  11.881  0.0479 -0.2344 -0.3426
 2942TIP3    H130241   1.024   2.688  11.805  1.2083 -0.6576 -1.2873
 2942TIP3    H230242   1.070   2.770  11.923 -0.5781  0.0332 -1.0332
 2943TIP3   OH230243   3.552   5.866  14.628 -0.7465  0.0167 -0.2907
 2943TIP3    H130244   3.457   5.854  14.622 -0.7754 -0.4757  0.9620
 2943TIP3    H230245   3.564   5.932  14.696 -0.1956  0.3495 -0.7010
 2944TIP3   OH230246   0.860   5.436  15.952  0.0771 -0.6607 -0.2044
 2944TIP3    H130247   0.951   5.443  15.981 -0.0822 -1.0687  0.4152
 2944TIP3    H230248   0.824   5.364  16.003 -0.6650 -0.3454 -0.2705
 2945TIP3   OH230249   5.160   3.775   2.780  0.0677 -0.2311  0.0332
 2945TIP3    H130250   5.092   3.714   2.808 -1.5946  1.3309 -0.3720
 2945TIP3    H230251   5.171   3.759   2.686  1.3900 -1.4914  0.3721
 2946TIP3   OH230252   6.004   1.096  15.958 -0.8064  0.1577 -0.1344
 2946TIP3    H130253   5.993   1.127  15.868 -1.2561  1.4523  0.3510
 2946TIP3    H230254   5.939   1.026  15.967  2.7639 -3.9389 -2.4664
 2947TIP3   OH230255   2.718   4.941  15.352  0.1730 -0.3325  0.5426
 2947TIP3    H130256   2.676   4.924  15.268 -0.5372 -1.2067  1.0583
 2947TIP3    H230257   2.775   4.866  15.367  1.6559  0.6479  0.0456
 2948TIP3   OH230258   1.946   5.836   1.662 -0.5862 -0.5377  0.5432
 2948TIP3    H130259   2.038   5.813   1.676  0.4550  2.5643 -0.2846
 2948TIP3    H230260   1.906   5.827   1.748  0.7867 -0.8200  1.1883
 2949TIP3   OH230261   6.598   3.108  15.097 -0.2565  0.2487  1.1391
 2949TIP3    H130262   6.525   3.169  15.084 -0.2745 -0.0040 -0.0421
 2949TIP3    H230263   6.556   3.024  15.116 -0.2498  0.3800  1.7343
 2950TIP3   OH230264   5.303   1.517  13.396  0.0592 -0.5558 -0.5158
 2950TIP3    H130265   5.388   1.561  13.396 -0.3296  0.2211 -0.9649
 2950TIP3    H230266   5.308   1.455  13.469  1.2179 -0.9474 -0.9071
 2951TIP3   OH230267   4.077   5.727   2.865  0.3564 -0.5255 -0.4022
 2951TIP3    H130268   4.049   5.671   2.938  1.8043 -0.2600  0.3976
 2951TIP3    H230269   4.047   5.814   2.889  1.1280 -0.3769  0.0777
 2952TIP3   OH230270   5.778   2.578  16.418  0.4004 -0.2207 -0.2226
 2952TIP3    H130271   5.770   2.483  16.428  0.8257 -0.5092 -2.1490
 2952TIP3    H230272   5.740   2.614  16.498  0.6411 -2.0168  0.7588
 2953TIP3   OH230273   2.592   6.008  15.178 -0.4528  0.7912 -0.4677
 2953TIP3    H130274   2.668   5.951  15.191  0.5024  2.2274  0.5496
 2953TIP3    H230275   2.540   5.996  15.258 -1.8346 -0.9119 -1.5714
 2954TIP3   OH230276   6.708   6.655  15.309 -0.3777 -0.3477  0.0486
 2954TIP3    H130277   6.794   6.694  15.327  1.0161 -3.8560  2.1971
 2954TIP3    H230278   6.723   6.599  15.233 -1.3224  0.4309 -0.7294
 2955TIP3   OH230279   3.115   4.673  12.118  0.1979 -0.4269 -0.3963
 2955TIP3    H130280   3.210   4.684  12.129  0.2635 -1.3765  0.1657
 2955TIP3    H230281   3.107   4.608  12.048  0.0154 -1.3137  0.4219
 2956TIP3   OH230282   2.547   4.123   4.116 -0.0057 -0.1127 -0.5892
 2956TIP3    H130283   2.513   4.045   4.161 -1.3471  0.9267  0.2807
 2956TIP3    H230284   2.476   4.151   4.059  1.2892 -0.7715 -2.6209
 2957TIP3   OH230285   5.544   1.263   6.314  0.2912  0.2875 -0.2175
 2957TIP3    H130286   5.541   1.298   6.403  0.3440  0.1975 -0.1803
 2957TIP3    H230287   5.637   1.263   6.292  0.3407 -0.3019 -0.0301
 2958TIP3   OH230288   1.590   6.121   5.190 -0.1410 -0.5736  0.0262
 2958TIP3    H130289   1.528   6.048   5.189  1.0330 -1.6189 -1.2525
 2958TIP3    H230290   1.593   6.151   5.099 -0.9636  1.4495  0.5985
 2959TIP3   OH230291   6.467   0.349  11.162 -0.2073  0.5797 -0.6048
 2959TIP3    H130292   6.528   0.344  11.088 -0.5845  1.1425 -0.9599
 2959TIP3    H230293   6.474   0.263  11.205  3.7614  1.8380  1.7464
 2960TIP3   OH230294   3.592   2.062   3.803 -0.0362 -0.5450 -0.4297
 2960TIP3    H130295   3.555   2.126   3.863  0.3155 -1.9191  1.3293
 2960TIP3    H230296   3.679   2.097   3.782  1.1505 -1.4654  2.4135
 2961TIP3   OH230297   3.770   2.424   5.145 -0.1447 -0.1004 -0.2969
 2961TIP3    H130298   3.682   2.447   5.177  0.3744  0.5587  0.7191
 2961TIP3    H230299   3.799   2.354   5.203 -1.2172 -2.6304 -2.6176
 2962TIP3   OH230300   3.219   3.966   2.182  0.3237 -0.2330  0.6539
 2962TIP3    H130301   3.138   3.983   2.133  1.7841  2.3453 -1.0596
 2962TIP3    H230302   3.188   3.934   2.267 -2.4510 -0.2295 -0.2374
 2963TIP3   OH230303   3.604   1.554   1.221 -0.0323 -0.4139  0.2341
 2963TIP3    H130304   3.548   1.624   1.255  0.7962  0.0314  0.7244
 2963TIP3    H230305   3.570   1.475   1.263  0.7513  0.0789  1.9125
 2964TIP3   OH230306   4.765   5.192  17.066 -0.0279  0.0354  0.6293
 2964TIP3    H130307   4.857   5.182  17.092  1.1489  1.1929 -2.5220
 2964TIP3    H230308   4.770   5.220  16.974 -3.5560  0.6077  0.4951
 2965TIP3   OH230309   3.522   5.181   6.172  0.8689  0.1019  0.2040
 2965TIP3    H130310   3.505   5.087   6.176  3.0081 -0.3056  1.0735
 2965TIP3    H230311   3.462   5.220   6.236 -1.1853 -0.4389 -1.3372
 2966TIP3   OH230312   2.801   2.124   2.823  0.2254 -0.4121 -0.1085
 2966TIP3    H130313   2.720   2.103   2.868 -0.4927  0.5362 -0.9106
 2966TIP3    H230314   2.853   2.170   2.888 -0.1468 -0.4533  0.2203
 2967TIP3   OH230315   0.122   1.679  17.102 -0.0114  0.0698 -0.8010
 2967TIP3    H130316   0.214   1.690  17.123 -0.0807  0.0274 -0.4706
 2967TIP3    H230317   0.099   1.756  17.049 -0.2324  0.9945  0.5887
 2968TIP3   OH230318   3.426   1.836  14.783  0.1649 -0.0177  0.2193
 2968TIP3    H130319   3.392   1.747  14.786 -0.0076  0.0602  0.7338
 2968TIP3    H230320   3.388   1.874  14.703  1.4354 -0.8695 -0.8206
 2969TIP3   OH230321   5.505   1.636   1.926 -0.1067 -0.4853 -0.3145
 2969TIP3    H130322   5.572   1.677   1.870 -0.5228 -0.0116 -0.4741
 2969TIP3    H230323   5.540   1.549   1.945  1.4390  0.3820  1.1254
 2970TIP3   OH230324   4.359   4.610  14.119 -0.1636  0.0220  0.6134
 2970TIP3    H130325   4.322   4.668  14.186  1.1156  1.3480  0.2123
 2970TIP3    H230326   4.415   4.550  14.169  1.1056  1.2632  0.7304
 2971TIP3   OH230327   5.330   2.867   2.314 -0.0421 -0.6432 -0.1154
 2971TIP3    H130328   5.322   2.930   2.242 -1.1406 -0.5796  0.0422
 2971TIP3    H230329   5.329   2.781   2.270  1.9558 -0.5796 -0.3717
 2972TIP3   OH230330   4.702   1.318   4.954 -0.0492 -0.2100 -0.2118
 2972TIP3    H130331   4.718   1.227   4.981 -1.8677  0.0340  2.0902
 2972TIP3    H230332   4.750   1.370   5.019 -2.1584  0.4140  0.9369
 2973TIP3   OH230333   4.786   3.688  11.448 -0.6027  0.1280  0.4716
 2973TIP3    H130334   4.852   3.748  11.482 -0.4488  0.7042 -0.7875
 2973TIP3    H230335   4.830   3.642  11.376 -1.0284 -0.7956  0.7843
 2974TIP3   OH230336   3.350   6.710   0.787  0.3964  0.1172  0.0341
 2974TIP3    H130337   3.412   6.648   0.825 -0.3684  0.3875  1.8236
 2974TIP3    H230338   3.389   6.735   0.703  0.9142 -2.4282 -0.5451
 2975TIP3   OH230339   3.990   4.851   3.086  0.0307  0.4745 -0.1769
 2975TIP3    H130340   3.933   4.781   3.116  1.3446 -0.0969  1.1155
 2975TIP3    H230341   4.025   4.820   3.003  0.4478 -0.3274  0.2936
 2976TIP3   OH230342   2.132   3.581   5.290 -0.1986 -0.1607 -0.1528
 2976TIP3    H130343   2.165   3.622   5.370  0.7036  1.2788 -1.2155
 2976TIP3    H230344   2.182   3.500   5.283  0.5847  0.2788  0.1411
 2977TIP3   OH230345   1.274   2.739  11.523 -0.5182  0.2739 -1.1656
 2977TIP3    H130346   1.367   2.756  11.515 -0.5404 -0.2055 -2.8042
 2977TIP3    H230347   1.239   2.815  11.569  0.7996  0.0005  0.4000
 2978TIP3   OH230348   2.690   1.802   4.425  0.6853 -0.5030  0.3069
 2978TIP3    H130349   2.640   1.763   4.497 -0.0389  1.7277  1.0973
 2978TIP3    H230350   2.623   1.826   4.361  0.9627  0.5839  0.4169
 2979TIP3   OH230351   3.342   1.002   3.422  0.2697 -0.2821 -0.5696
 2979TIP3    H130352   3.326   1.029   3.331  2.5557 -1.1640 -1.3223
 2979TIP3    H230353   3.289   0.923   3.434  0.7374 -0.7636 -1.5287
 2980TIP3   OH230354   4.774   2.817  17.099  0.1936 -0.5492 -0.4355
 2980TIP3    H130355   4.794   2.827  17.192 -0.3264 -0.7430 -0.2986
 2980TIP3    H230356   4.843   2.760  17.066  2.3708  2.1707 -0.9171
 2981TIP3   OH230357   0.320   6.534  17.302 -0.2036  0.2619  0.1472
 2981TIP3    H130358   0.333   6.624  17.275  0.0533  0.3419  0.5269
 2981TIP3    H230359   0.322   6.537  17.398  1.1771 -0.3338  0.1552
 2982TIP3   OH230360   3.522   2.394   4.801  0.4278  0.0179  0.1788
 2982TIP3    H130361   3.609   2.420   4.772  0.6383 -2.1441 -1.4493
 2982TIP3    H230362   3.467   2.471   4.787  1.8158  1.0050 -0.0057
 2983TIP3   OH230363   6.086   5.569   3.108  0.7706  0.0298  0.2730
 2983TIP3    H130364   6.170   5.524   3.116  0.4466 -0.3545  1.7038
 2983TIP3    H230365   6.058   5.585   3.198 -0.1676  1.1507 -0.1884
 2984TIP3   OH230366   1.764   4.334  15.123 -0.0940  0.5616  0.3929
 2984TIP3    H130367   1.717   4.410  15.157 -0.2230  0.8796 -0.4588
 2984TIP3    H230368   1.696   4.269  15.107 -0.1889  0.8366 -0.3533
 2985TIP3   OH230369   0.419   5.871  17.191 -0.0646 -0.3785  0.2700
 2985TIP3    H130370   0.430   5.811  17.266 -1.0853 -2.1332 -0.9010
 2985TIP3    H230371   0.489   5.935  17.201 -0.1203 -0.6012  2.6749
 2986TIP3   OH230372   5.845   5.017  17.161  0.0996  0.7564  0.0604
 2986TIP3    H130373   5.879   5.098  17.200  0.9049 -0.2703  1.5871
 2986TIP3    H230374   5.791   4.978  17.230  0.2340 -0.3190 -0.4220
 2987TIP3   OH230375   0.503   0.078   5.212 -0.2258  0.0015  0.2127
 2987TIP3    H130376   0.516  -0.013   5.188  0.1985 -0.1282  0.9119
 2987TIP3    H230377   0.442   0.112   5.146  1.4108 -0.1401 -1.4510
 2988TIP3   OH230378   5.271   0.378  13.914  0.6494  0.3352 -0.3572
 2988TIP3    H130379   5.328   0.429  13.856 -0.6133  1.1020 -0.9628
 2988TIP3    H230380   5.222   0.320  13.856 -0.5804  1.0568 -0.0693
 2989TIP3   OH230381   0.538   5.166   0.326  0.3492 -0.1320  0.4694
 2989TIP3    H130382   0.487   5.199   0.252 -0.2633 -0.8491  0.5696
 2989TIP3    H230383   0.615   5.125   0.286  0.8351  0.8876  0.3166
 2990TIP3   OH230384   5.302   2.439   0.984  0.5315  0.3259  0.2983
 2990TIP3    H130385   5.270   2.495   1.055  1.3875  0.7046  0.4034
 2990TIP3    H230386   5.304   2.351   1.022  0.5814  0.4600  0.6065
 2991TIP3   OH230387   0.950   3.406   0.157  0.1656  0.0438 -0.0508
 2991TIP3    H130388   0.924   3.498   0.157  0.3126  0.0868 -0.1391
 2991TIP3    H230389   1.040   3.407   0.122  1.3219  0.1864  2.6662
 2992TIP3   OH230390   3.180   0.415  13.834  0.2110  0.4773  0.7244
 2992TIP3    H130391   3.096   0.371  13.822  0.6604 -0.5064  1.0485
 2992TIP3    H230392   3.174   0.454  13.921 -0.0478  0.7241  0.5962
 2993TIP3   OH230393   5.939   6.769   5.376 -0.1020 -0.2592 -0.2859
 2993TIP3    H130394   5.877   6.820   5.428  0.8668  0.3887  0.2598
 2993TIP3    H230395   6.003   6.735   5.439  1.6373  1.3217 -1.0983
 2994TIP3   OH230396   2.917   1.363   1.948  0.1260  0.3437 -0.2683
 2994TIP3    H130397   2.877   1.308   1.880 -0.8849  0.2533  0.3706
 2994TIP3    H230398   2.879   1.450   1.935 -0.9833  0.0667  0.8634
 2995TIP3   OH230399   1.734   2.445   4.816  0.0974 -0.0456 -0.7612
 2995TIP3    H130400   1.768   2.510   4.756 -1.1275 -0.1879 -1.6399
 2995TIP3    H230401   1.672   2.394   4.764 -1.4999  0.2480  0.7669
 2996TIP3   OH230402   5.020   1.513   5.893 -0.2404 -0.1829 -0.0944
 2996TIP3    H130403   5.016   1.543   5.984 -0.4235  1.0089 -0.4798
 2996TIP3    H230404   5.054   1.424   5.899 -0.5334 -0.2367  1.1617
 2997TIP3   OH230405   4.129   6.729   1.320 -0.2440  0.6918  0.3027
 2997TIP3    H130406   4.055   6.787   1.303 -1.6946 -0.9088  0.8335
 2997TIP3    H230407   4.112   6.652   1.265  2.2748  1.1766 -1.3628
 2998TIP3   OH230408   5.002   5.920  11.840 -0.1898  0.4754 -0.2800
 2998TIP3    H130409   5.049   5.838  11.848 -0.6291  0.2505  0.0497
 2998TIP3    H230410   5.070   5.988  11.844  0.3435  0.0928 -2.1169
 2999TIP3   OH230411   3.787   1.502  16.551 -0.4348  0.4986  1.1277
 2999TIP3    H130412   3.752   1.435  16.492 -0.1980 -0.2147  1.7664
 2999TIP3    H230413   3.819   1.571  16.493 -2.1483  0.8068  0.5114
 3000TIP3   OH230414   2.942   3.242  11.047 -0.4635 -0.1575  0.4641
 3000TIP3    H130415   3.024   3.272  11.088 -0.0125 -1.0846  0.2708
 3000TIP3    H230416   2.971   3.191  10.971 -1.2134 -0.7765  0.5819
 3001TIP3   OH230417   1.409   2.987   2.286 -0.2086  0.4593  0.8277
 3001TIP3    H130418   1.451   2.902   2.300 -0.3712  0.5213  1.8083
 3001TIP3    H230419   1.451   3.046   2.349 -0.3450  1.0179  0.4089
 3002TIP3   OH230420   1.918   4.107   1.563  0.0181  0.1297 -0.7936
 3002TIP3    H130421   1.962   4.039   1.614  1.2019  2.1516  1.0652
 3002TIP3    H230422   1.827   4.078   1.557 -0.1490 -0.3587  2.3762
 3003TIP3   OH230423   3.111   0.676   0.700 -0.9218  0.4632  0.5584
 3003TIP3    H130424   3.040   0.689   0.637  1.0877  3.4608 -1.3052
 3003TIP3    H230425   3.188   0.657   0.646  0.5887  1.7468  2.1466
 3004TIP3   OH230426   4.987   3.194  13.769 -0.3792 -0.2206  0.3732
 3004TIP3    H130427   4.950   3.237  13.846 -2.2444  0.0978 -0.6229
 3004TIP3    H230428   5.049   3.130  13.804 -3.1820 -2.0796  2.3596
 3005TIP3   OH230429   0.859   6.374  12.904  0.1197  0.3522 -0.2198
 3005TIP3    H130430   0.794   6.441  12.924  0.5056  0.7155 -0.1733
 3005TIP3    H230431   0.942   6.409  12.937  0.4049  0.0544 -0.6003
 3006TIP3   OH230432   5.716   1.515   1.552 -0.1815 -0.1029  0.3694
 3006TIP3    H130433   5.675   1.439   1.511 -0.9376 -0.2341  1.3322
 3006TIP3    H230434   5.711   1.584   1.486  1.3110 -1.0971 -0.8491
 3007TIP3   OH230435   0.809   1.775  15.981 -0.7160  0.3915 -0.1341
 3007TIP3    H130436   0.724   1.770  16.025 -1.7263 -0.4419 -2.0768
 3007TIP3    H230437   0.810   1.701  15.920  1.4445  0.3371 -0.1345
 3008TIP3   OH230438   2.125   3.428   3.644 -0.1575 -0.1226  0.4134
 3008TIP3    H130439   2.218   3.418   3.666  0.1123 -0.2600 -0.6837
 3008TIP3    H230440   2.091   3.339   3.641 -0.1350 -0.1231  0.0936
 3009TIP3   OH230441   0.026   0.761  12.111 -0.4076 -0.2222 -0.0811
 3009TIP3    H130442   0.108   0.803  12.136 -1.2512  1.9285 -0.7016
 3009TIP3    H230443   0.038   0.738  12.019  0.9228 -3.7115  0.8173
 3010TIP3   OH230444   3.591   1.532   5.323  0.3036 -0.2167 -0.2705
 3010TIP3    H130445   3.610   1.576   5.406 -0.1223  0.2487 -0.4185
 3010TIP3    H230446   3.654   1.459   5.320  1.4750  0.7613 -0.3468
 3011TIP3   OH230447   3.395   4.131  15.295  0.3274 -0.2123 -0.0530
 3011TIP3    H130448   3.354   4.185  15.228 -2.3272 -0.8054  0.9771
 3011TIP3    H230449   3.398   4.186  15.373  2.0599 -0.0134 -0.2117
 3012TIP3   OH230450   5.496   0.365  13.092 -0.1876 -0.4821 -0.0814
 3012TIP3    H130451   5.555   0.291  13.076  0.4994 -0.2247  1.1079
 3012TIP3    H230452   5.430   0.331  13.153  0.2983 -0.0701  0.7012
 3013TIP3   OH230453   6.060   3.687  13.702  0.1098 -0.3299  0.3457
 3013TIP3    H130454   5.979   3.706  13.749 -0.3853  1.1916 -1.0614
 3013TIP3    H230455   6.040   3.610  13.650 -0.7727  0.6006 -0.7273
 3014TIP3   OH230456   4.739   2.490   2.825 -0.2154  0.4165  0.2018
 3014TIP3    H130457   4.682   2.433   2.877  1.1178  1.5219  3.1451
 3014TIP3    H230458   4.700   2.577   2.833  0.9229  0.8989  0.9120
 3015TIP3   OH230459   4.456   3.923   6.184 -0.5775  0.2886  0.7961
 3015TIP3    H130460   4.536   3.937   6.134 -0.7995 -0.3634  0.2365
 3015TIP3    H230461   4.414   3.848   6.141 -0.9959 -0.0046  1.6844
 3016TIP3   OH230462   2.843   2.274   3.069  0.2448  0.0113  0.1127
 3016TIP3    H130463   2.839   2.213   3.142 -1.1669  0.1789  0.1993
 3016TIP3    H230464   2.760   2.321   3.072 -0.2636 -0.6243 -2.1471
 3017TIP3   OH230465   6.536   3.112   1.152  0.2194  0.3835 -0.1014
 3017TIP3    H130466   6.469   3.159   1.103 -1.9187 -1.6445  0.7140
 3017TIP3    H230467   6.573   3.178   1.211 -0.8931  1.5994 -0.7234
 3018TIP3   OH230468   1.286   4.179  15.331  0.4192 -0.5797  0.0345
 3018TIP3    H130469   1.203   4.165  15.285  1.2106  1.3447 -2.1568
 3018TIP3    H230470   1.330   4.094  15.327 -0.0728 -0.7968 -1.7569
 3019TIP3   OH230471   2.856   0.744  16.880 -0.2339  0.3219 -0.5060
 3019TIP3    H130472   2.774   0.705  16.849  0.7081 -1.7247 -0.6148
 3019TIP3    H230473   2.887   0.683  16.947 -0.3340  2.6879  1.8301
 3020TIP3   OH230474   2.179   1.417  17.281  0.1416 -0.4280  0.5798
 3020TIP3    H130475   2.149   1.446  17.195  1.5836  1.1416  0.5660
 3020TIP3    H230476   2.184   1.497  17.333 -0.5341 -1.3254  2.0971
 3021TIP3   OH230477   3.496   4.101   6.745 -0.0157 -0.6163  0.0017
 3021TIP3    H130478   3.507   4.190   6.777  4.1646 -0.0972 -2.1107
 3021TIP3    H230479   3.511   4.046   6.822  1.3950  0.5575  0.6168
 3022TIP3   OH230480   0.176   2.467  13.472 -0.2704  0.2968 -0.2162
 3022TIP3    H130481   0.257   2.510  13.500 -0.9795  1.7247 -0.2879
 3022TIP3    H230482   0.128   2.534  13.425 -0.9085 -0.9303 -1.3907
 3023TIP3   OH230483   0.388   4.727  12.829  0.0312  0.3478 -0.1131
 3023TIP3    H130484   0.477   4.736  12.863  0.3336 -0.3769 -0.6931
 3023TIP3    H230485   0.341   4.679  12.897  0.7290 -1.4229 -0.8405
 3024TIP3   OH230486   1.563   5.742   5.356 -0.0280 -0.0664  0.7970
 3024TIP3    H130487   1.632   5.760   5.292 -1.1694  2.4353  0.1307
 3024TIP3    H230488   1.610   5.727   5.438  1.4332 -2.7821 -0.4063
 3025TIP3   OH230489   4.321   3.111  14.889  0.4552 -0.2739  0.0139
 3025TIP3    H130490   4.300   3.151  14.973 -0.4124  3.6291 -1.8387
 3025TIP3    H230491   4.372   3.178  14.843  0.9133 -2.2568 -2.5939
 3026TIP3   OH230492   2.065   1.325  14.584 -0.0833 -0.0506 -0.3872
 3026TIP3    H130493   1.998   1.259  14.567  0.7220 -0.8115 -0.6940
 3026TIP3    H230494   2.065   1.381  14.506 -0.3272 -0.0719 -0.4007
 3027TIP3   OH230495   1.891   2.263  14.130 -0.1388  0.3692 -0.4984
 3027TIP3    H130496   1.924   2.335  14.077 -0.1616  2.3889  2.0550
 3027TIP3    H230497   1.962   2.244  14.191 -0.7080 -0.7716 -0.1643
 3028TIP3   OH230498   2.715   3.707   3.722 -0.3203  0.4991  0.1094
 3028TIP3    H130499   2.757   3.659   3.650 -0.8063  0.5310 -0.2035
 3028TIP3    H230500   2.745   3.797   3.710 -0.9170  0.6358 -0.4649
 3029TIP3   OH230501   5.769   0.180   0.033 -0.0609 -0.1159  0.0702
 3029TIP3    H130502   5.728   0.230  -0.038  0.9982  1.4052  0.4808
 3029TIP3    H230503   5.861   0.173   0.008  0.3955  0.7199  1.3993
 3030TIP3   OH230504   1.132   0.656  11.626 -0.3289  0.0541 -0.4476
 3030TIP3    H130505   1.200   0.593  11.648  0.4572  0.4734 -1.5279
 3030TIP3    H230506   1.050   0.614  11.650  0.1610 -1.4673 -1.2938
 3031TIP3   OH230507   1.193   1.216  12.123  0.1374  0.2812 -0.5090
 3031TIP3    H130508   1.263   1.166  12.082  0.9019 -0.1877  1.2426
 3031TIP3    H230509   1.129   1.231  12.053  0.2706 -2.3933 -1.3385
 3032TIP3   OH230510   6.502   0.336  13.911  0.1189 -0.2024 -0.1405
 3032TIP3    H130511   6.476   0.398  13.980  0.0675  1.1796 -1.3407
 3032TIP3    H230512   6.470   0.376  13.830  1.2196 -1.1901 -1.1045
 3033TIP3   OH230513   0.579   5.730  16.280 -0.1776 -0.1214 -0.6075
 3033TIP3    H130514   0.666   5.694  16.299 -0.6033 -0.1078  1.5582
 3033TIP3    H230515   0.594   5.791  16.208  1.5942 -0.1458 -0.3003
 3034TIP3   OH230516   6.330   3.228   5.742  0.2485 -0.2407 -0.0490
 3034TIP3    H130517   6.397   3.205   5.806  0.6405  2.1258  0.5116
 3034TIP3    H230518   6.265   3.278   5.792  0.3120  1.2412 -1.3670
 3035TIP3   OH230519   4.827   1.312  13.200  0.6424  0.0404  0.2172
 3035TIP3    H130520   4.842   1.226  13.240 -0.7105  0.4830  1.8101
 3035TIP3    H230521   4.733   1.313  13.182  0.7060  1.0661 -0.1057
 3036TIP3   OH230522   1.883   3.858  14.084  0.2028 -0.3697 -0.2976
 3036TIP3    H130523   1.862   3.831  13.995  1.1640 -0.7796 -0.4034
 3036TIP3    H230524   1.880   3.778  14.136 -0.8446 -0.0613  0.1507
 3037TIP3   OH230525   2.373   3.811  11.139  0.7066 -0.2831  0.1964
 3037TIP3    H130526   2.298   3.760  11.107 -0.0750  1.6083 -1.1293
 3037TIP3    H230527   2.353   3.901  11.115  1.7153  0.8169  3.0449
 3038TIP3   OH230528   6.401   2.294  12.417 -0.1855 -0.1701 -0.2642
 3038TIP3    H130529   6.470   2.230  12.436 -0.1972 -0.7182 -1.9501
 3038TIP3    H230530   6.413   2.363  12.482 -0.9682 -2.4426  2.4900
 3039TIP3   OH230531   3.417   2.716   2.048 -0.1802  0.0638  0.7529
 3039TIP3    H130532   3.389   2.731   2.138 -0.0321 -0.6130  0.9170
 3039TIP3    H230533   3.511   2.730   2.049 -0.1406 -0.1889  0.7630
 3040TIP3   OH230534   5.727   4.562  12.646  0.3422  0.2219  0.5892
 3040TIP3    H130535   5.754   4.653  12.630 -0.3090  0.4199  0.5705
 3040TIP3    H230536   5.809   4.513  12.653  0.6837  0.5272 -1.0104
 3041TIP3   OH230537   1.128   5.122  15.136 -0.1984  0.1477 -0.1484
 3041TIP3    H130538   1.045   5.081  15.112  0.2939 -0.5992 -0.6213
 3041TIP3    H230539   1.154   5.077  15.217  0.8656 -1.2737 -1.2336
 3042TIP3   OH230540   2.983   5.666  16.123  0.1694 -0.2622 -0.4089
 3042TIP3    H130541   2.900   5.655  16.076  1.5337 -1.8269 -2.5938
 3042TIP3    H230542   2.980   5.601  16.193 -0.1179 -0.8631 -0.9742
 3043TIP3   OH230543   4.852   4.024   3.046 -0.2341 -0.0656  0.5260
 3043TIP3    H130544   4.846   4.055   3.136  2.3036 -0.8399  1.0338
 3043TIP3    H230545   4.792   3.950   3.041  0.5308 -0.8190  1.9900
 3044TIP3   OH230546   6.245   1.070  11.895  0.6207  0.3834 -0.1858
 3044TIP3    H130547   6.340   1.077  11.887  0.5119  2.7493 -0.0511
 3044TIP3    H230548   6.216   1.158  11.918 -1.5433 -0.4634  0.6320
 3045TIP3   OH230549   3.634   4.211  16.038 -0.0713  0.0008  0.1490
 3045TIP3    H130550   3.678   4.288  16.002  1.3526 -1.0711 -0.5201
 3045TIP3    H230551   3.563   4.192  15.977  0.7331 -0.2934 -0.7195
 3046TIP3   OH230552   2.916   5.334  12.305 -0.3962 -0.2097 -0.1939
 3046TIP3    H130553   2.840   5.361  12.254 -1.5643 -2.5266  0.1979
 3046TIP3    H230554   2.924   5.400  12.373  0.4712  2.2989 -2.5290
 3047TIP3   OH230555   4.340   5.769  12.913  0.1594 -0.2412 -0.1088
 3047TIP3    H130556   4.386   5.743  12.833  1.5223  1.3038  0.1071
 3047TIP3    H230557   4.409   5.794  12.974 -0.9059 -0.0061  1.0543
 3048TIP3   OH230558   3.339   0.587  16.931  0.0215  0.5498 -0.2099
 3048TIP3    H130559   3.263   0.544  16.970  0.4288  1.8074  2.1320
 3048TIP3    H230560   3.403   0.517  16.918 -0.9592 -0.2671 -0.8443
 3049TIP3   OH230561   6.517   0.380   0.786 -0.3366  0.0253 -0.1640
 3049TIP3    H130562   6.504   0.377   0.881 -0.8180  0.3471 -0.2195
 3049TIP3    H230563   6.605   0.416   0.775 -0.8731  1.4956  0.1293
 3050TIP3   OH230564   1.188   0.226  11.849 -0.2757 -0.1594 -0.2496
 3050TIP3    H130565   1.267   0.177  11.829 -0.6665 -1.2407  0.7605
 3050TIP3    H230566   1.117   0.176  11.808 -0.4609  0.7793 -1.1192
 3051TIP3   OH230567   4.267   6.381   1.072 -0.4532 -0.5053  0.2815
 3051TIP3    H130568   4.310   6.358   1.154  1.8863 -1.6883 -1.1828
 3051TIP3    H230569   4.283   6.306   1.014 -0.7429  0.8984 -1.7262
 3052TIP3   OH230570   1.212   2.278  16.304  0.1490 -0.3746  0.2227
 3052TIP3    H130571   1.282   2.214  16.307 -0.2654 -1.2215 -3.4219
 3052TIP3    H230572   1.204   2.301  16.211 -2.6350  1.6785  0.8238
 3053TIP3   OH230573   6.058   4.992  13.650 -0.4952  0.2600  0.2532
 3053TIP3    H130574   6.097   4.923  13.596 -1.2613 -1.3549  1.6821
 3053TIP3    H230575   6.124   5.061  13.651  1.1210 -1.2145  0.2827
 3054TIP3   OH230576   4.514   3.851  12.610  0.2775  0.4190  0.3392
 3054TIP3    H130577   4.518   3.924  12.548 -0.8058  1.5676  1.5579
 3054TIP3    H230578   4.592   3.861  12.664  0.5324  0.1939  0.0216
 3055TIP3   OH230579   3.044   1.670  15.055 -0.5573  0.2954 -0.5360
 3055TIP3    H130580   3.009   1.740  15.111  1.4241 -0.2529  1.5029
 3055TIP3    H230581   3.068   1.715  14.974  1.1010  2.1493  0.8872
 3056TIP3   OH230582   0.073   0.800  17.098  0.2131  0.1028 -0.0703
 3056TIP3    H130583   0.060   0.799  17.003  2.3078  2.7847 -0.5181
 3056TIP3    H230584   0.006   0.860  17.131  0.9320  1.0154 -0.2172
 3057TIP3   OH230585   5.331   0.473  14.648 -0.2341 -0.0643  0.0252
 3057TIP3    H130586   5.255   0.416  14.663  0.3170 -0.7707  0.1714
 3057TIP3    H230587   5.314   0.512  14.562 -1.3191  0.6919  0.5492
 3058TIP3   OH230588   1.815   3.352  11.775  0.2218 -0.2646 -0.1138
 3058TIP3    H130589   1.732   3.393  11.801  0.3163 -0.6276  0.7792
 3058TIP3    H230590   1.830   3.384  11.686  0.6046  2.1306  0.7583
 3059TIP3   OH230591   2.358   4.113   4.897  0.2842  0.1208 -0.4404
 3059TIP3    H130592   2.326   4.024   4.911  0.1492  0.1435 -0.6010
 3059TIP3    H230593   2.279   4.164   4.878  0.3429  0.3080 -0.1749
 3060TIP3   OH230594   4.940   4.973   0.050 -0.1247 -0.3213 -0.3133
 3060TIP3    H130595   4.978   5.010   0.130 -0.7796 -1.3198  0.4872
 3060TIP3    H230596   4.988   4.891   0.037  1.2402  0.6774 -2.0060
 3061TIP3   OH230597   0.583   4.368   3.642 -0.2773  0.2156  0.4177
 3061TIP3    H130598   0.530   4.387   3.564  0.3182 -3.9423 -1.2552
 3061TIP3    H230599   0.670   4.347   3.607  0.0180 -1.7712  2.1197
 3062TIP3   OH230600   5.854   5.926  14.680  0.2001 -0.6163  0.3461
 3062TIP3    H130601   5.777   5.870  14.672  0.0292 -0.2594 -0.7005
 3062TIP3    H230602   5.821   6.014  14.662  0.8300 -0.4496 -0.0223
 3063TIP3   OH230603   5.778   5.385   3.739 -0.1843  0.0425 -0.1978
 3063TIP3    H130604   5.794   5.418   3.828 -1.1274  1.1042 -0.4096
 3063TIP3    H230605   5.821   5.449   3.682  0.2678 -0.5425 -0.5222
 3064TIP3   OH230606   3.383   1.851  11.110  0.1937  0.6323  0.2976
 3064TIP3    H130607   3.315   1.901  11.064 -0.5746  0.2866  1.0458
 3064TIP3    H230608   3.360   1.760  11.095  0.1935  0.5169  1.0085
 3065TIP3   OH230609   2.982   0.973  13.946  0.6339  1.2402 -0.1432
 3065TIP3    H130610   2.909   1.034  13.940  0.0110  0.4236 -1.1223
 3065TIP3    H230611   2.942   0.886  13.947  1.4278  0.8180  2.7312
 3066TIP3   OH230612   4.796   4.210  12.514 -0.0374 -0.6088  0.6966
 3066TIP3    H130613   4.842   4.278  12.465  0.3180 -0.6847  0.9209
 3066TIP3    H230614   4.748   4.258  12.582 -0.2856 -0.5294  0.4632
 3067TIP3   OH230615   2.003   0.228   5.376 -0.2093 -0.7276  0.3121
 3067TIP3    H130616   2.091   0.236   5.340 -0.6142 -0.7373 -0.7155
 3067TIP3    H230617   2.012   0.166   5.448  0.4319 -1.6035 -0.4985
 3068TIP3   OH230618   1.589   5.107   3.061 -0.5794 -0.2674 -0.3713
 3068TIP3    H130619   1.662   5.057   3.096 -0.3971 -0.1352 -0.5621
 3068TIP3    H230620   1.546   5.144   3.138 -0.0756  0.1668 -0.2980
 3069TIP3   OH230621   5.682   3.916   1.279 -0.4798  0.3994 -0.5548
 3069TIP3    H130622   5.730   3.997   1.297 -1.5390  1.6730 -2.9536
 3069TIP3    H230623   5.711   3.855   1.347  2.8758  1.7382 -0.6046
 3070TIP3   OH230624   6.524   3.898  14.833 -0.5484  0.3814 -0.1339
 3070TIP3    H130625   6.512   3.822  14.776  2.9176 -0.8615  0.5268
 3070TIP3    H230626   6.593   3.949  14.790  1.4201 -0.0545  2.2528
 3071TIP3   OH230627   3.062   0.182   0.162 -0.1238 -0.5055  0.0249
 3071TIP3    H130628   3.134   0.234   0.124  0.7606 -0.3959  1.7713
 3071TIP3    H230629   3.038   0.230   0.241 -0.4578 -1.8674  0.7638
 3072TIP3   OH230630   3.505   3.569  12.034  0.2434 -0.0807 -0.3894
 3072TIP3    H130631   3.527   3.481  12.063 -0.5700  0.0365  0.6523
 3072TIP3    H230632   3.577   3.623  12.064 -0.9175  0.1622  2.2131
 3073TIP3   OH230633   0.322   5.784   5.164  0.0403  0.0754  0.5445
 3073TIP3    H130634   0.265   5.713   5.194 -0.0793  0.4415  1.2063
 3073TIP3    H230635   0.402   5.775   5.216 -0.9812  2.0098  2.6115
 3074TIP3   OH230636   0.124   2.236  15.062 -0.9192  0.1405 -0.1586
 3074TIP3    H130637   0.084   2.256  15.146 -0.8884  1.6080 -0.4757
 3074TIP3    H230638   0.166   2.151  15.075  1.0397  1.3274  1.9940
 3075TIP3   OH230639   1.403   0.708  15.473  0.2435  0.6339 -0.2444
 3075TIP3    H130640   1.360   0.792  15.460 -0.5108  0.0840 -1.5032
 3075TIP3    H230641   1.332   0.648  15.497  0.5661  0.0931 -0.6168
 3076TIP3   OH230642   6.147   2.176   3.650  0.7504 -0.6619 -0.4786
 3076TIP3    H130643   6.100   2.209   3.573  0.0273 -0.0711  0.1940
 3076TIP3    H230644   6.107   2.091   3.667  0.5493 -0.5638 -0.4517
 3077TIP3   OH230645   3.025   3.287   1.081  0.2566  0.0432  0.1188
 3077TIP3    H130646   3.070   3.217   1.127  0.5056 -1.4068 -2.1532
 3077TIP3    H230647   3.068   3.368   1.109 -0.1940 -0.6223  2.9706
 3078TIP3   OH230648   0.898   6.738  15.854  0.2688  0.5085 -0.2833
 3078TIP3    H130649   0.831   6.736  15.786  0.7236  0.4944 -0.7416
 3078TIP3    H230650   0.939   6.651  15.849  0.2517  0.4793  0.0654
 3079TIP3   OH230651   5.688   0.300   4.200  0.1466 -0.3329 -0.7214
 3079TIP3    H130652   5.681   0.375   4.260 -1.7920 -0.4237 -0.7537
 3079TIP3    H230653   5.705   0.340   4.115  1.6985 -0.1237 -0.3422
 3080TIP3   OH230654   5.000   6.490   1.111 -0.1951 -0.5850  0.6129
 3080TIP3    H130655   4.984   6.473   1.204 -0.2369  0.9681  0.9251
 3080TIP3    H230656   4.924   6.453   1.067 -0.8581 -0.1268  1.3392
 3081TIP3   OH230657   6.446   6.604   4.163  0.0330 -0.0827  0.9838
 3081TIP3    H130658   6.422   6.591   4.072  0.5296  0.2497  0.8040
 3081TIP3    H230659   6.465   6.515   4.196  0.4092 -0.1441  0.6069
 3082TIP3   OH230660   2.458   0.760   1.214  0.3147 -0.3167  0.4756
 3082TIP3    H130661   2.413   0.690   1.167  1.7388 -0.1675 -1.2086
 3082TIP3    H230662   2.477   0.723   1.300 -1.4457 -0.9627  0.6230
 3083TIP3   OH230663   0.237   4.236   6.165 -0.2295  0.7515 -0.2775
 3083TIP3    H130664   0.148   4.204   6.153 -0.0040  1.0919 -4.3365
 3083TIP3    H230665   0.231   4.330   6.153  0.3768  1.2511  2.5712
 3084TIP3   OH230666   2.341   1.418  16.951 -0.0285  0.1270  0.4484
 3084TIP3    H130667   2.312   1.504  16.980 -0.8150  0.8662 -2.3139
 3084TIP3    H230668   2.423   1.404  16.999 -1.5144  0.8407  3.4896
 3085TIP3   OH230669   3.029   1.767   3.517 -0.0136  0.3089 -0.1996
 3085TIP3    H130670   3.089   1.815   3.575  0.3690 -2.4191  1.8845
 3085TIP3    H230671   2.947   1.762   3.567  0.0053 -1.2320 -0.2813
 3086TIP3   OH230672   5.601   4.778   1.388 -0.5568  0.2742 -0.1024
 3086TIP3    H130673   5.630   4.805   1.301 -0.9768  1.0769 -0.0037
 3086TIP3    H230674   5.641   4.842   1.448  1.1039 -1.2365  0.4862
 3087TIP3   OH230675   3.848   6.502   2.810 -0.0143 -0.5691  0.1193
 3087TIP3    H130676   3.896   6.574   2.851  1.1893 -1.9935  1.3182
 3087TIP3    H230677   3.869   6.509   2.717  2.6648 -1.1620  0.5995
 3088TIP3   OH230678   2.312   5.832  16.029  0.3182  0.2290  0.3884
 3088TIP3    H130679   2.403   5.805  16.048  0.7755  0.4563 -1.3605
 3088TIP3    H230680   2.318   5.881  15.947 -1.4216  0.1146  0.1680
 3089TIP3   OH230681   5.912   1.391  14.092  0.4687 -0.0503  0.8525
 3089TIP3    H130682   5.903   1.297  14.082  2.1259 -0.2078  0.4671
 3089TIP3    H230683   5.851   1.429  14.029  0.9769 -0.9009 -0.1810
 3090TIP3   OH230684   2.293   0.071   1.525  0.5829 -0.2002 -0.1102
 3090TIP3    H130685   2.374   0.117   1.505  0.1772 -0.3883 -2.4127
 3090TIP3    H230686   2.282   0.008   1.455 -1.9910  0.4294 -0.3877
 3091TIP3   OH230687   3.973   3.459  11.066 -0.4344  0.0942  0.4878
 3091TIP3    H130688   3.953   3.494  11.153  0.7280 -1.7418  1.5675
 3091TIP3    H230689   3.888   3.454  11.022 -1.3133 -0.5604  2.1580
 3092TIP3   OH230690   5.539   3.782   3.005  0.1346 -0.2022 -0.1987
 3092TIP3    H130691   5.577   3.805   3.090  0.9337  0.4614 -0.7141
 3092TIP3    H230692   5.449   3.814   3.009  0.9439  2.3585 -0.5598
 3093TIP3   OH230693   2.973   2.702  10.513  0.0625  0.2675  0.8317
 3093TIP3    H130694   2.879   2.685  10.506 -0.2064  1.9700 -0.2749
 3093TIP3    H230695   2.981   2.757  10.591  0.1603  0.0763  0.9579
 3094TIP3   OH230696   5.927   4.606  17.192  0.1602 -0.2617  0.2083
 3094TIP3    H130697   6.000   4.544  17.200  0.3227  0.0687  1.5727
 3094TIP3    H230698   5.958   4.670  17.128  1.2905  0.1231  1.0907
 3095TIP3   OH230699   5.743   5.948  11.156  0.0208  0.6807  0.4266
 3095TIP3    H130700   5.703   5.894  11.088  0.6288 -0.6044  1.0327
 3095TIP3    H230701   5.672   5.966  11.218 -0.2652  0.8432  0.0498
 3096TIP3   OH230702   4.351   5.717   0.811  0.0196 -0.1822  0.4024
 3096TIP3    H130703   4.340   5.705   0.716 -0.4180 -0.9364  0.5355
 3096TIP3    H230704   4.277   5.670   0.849 -1.5522  2.5880  1.0506
 3097TIP3   OH230705   6.584   1.486   2.027  0.2130 -0.4143  0.3042
 3097TIP3    H130706   6.636   1.493   1.946  0.5588 -0.5431  0.5137
 3097TIP3    H230707   6.647   1.458   2.093  0.2152  0.9537  0.9151
 3098TIP3   OH230708   3.433   0.192   2.050 -0.0997 -0.1054  0.4572
 3098TIP3    H130709   3.406   0.217   1.962 -1.1781  0.9013  1.0507
 3098TIP3    H230710   3.430   0.096   2.049  2.0209 -0.2302 -1.2166
 3099TIP3   OH230711   1.357   5.397  12.977  0.3549 -0.9458 -0.0142
 3099TIP3    H130712   1.376   5.491  12.987  0.9513 -1.1699  1.0848
 3099TIP3    H230713   1.353   5.383  12.883 -2.4390  0.7302 -0.2765
 3100TIP3   OH230714   2.208   1.159  16.033 -0.2102  0.4526 -0.2321
 3100TIP3    H130715   2.217   1.123  16.121  1.6873 -0.7278 -0.8587
 3100TIP3    H230716   2.250   1.245  16.038  0.2158  0.2385 -0.0634
 3101TIP3   OH230717   6.719   5.969   2.990  0.2464  0.1332  0.4491
 3101TIP3    H130718   6.645   6.017   2.954  0.1165 -0.5294 -0.1968
 3101TIP3    H230719   6.683   5.885   3.016  0.9882 -0.7165 -1.1054
 3102TIP3   OH230720   5.724   3.175  12.625  0.1655  0.1973  0.0963
 3102TIP3    H130721   5.784   3.219  12.565  1.1079  0.1516  0.9845
 3102TIP3    H230722   5.762   3.088  12.638 -0.0259  0.2080  0.7568
 3103TIP3   OH230723   5.283   5.834   5.334 -0.2384 -0.7338 -0.6426
 3103TIP3    H130724   5.312   5.777   5.263 -1.3574 -1.0587 -0.8470
 3103TIP3    H230725   5.283   5.779   5.412 -2.3785 -1.3668 -1.0306
 3104TIP3   OH230726   1.343   0.938  13.152  0.7984 -0.4940 -0.0939
 3104TIP3    H130727   1.391   0.990  13.087 -1.5313  1.7067 -0.1951
 3104TIP3    H230728   1.411   0.898  13.205  2.7619  1.7490 -0.7465
 3105TIP3   OH230729   5.251   5.947  13.386  0.5563 -0.0481  0.0620
 3105TIP3    H130730   5.221   5.867  13.342 -1.2335 -1.0970  2.8816
 3105TIP3    H230731   5.175   6.005  13.384  1.0196  0.5762  0.2291
 3106TIP3   OH230732   1.449   6.126  16.715 -0.4349  0.6761  0.3344
 3106TIP3    H130733   1.441   6.036  16.747 -0.9071 -0.0927 -1.7968
 3106TIP3    H230734   1.513   6.121  16.644 -1.5124  1.7189 -0.7645
 3107TIP3   OH230735   0.582   5.246   2.516 -0.1014  0.2630  0.0621
 3107TIP3    H130736   0.499   5.257   2.470 -0.0906  0.5544  0.1114
 3107TIP3    H230737   0.569   5.290   2.600  0.9940  2.7769 -0.9766
 3108TIP3   OH230738   6.397   2.288  13.641 -0.6464  0.3297  0.0572
 3108TIP3    H130739   6.336   2.360  13.627  0.2279  1.5810  2.1567
 3108TIP3    H230740   6.455   2.289  13.565 -1.8671  0.5389 -0.8846
 3109TIP3   OH230741   0.681   1.517   5.281  0.1365 -0.7261  0.4051
 3109TIP3    H130742   0.620   1.576   5.326  1.3448  1.1319 -0.2461
 3109TIP3    H230743   0.629   1.478   5.211 -0.5495  0.1079  0.4338
 3110TIP3   OH230744   4.151   2.942  17.286 -0.2201 -0.6038 -0.0557
 3110TIP3    H130745   4.201   3.020  17.264 -1.4158 -0.2332 -1.6088
 3110TIP3    H230746   4.059   2.968  17.275 -0.6273 -2.5836 -2.0477
 3111TIP3   OH230747   6.239   5.312   3.286 -0.6605 -0.3482 -0.0502
 3111TIP3    H130748   6.292   5.245   3.330 -0.6032 -1.0833 -1.2022
 3111TIP3    H230749   6.183   5.264   3.226 -3.6155  0.2722  1.9698
 3112TIP3   OH230750   0.375   1.690   3.649 -0.1182  0.2477  0.4050
 3112TIP3    H130751   0.444   1.633   3.616  0.0449  0.6086  0.1264
 3112TIP3    H230752   0.295   1.637   3.644  0.4804 -1.0702  3.0118
 3113TIP3   OH230753   2.505   3.642  12.500  0.1482 -0.1714  0.0020
 3113TIP3    H130754   2.562   3.566  12.511 -0.1933 -0.4481 -0.1300
 3113TIP3    H230755   2.534   3.682  12.418  1.3987  0.7751  0.8710
 3114TIP3   OH230756   4.118   0.266  15.452  0.1165 -0.5486 -0.1635
 3114TIP3    H130757   4.130   0.313  15.534  0.6309 -0.6657 -0.1642
 3114TIP3    H230758   4.029   0.232  15.456  0.2117 -0.7339  0.4449
 3115TIP3   OH230759   3.196   3.134  11.572  0.0185  0.2594  0.0957
 3115TIP3    H130760   3.196   3.185  11.491 -0.3195 -0.1921 -0.1925
 3115TIP3    H230761   3.186   3.199  11.642  0.1447  0.6328 -0.2341
 3116TIP3   OH230762   4.324   3.577   2.856 -0.2630 -0.4865 -0.1404
 3116TIP3    H130763   4.306   3.559   2.948  0.8915  1.4666  0.5381
 3116TIP3    H230764   4.397   3.640   2.857  0.5864 -1.3032 -2.4320
 3117TIP3   OH230765   5.193   3.299   2.008  0.3303 -0.4046 -0.1708
 3117TIP3    H130766   5.190   3.224   1.949 -2.2850 -0.3162 -0.2685
 3117TIP3    H230767   5.192   3.375   1.951 -3.7796 -0.2878 -0.2038
 3118TIP3   OH230768   2.275   2.999   1.843 -0.4666  0.0632 -0.3708
 3118TIP3    H130769   2.289   2.911   1.879  1.4345  0.7828  0.8398
 3118TIP3    H230770   2.282   3.057   1.919 -0.9054  1.3285 -1.2677
 3119TIP3   OH230771   4.442   4.129   3.379  0.3161  0.6045 -0.5296
 3119TIP3    H130772   4.368   4.149   3.436  1.1887 -0.1507  0.9218
 3119TIP3    H230773   4.403   4.081   3.306 -0.8679  1.8713 -0.7760
 3120TIP3   OH230774   1.559   6.074   0.932 -0.5927  0.6458  0.2639
 3120TIP3    H130775   1.499   6.001   0.918  0.6963  0.0134 -2.6949
 3120TIP3    H230776   1.526   6.144   0.875  0.4594  0.8899 -0.0744
 3121TIP3   OH230777   1.169   3.694   5.223  0.2853 -0.4099 -0.7707
 3121TIP3    H130778   1.183   3.649   5.139 -0.1402 -2.3673  0.1564
 3121TIP3    H230779   1.083   3.735   5.214 -0.2550 -1.5442 -0.9102
 3122TIP3   OH230780   0.461   2.833  12.075  0.2104 -0.6196  0.3269
 3122TIP3    H130781   0.393   2.771  12.101 -0.6991  0.0374 -0.4367
 3122TIP3    H230782   0.449   2.844  11.980  1.8179 -1.0132  0.0460
 3123TIP3   OH230783   1.514   6.072  13.166  0.0265 -0.1592  0.5465
 3123TIP3    H130784   1.504   6.083  13.071 -2.7003 -0.3107  0.7565
 3123TIP3    H230785   1.441   6.121  13.203  2.0393  1.4232  2.7251
 3124TIP3   OH230786   6.370   2.596   2.707 -0.1562  0.1377 -0.1282
 3124TIP3    H130787   6.406   2.685   2.703 -0.0314  0.0799 -0.2746
 3124TIP3    H230788   6.277   2.607   2.690 -0.1186  0.2254 -0.2749
 3125TIP3   OH230789   3.853   2.009  14.633  0.1857 -0.0903  0.0176
 3125TIP3    H130790   3.844   1.959  14.714  2.5077 -0.7770 -0.0830
 3125TIP3    H230791   3.928   2.066  14.648  1.2029 -0.8398 -1.9365
 3126TIP3   OH230792   2.810   1.768  12.119 -0.0865  0.1197 -0.0594
 3126TIP3    H130793   2.761   1.845  12.148  0.8187  0.3824  0.8546
 3126TIP3    H230794   2.899   1.801  12.105 -0.0896 -0.3971 -1.4405
 3127TIP3   OH230795   1.252   2.675   0.154  0.1966  0.0747 -0.0075
 3127TIP3    H130796   1.263   2.593   0.107 -0.1640  1.2544 -2.3518
 3127TIP3    H230797   1.328   2.728   0.128 -1.0510  1.4933 -1.0026
 3128TIP3   OH230798   2.088   1.299   1.972  0.6256 -0.0074 -0.1792
 3128TIP3    H130799   2.063   1.312   1.881 -2.0134 -1.5701  0.2279
 3128TIP3    H230800   2.048   1.372   2.019  1.6798  0.5935 -0.1664
 3129TIP3   OH230801   2.356   2.481  12.582 -0.1700  0.6033  0.3456
 3129TIP3    H130802   2.344   2.389  12.605  0.1150  0.5711  0.3582
 3129TIP3    H230803   2.272   2.522  12.605  0.2592  0.6677  1.9069
 3130TIP3   OH230804   2.636   4.648   4.137 -0.0430 -0.3855 -0.4747
 3130TIP3    H130805   2.653   4.553   4.135  0.7764 -0.2352 -1.5338
 3130TIP3    H230806   2.675   4.681   4.056  2.8315  1.3843  1.4583
 3131TIP3   OH230807   5.722   1.027  12.376 -0.3271 -0.2360  0.1271
 3131TIP3    H130808   5.758   1.095  12.319 -0.7320 -0.1838 -0.0644
 3131TIP3    H230809   5.685   1.075  12.450 -1.2395 -0.1976 -0.3455
 3132TIP3   OH230810   2.337   2.356  15.997  0.2810 -0.3135 -0.0534
 3132TIP3    H130811   2.280   2.333  16.070 -1.5934  3.3110 -0.1227
 3132TIP3    H230812   2.399   2.419  16.035  1.4115 -0.8646 -0.9394
 3133TIP3   OH230813   0.373   1.987  15.595 -0.0175  0.7355 -0.0833
 3133TIP3    H130814   0.414   1.929  15.530 -0.2796  1.5496 -1.0095
 3133TIP3    H230815   0.411   2.073  15.576 -2.3462  1.6103 -1.2119
 3134TIP3   OH230816   2.506   6.728   3.265 -0.2603 -0.0364  0.3584
 3134TIP3    H130817   2.483   6.810   3.310 -0.0066 -1.0703  2.4772
 3134TIP3    H230818   2.598   6.740   3.240 -1.0974  1.5786 -2.3959
 3135TIP3   OH230819   4.356   0.084  15.069 -0.1616 -0.4251  0.5169
 3135TIP3    H130820   4.359   0.126  15.155 -0.4522 -0.1421  0.3893
 3135TIP3    H230821   4.317  -0.002  15.086  0.2031 -0.5498  0.7391
 3136TIP3   OH230822   4.583   3.028   5.041  0.0315  0.1771  0.1897
 3136TIP3    H130823   4.549   2.939   5.047  0.1826  0.1783  1.4371
 3136TIP3    H230824   4.513   3.078   4.999 -0.2556 -0.4218 -0.0572
 3137TIP3   OH230825   4.133   4.345   5.621 -0.1725 -0.5610  0.5263
 3137TIP3    H130826   4.146   4.259   5.582 -0.0865 -0.3672  0.1242
 3137TIP3    H230827   4.208   4.356   5.680 -0.3366 -0.8797  0.7977
 3138TIP3   OH230828   2.161   6.100   2.380 -0.4921  0.0140 -0.7978
 3138TIP3    H130829   2.178   6.163   2.309  0.8718 -3.2504 -3.6426
 3138TIP3    H230830   2.236   6.110   2.438  0.2862  0.2825 -1.8134
 3139TIP3   OH230831   2.216   2.295  15.179  0.5478 -0.1917 -0.4837
 3139TIP3    H130832   2.300   2.271  15.219 -0.9479  0.1567  3.3535
 3139TIP3    H230833   2.163   2.216  15.188 -0.7123  0.7570  1.0430
 3140TIP3   OH230834   6.049   1.981   3.959  0.8746 -0.1673  0.4598
 3140TIP3    H130835   6.140   2.008   3.951  1.2077 -1.5471 -0.9553
 3140TIP3    H230836   6.020   1.966   3.869  0.4069 -3.2283  1.0027
 3141TIP3   OH230837   5.271   3.006   4.917 -0.3905  0.4889 -0.6547
 3141TIP3    H130838   5.278   3.045   5.005 -0.3060 -2.3660  0.7303
 3141TIP3    H230839   5.177   3.003   4.900 -0.4736 -0.0408 -0.1156
 3142TIP3   OH230840   1.447   2.807   3.599 -0.5867  0.5971  0.1188
 3142TIP3    H130841   1.478   2.799   3.690  0.0907 -0.6727 -0.2003
 3142TIP3    H230842   1.361   2.765   3.600  0.4757 -1.7644 -0.3046
 3143TIP3   OH230843   5.408   2.052  15.623 -0.6030  0.3685 -0.3063
 3143TIP3    H130844   5.495   2.093  15.619 -1.3349  2.2402  1.4849
 3143TIP3    H230845   5.375   2.058  15.533  1.7920 -2.1565 -1.5190
 3144TIP3   OH230846   6.714   1.727   2.889 -0.0088 -0.4550 -0.0770
 3144TIP3    H130847   6.625   1.726   2.926 -0.2268 -3.2732 -0.4623
 3144TIP3    H230848   6.701   1.742   2.796 -0.2657 -2.3572 -0.3806
 3145TIP3   OH230849   3.351   0.473   5.625 -0.1571 -0.5242  0.1861
 3145TIP3    H130850   3.256   0.459   5.631 -0.3074 -0.8160 -2.0411
 3145TIP3    H230851   3.381   0.472   5.716 -1.9715 -2.6758  0.8672
 3146TIP3   OH230852   0.526   6.656   2.096 -0.3903 -1.0621  1.0646
 3146TIP3    H130853   0.525   6.745   2.060  0.6141 -2.0934 -1.8227
 3146TIP3    H230854   0.619   6.639   2.114 -0.1376 -2.4203 -1.1266
 3147TIP3   OH230855   0.426   5.889  13.293 -0.1275  0.0966 -0.4877
 3147TIP3    H130856   0.372   5.961  13.260  1.8954  1.3415 -1.2819
 3147TIP3    H230857   0.472   5.927  13.368 -0.8747 -1.1717  0.6646
 3148TIP3   OH230858   3.388   5.577  16.874 -0.2365  0.2189  0.1254
 3148TIP3    H130859   3.336   5.626  16.938 -1.2900 -1.5113  0.6408
 3148TIP3    H230860   3.395   5.489  16.911  1.5269 -0.0857 -0.8241
 3149TIP3   OH230861   0.505   4.550   0.765  0.0037 -0.3526 -0.3177
 3149TIP3    H130862   0.421   4.540   0.809  1.2241 -2.3620  1.8086
 3149TIP3    H230863   0.502   4.488   0.691 -0.3054 -0.5989 -0.0985
 3150TIP3   OH230864   4.578   5.952  10.828 -0.2834  0.1360 -0.3272
 3150TIP3    H130865   4.599   6.038  10.864  0.7635 -0.0635 -0.4476
 3150TIP3    H230866   4.657   5.924  10.783 -0.8376 -0.5983 -0.8854
 3151TIP3   OH230867   3.998   1.911   4.904  0.0470  0.4478  0.1918
 3151TIP3    H130868   4.065   1.880   4.842 -0.7390 -0.3128 -0.3130
 3151TIP3    H230869   3.920   1.924   4.850 -0.5301  0.2119  0.9511
 3152TIP3   OH230870   5.338   3.461   5.028 -0.6288  0.4335  0.1418
 3152TIP3    H130871   5.378   3.510   4.956 -0.3067 -1.2995 -0.9133
 3152TIP3    H230872   5.410   3.414   5.069 -1.1147 -0.2683  0.2220
 3153TIP3   OH230873   0.695   5.776  13.927  0.4701 -0.3046 -0.1818
 3153TIP3    H130874   0.722   5.736  14.010  0.9654 -1.0956 -0.6975
 3153TIP3    H230875   0.688   5.702  13.867 -1.5572  0.0534 -0.4338
 3154TIP3   OH230876   1.444   4.551   2.533  0.9041  0.6703 -0.1203
 3154TIP3    H130877   1.524   4.514   2.495  0.6342 -0.4315  0.3305
 3154TIP3    H230878   1.398   4.475   2.569 -0.8068  1.1237 -1.1943
 3155TIP3   OH230879   5.648   2.099   1.159 -0.2631 -0.1271 -0.3165
 3155TIP3    H130880   5.691   2.180   1.131 -0.5977 -0.1672 -0.9756
 3155TIP3    H230881   5.620   2.116   1.249  0.2767  0.2433 -0.2169
 3156TIP3   OH230882   2.069   5.976   3.775  0.2770 -0.2109 -0.3951
 3156TIP3    H130883   2.106   5.954   3.861  2.1966 -1.3358 -1.4558
 3156TIP3    H230884   2.144   5.976   3.716 -0.9512  0.9753 -2.0178
 3157TIP3   OH230885   0.725   5.466  13.890 -0.3738 -0.2422  0.0202
 3157TIP3    H130886   0.723   5.376  13.857  0.0293 -0.0905 -0.4396
 3157TIP3    H230887   0.756   5.518  13.816 -2.1731  0.5179 -0.2553
 3158TIP3   OH230888   1.426   3.535  16.906 -0.3917  0.1229 -0.9485
 3158TIP3    H130889   1.396   3.535  16.815 -0.4783 -1.9764 -0.9625
 3158TIP3    H230890   1.518   3.511  16.901 -0.3530  0.1616 -0.4864
 3159TIP3   OH230891   4.136   5.034   3.206  0.3759  0.3008  0.3283
 3159TIP3    H130892   4.126   4.959   3.146  0.5432  0.4651  0.0937
 3159TIP3    H230893   4.209   5.084   3.169 -0.3526  1.1029 -0.0641
 3160TIP3   OH230894   3.507   3.891   0.749  0.6958  0.4597 -0.2014
 3160TIP3    H130895   3.569   3.963   0.764  0.4465  0.4032  1.2376
 3160TIP3    H230896   3.440   3.930   0.691  0.9724  1.1517 -0.0723
 3161TIP3   OH230897   0.405   5.169   5.598  0.8170  0.0567  0.1110
 3161TIP3    H130898   0.379   5.081   5.624 -2.1079  0.9010  0.5050
 3161TIP3    H230899   0.379   5.175   5.506 -0.3861  0.9183  0.4810
 3162TIP3   OH230900   0.115   3.537  16.885  0.3928 -0.2234 -0.0119
 3162TIP3    H130901   0.103   3.629  16.909  0.0616 -0.1825 -0.3301
 3162TIP3    H230902   0.184   3.539  16.819  0.9213 -0.2834  0.5246
 3163TIP3   OH230903   0.822   5.029  14.394 -0.5420 -0.1677  0.8690
 3163TIP3    H130904   0.778   5.112  14.411  0.3307  0.7758 -1.1568
 3163TIP3    H230905   0.810   5.014  14.301  1.9927 -0.6632  0.5349
 3164TIP3   OH230906   1.476   6.386   6.089  0.0505 -0.1834  0.1612
 3164TIP3    H130907   1.495   6.337   6.169  1.9215  0.2333  0.0129
 3164TIP3    H230908   1.539   6.353   6.025 -1.7095 -0.8472 -1.3371
 3165TIP3   OH230909   2.805   2.712  11.754  0.4106 -0.1654  0.3156
 3165TIP3    H130910   2.884   2.737  11.706 -0.1299  1.1542  0.0560
 3165TIP3    H230911   2.779   2.791  11.802 -0.8094 -0.5232  0.2982
 3166TIP3   OH230912   2.651   4.994  14.877  0.6062  0.4718 -0.1310
 3166TIP3    H130913   2.562   4.982  14.910 -0.0177  2.2118 -1.0499
 3166TIP3    H230914   2.701   5.024  14.953 -0.0287  1.2419 -0.0038
 3167TIP3   OH230915   1.240   0.283   5.035 -0.2090  0.1891 -0.3898
 3167TIP3    H130916   1.181   0.217   5.070  0.6386 -1.3303 -1.6883
 3167TIP3    H230917   1.252   0.345   5.107 -3.5200  0.7344 -0.1485
 3168TIP3   OH230918   2.762   0.963   5.585 -0.4482  0.3759  0.1287
 3168TIP3    H130919   2.810   0.894   5.631 -2.9432 -0.9252  0.9810
 3168TIP3    H230920   2.812   1.043   5.602  0.1576 -0.4982  2.9116
 3169TIP3   OH230921   1.788   0.069  11.812  0.4655  0.2351  0.1700
 3169TIP3    H130922   1.698   0.071  11.842  0.1332 -0.6266 -0.7233
 3169TIP3    H230923   1.784   0.102  11.722  1.4542  2.9292  1.0170
 3170TIP3   OH230924   3.597   4.075  15.634 -0.1408 -0.0358  0.0880
 3170TIP3    H130925   3.637   4.159  15.610  0.0262 -0.4172 -1.0154
 3170TIP3    H230926   3.599   4.023  15.553 -0.0331 -1.1930  0.8107
 3171TIP3   OH230927   1.763   2.800   5.261 -0.2736  0.1592  0.5387
 3171TIP3    H130928   1.745   2.765   5.174 -1.8499  1.2096  0.4020
 3171TIP3    H230929   1.731   2.733   5.322 -1.6217  0.5576  0.2882
 3172TIP3   OH230930   5.724   2.338   5.366 -0.0041 -0.5708 -0.0088
 3172TIP3    H130931   5.643   2.296   5.393 -0.2379 -0.3454 -0.3561
 3172TIP3    H230932   5.789   2.268   5.366 -0.2393 -0.7881  0.0836
 3173TIP3   OH230933   2.196   6.094   2.830  0.0209  0.1733  0.0637
 3173TIP3    H130934   2.243   6.175   2.809  0.3184 -0.0729 -0.2528
 3173TIP3    H230935   2.181   6.098   2.924  0.5189  0.3468  0.1426
 3174TIP3   OH230936   2.076   5.863  12.117  0.3642  0.0800  0.0333
 3174TIP3    H130937   2.136   5.903  12.179  2.2283 -1.5962 -0.5838
 3174TIP3    H230938   2.119   5.782  12.090 -1.3377 -0.2937 -1.8613
 3175TIP3   OH230939   0.994   0.187   0.109 -0.3037  0.6219 -0.1145
 3175TIP3    H130940   1.032   0.172   0.195 -0.1910  0.2607 -0.2221
 3175TIP3    H230941   1.048   0.256   0.070  0.5663 -0.2161 -0.4551
 3176TIP3   OH230942   5.186   3.381  17.168  0.4845 -0.2096  0.0092
 3176TIP3    H130943   5.214   3.306  17.221  1.5205 -0.1338 -0.4108
 3176TIP3    H230944   5.122   3.426  17.223  0.1615 -1.1597  0.4419
 3177TIP3   OH230945   0.739   3.236   5.287  0.5805 -0.1564 -0.6790
 3177TIP3    H130946   0.695   3.292   5.223  1.1826  0.4388 -0.5826
 3177TIP3    H230947   0.717   3.275   5.372 -0.6336 -1.2334 -0.4583
 3178TIP3   OH230948   5.396   2.698  16.276  0.4956 -0.3471 -0.3534
 3178TIP3    H130949   5.440   2.646  16.344 -0.2852  1.4722  1.6410
 3178TIP3    H230950   5.306   2.667  16.277  0.5063 -0.3833 -0.6202
 3179TIP3   OH230951   0.016   4.064  15.826 -0.2368 -0.3194 -0.2701
 3179TIP3    H130952   0.092   4.114  15.854  1.2265 -2.0156 -1.0412
 3179TIP3    H230953   0.034   3.974  15.854 -1.5416 -0.9116 -1.2351
 3180TIP3   OH230954   6.116   0.530  13.572  0.4894  0.5073 -0.3730
 3180TIP3    H130955   6.041   0.573  13.613 -1.9366 -2.4272 -1.3051
 3180TIP3    H230956   6.087   0.513  13.482  2.2838 -0.7545 -0.7630
 3181TIP3   OH230957   1.474   3.844  15.021 -0.5237 -0.6458  0.1115
 3181TIP3    H130958   1.444   3.767  14.972 -1.6558 -0.0740 -0.1108
 3181TIP3    H230959   1.394   3.887  15.050  0.1185 -0.3481  1.5025
 3182TIP3   OH230960   3.676   6.584  13.436  1.0968  0.5074  0.6337
 3182TIP3    H130961   3.750   6.557  13.381 -0.2839 -0.8111 -0.6685
 3182TIP3    H230962   3.653   6.671  13.403  0.4598 -0.1557 -0.7427
 3183TIP3   OH230963   5.221   1.703  17.031 -0.1757 -0.4783  0.1529
 3183TIP3    H130964   5.143   1.666  17.071 -1.1779  0.2508 -1.0341
 3183TIP3    H230965   5.188   1.773  16.975  1.1765 -1.0367 -1.4434
 3184TIP3   OH230966   1.529   6.345  14.668  0.3977  0.0310  0.1699
 3184TIP3    H130967   1.622   6.346  14.689  0.5256 -1.3932 -0.1872
 3184TIP3    H230968   1.517   6.418  14.608  1.3735 -0.0218 -0.1089
 3185TIP3   OH230969   2.138   4.036   2.124  0.3901  0.2372 -0.3129
 3185TIP3    H130970   2.081   4.090   2.179  1.7841  1.4714 -0.0134
 3185TIP3    H230971   2.119   4.065   2.035 -1.3322 -1.2395 -0.4768
 3186TIP3   OH230972   2.131   2.520   5.196  0.0234 -0.9061  0.4755
 3186TIP3    H130973   2.071   2.467   5.144  0.0828 -0.5304  0.0300
 3186TIP3    H230974   2.101   2.610   5.186  0.4490 -0.7528  0.5270
 3187TIP3   OH230975   4.152   4.616   0.546 -0.1669  0.5545  0.2534
 3187TIP3    H130976   4.112   4.650   0.466 -1.6607  0.6043  0.9946
 3187TIP3    H230977   4.109   4.664   0.617 -0.4231 -0.9885  1.1887
 3188TIP3   OH230978   0.740   3.790   3.416 -0.2939 -0.4572 -0.1953
 3188TIP3    H130979   0.823   3.793   3.463 -0.6387 -0.1711  0.4145
 3188TIP3    H230980   0.755   3.842   3.337 -0.5327  1.5301  1.0026
 3189TIP3   OH230981   4.041   4.176  11.146 -0.1803  0.2896  0.1493
 3189TIP3    H130982   4.030   4.082  11.157 -0.6221  0.3508  0.2316
 3189TIP3    H230983   3.952   4.212  11.148 -0.0801  0.6165 -0.6811
 3190TIP3   OH230984   5.645   0.423   3.950  0.0156  0.1479 -0.2569
 3190TIP3    H130985   5.580   0.372   3.902 -0.1319  1.2134 -1.2428
 3190TIP3    H230986   5.689   0.475   3.882  1.7351 -0.3512  0.4171
 3191TIP3   OH230987   1.460   0.001   0.601 -0.4739 -0.1293 -0.0324
 3191TIP3    H130988   1.531   0.033   0.656 -1.2956  0.8357  0.5012
 3191TIP3    H230989   1.503  -0.052   0.534  0.8261  1.2342 -0.3083
 3192TIP3   OH230990   2.051   5.582   2.284 -0.4413  0.4482  0.5478
 3192TIP3    H130991   2.084   5.670   2.301  1.3775  0.2206 -1.3686
 3192TIP3    H230992   2.122   5.539   2.237 -1.9175 -1.5267  0.0030
 3193TIP3   OH230993   0.805   5.626  11.484 -0.0151  0.2578 -0.2095
 3193TIP3    H130994   0.832   5.703  11.434  0.9073  0.7815  1.0285
 3193TIP3    H230995   0.764   5.661  11.562 -0.6157 -0.5332 -0.1574
 3194TIP3   OH230996   0.006   0.456  14.313 -0.1696  0.6740  0.6468
 3194TIP3    H130997   0.073   0.525  14.315  0.5864  0.0737 -1.3601
 3194TIP3    H230998   0.013   0.419  14.225 -3.0262  0.4344  0.4326
 3195TIP3   OH230999   5.320   6.760  13.360 -0.1726  0.0541 -0.0321
 3195TIP3    H131000   5.390   6.743  13.298  0.6286  0.8958  0.5982
 3195TIP3    H231001   5.241   6.724  13.320  1.1292 -4.1732  0.7837
 3196TIP3   OH231002   1.231   4.570   4.365 -0.4885 -0.6306 -0.6713
 3196TIP3    H131003   1.199   4.583   4.454  0.9543 -0.1066 -0.2112
 3196TIP3    H231004   1.174   4.625   4.311 -0.5537  0.0565  0.0823
 3197TIP3   OH231005   1.607   4.344   5.012  0.5256  0.4151  0.8715
 3197TIP3    H131006   1.626   4.358   5.105  1.4486  2.1526  0.4552
 3197TIP3    H231007   1.531   4.399   4.995 -1.5801 -2.1575  1.2018
 3198TIP3   OH231008   3.805   2.680   6.428 -0.0692  0.4839  0.3220
 3198TIP3    H131009   3.793   2.657   6.520 -1.9041  0.0992  0.0239
 3198TIP3    H231010   3.889   2.641   6.404 -0.3901 -0.9135  1.3744
 3199TIP3   OH231011   4.441   2.146   2.710 -0.2297  0.1302  0.1721
 3199TIP3    H131012   4.391   2.142   2.629 -2.0100  0.1819  1.2235
 3199TIP3    H231013   4.397   2.084   2.768  0.9769  0.1360  1.1323
 3200TIP3   OH231014   6.395   6.714   6.281 -0.3870  0.0068  0.0387
 3200TIP3    H131015   6.355   6.662   6.351  0.3611  2.1589  2.1895
 3200TIP3    H231016   6.489   6.700   6.291 -0.2643  0.3373 -0.5613
 3201TIP3   OH231017   6.227   1.997   4.625  0.0305  0.6023 -0.5331
 3201TIP3    H131018   6.314   2.036   4.628 -0.0629  0.9647 -2.0030
 3201TIP3    H231019   6.201   2.003   4.533 -0.6685 -1.4532 -0.5006
 3202TIP3   OH231020   4.711   2.121   6.115  1.3086  0.1326  0.7402
 3202TIP3    H131021   4.618   2.098   6.118  0.8339  1.2562 -1.9156
 3202TIP3    H231022   4.747   2.088   6.197 -0.6746 -3.6272  0.3219
 3203TIP3   OH231023   5.592   0.845  11.550 -0.3740  0.2511 -0.0108
 3203TIP3    H131024   5.607   0.796  11.469  0.7886  0.5289  0.0185
 3203TIP3    H231025   5.570   0.778  11.615 -0.0257 -0.1099 -0.2612
 3204TIP3   OH231026   5.347   1.207  11.301 -0.5656 -0.2587 -0.3389
 3204TIP3    H131027   5.372   1.184  11.212 -2.6351 -0.9383 -0.7986
 3204TIP3    H231028   5.340   1.123  11.346 -2.1744 -0.1515 -0.3229
 3205TIP3   OH231029   1.734   1.479  15.241  0.1429  0.4794  0.0106
 3205TIP3    H131030   1.642   1.469  15.217  0.7116 -0.2151 -2.1760
 3205TIP3    H231031   1.736   1.554  15.300 -1.8297  0.3812  0.2756
 3206TIP3   OH231032   0.051   1.824  13.171  0.1536  0.0459  0.1322
 3206TIP3    H131033   0.018   1.859  13.088 -0.7572  1.6666  1.1359
 3206TIP3    H231034   0.146   1.837  13.167  0.1832 -0.4081 -0.8750
 3207TIP3   OH231035   6.716   4.675  11.479 -0.2447  0.1875  0.5339
 3207TIP3    H131036   6.662   4.694  11.402  2.1991 -0.5326 -1.4900
 3207TIP3    H231037   6.656   4.630  11.540 -2.5414  1.7910 -0.3853
 3208TIP3   OH231038   3.394   3.769  14.394  0.3352 -0.4048  0.2564
 3208TIP3    H131039   3.455   3.808  14.331  0.4985 -0.0583  0.6261
 3208TIP3    H231040   3.311   3.764  14.346  0.7629 -1.3567 -0.4173
 3209TIP3   OH231041   6.617   1.314   0.053  0.4698  0.0004  0.1156
 3209TIP3    H131042   6.608   1.408   0.034 -0.6596 -0.1255 -0.0114
 3209TIP3    H231043   6.661   1.311   0.138  0.5907  0.6426  0.0833
 3210TIP3   OH231044   4.085   2.055  15.616 -0.1941  0.5251 -0.6757
 3210TIP3    H131045   4.098   1.962  15.594 -0.5387  0.6498 -1.4399
 3210TIP3    H231046   4.120   2.102  15.541  0.2217  1.0320 -0.1729
 3211TIP3   OH231047   5.646   0.125  11.710 -0.6502  0.2554 -0.2803
 3211TIP3    H131048   5.585   0.151  11.641  0.3272  2.6372 -0.3497
 3211TIP3    H231049   5.607   0.160  11.790 -1.3289 -1.7228  0.2992
 3212TIP3   OH231050   2.517   1.532   5.547 -0.3365 -0.1849 -0.1749
 3212TIP3    H131051   2.537   1.439   5.556  0.5692  0.1462  1.4997
 3212TIP3    H231052   2.595   1.570   5.507  0.0876  0.1610  0.9592
 3213TIP3   OH231053   0.724   5.017   2.468 -0.3429 -0.3465  0.1382
 3213TIP3    H131054   0.667   5.086   2.502  1.2742  0.9381  0.3584
 3213TIP3    H231055   0.752   5.050   2.382 -0.2038 -1.1288 -0.1262
 3214TIP3   OH231056   3.442   4.758   6.127  0.2565  0.4491  0.4527
 3214TIP3    H131057   3.483   4.794   6.205 -2.0652  0.5105  1.7351
 3214TIP3    H231058   3.355   4.732   6.156  0.2185 -1.9779 -1.5118
 3215TIP3   OH231059   3.255   6.162  11.676  0.3754  0.6956 -0.4959
 3215TIP3    H131060   3.270   6.146  11.583 -0.7816 -0.4890 -0.4986
 3215TIP3    H231061   3.227   6.077  11.711 -0.4241  1.4138  0.6716
 3216TIP3   OH231062   2.577   1.621  13.308  0.4939  0.1624 -0.4002
 3216TIP3    H131063   2.546   1.706  13.340 -1.5597 -1.4800  2.5094
 3216TIP3    H231064   2.502   1.584  13.260  0.8644 -0.5602 -0.4503
 3217TIP3   OH231065   6.269   5.234  14.644 -0.2934  0.3757 -0.4344
 3217TIP3    H131066   6.224   5.173  14.702 -0.2786  0.7547 -0.0230
 3217TIP3    H231067   6.221   5.316  14.652 -0.4587  0.3612 -1.1700
 3218TIP3   OH231068   0.226   2.882   0.680 -0.7920 -0.3895 -0.0624
 3218TIP3    H131069   0.208   2.973   0.701  0.7355  0.0604 -0.5878
 3218TIP3    H231070   0.224   2.878   0.584 -0.3409 -0.7855 -0.0602
 3219TIP3   OH231071   4.257   6.026   3.212  0.1405  0.2331 -0.0070
 3219TIP3    H131072   4.163   6.019   3.196 -0.2336 -2.8536  2.5345
 3219TIP3    H231073   4.266   6.102   3.270 -0.3017  2.2402 -2.3837
 3220TIP3   OH231074   0.991   1.439  13.301 -0.2379 -0.1466  0.2470
 3220TIP3    H131075   1.004   1.501  13.229 -1.1141 -0.5737 -0.2994
 3220TIP3    H231076   1.053   1.467  13.368 -0.5599  1.2759 -0.0102
 3221TIP3   OH231077   0.608   3.803   4.306 -0.2436 -0.4078  0.4954
 3221TIP3    H131078   0.551   3.748   4.360 -1.1595  0.2583  0.2230
 3221TIP3    H231079   0.548   3.859   4.257  0.6271 -0.1861 -0.3324
 3222TIP3   OH231080   1.756   5.976   1.491  0.0948 -0.2559 -0.1657
 3222TIP3    H131081   1.825   5.928   1.537 -0.7497 -1.5484 -0.1935
 3222TIP3    H231082   1.686   5.912   1.481 -0.5970  0.6557 -1.2998
 3223TIP3   OH231083   3.013   3.309  17.148  0.3221  0.8649  0.0474
 3223TIP3    H131084   3.073   3.236  17.161 -0.1922  0.3451 -0.4416
 3223TIP3    H231085   3.005   3.318  17.053  1.2523  2.2952  0.0651
 3224TIP3   OH231086   6.534   1.356  11.750 -0.2120 -0.3589 -0.0490
 3224TIP3    H131087   6.615   1.326  11.792 -1.4558 -1.7343  1.4940
 3224TIP3    H231088   6.480   1.389  11.822 -2.5768 -3.1267 -0.3651
 3225TIP3   OH231089   5.547   4.271  15.000 -0.0939 -0.0840  0.3813
 3225TIP3    H131090   5.560   4.230  14.914 -0.8131  0.3594  0.0525
 3225TIP3    H231091   5.589   4.212  15.062  0.0716 -0.6167 -0.2366
 3226TIP3   OH231092   5.787   6.236   2.104  0.4035  0.3405 -0.4074
 3226TIP3    H131093   5.744   6.281   2.176 -0.3571  0.9986 -1.2394
 3226TIP3    H231094   5.880   6.259   2.113  0.1585  1.3431 -0.2776
 3227TIP3   OH231095   0.187   0.800  11.212  0.0224  1.0493 -0.2386
 3227TIP3    H131096   0.216   0.851  11.136  0.3866 -0.3769 -1.0845
 3227TIP3    H231097   0.264   0.749  11.237 -0.8417 -0.4512 -0.5556
 3228TIP3   OH231098   5.170   4.951  14.064  0.5773  0.4388 -0.0047
 3228TIP3    H131099   5.114   4.991  14.131  2.4773  0.0542  1.9112
 3228TIP3    H231100   5.138   4.861  14.058  1.2560  0.0689  1.4646
 3229TIP3   OH231101   3.371   2.646  15.693  0.3086 -0.1724  0.0921
 3229TIP3    H131102   3.366   2.553  15.674  2.0410 -0.4261  0.7377
 3229TIP3    H231103   3.332   2.688  15.616  0.4551 -1.3931 -0.6769
 3230TIP3   OH231104   5.134   6.521   1.858 -0.3394  0.0362  0.5125
 3230TIP3    H131105   5.161   6.430   1.862 -0.3671  0.0580  1.3906
 3230TIP3    H231106   5.167   6.560   1.939  0.8113  1.1330 -0.4367
 3231TIP3   OH231107   3.216   3.998   4.811 -0.3384 -0.0262 -0.5790
 3231TIP3    H131108   3.200   3.905   4.792 -3.3652  0.0259  1.0700
 3231TIP3    H231109   3.304   3.999   4.849  0.8947 -1.7423 -3.0525
 3232TIP3   OH231110   4.114   4.114   2.899  0.2463  0.2230  0.4845
 3232TIP3    H131111   4.144   4.189   2.848 -2.6763 -0.4876 -2.6234
 3232TIP3    H231112   4.084   4.152   2.982 -0.0045  2.2959 -0.5050
 3233TIP3   OH231113   2.737   2.306  15.307  0.0832 -0.3744 -0.2291
 3233TIP3    H131114   2.735   2.290  15.212 -1.4520  1.3617 -0.5451
 3233TIP3    H231115   2.648   2.290  15.336  0.6586 -1.4214  1.0788
 3234TIP3   OH231116   2.260   5.199  16.870 -0.0780  0.3968  0.3789
 3234TIP3    H131117   2.261   5.104  16.887  2.8980  0.8597  4.6253
 3234TIP3    H231118   2.191   5.232  16.927  0.5738  0.9379  0.8690
 3235TIP3   OH231119   2.510   4.297   5.639  0.1528  0.5199  0.2203
 3235TIP3    H131120   2.475   4.225   5.585  2.4199 -0.3678 -0.1951
 3235TIP3    H231121   2.488   4.376   5.590  0.5531 -0.1561 -1.1295
 3236TIP3   OH231122   4.895   3.323   0.206 -0.5345 -0.4107  0.4511
 3236TIP3    H131123   4.817   3.292   0.253 -0.9420  2.4216  1.8388
 3236TIP3    H231124   4.949   3.364   0.273  0.4115  0.9419 -1.0684
 3237TIP3   OH231125   4.395   6.653   6.200 -0.3420 -0.1183  0.1385
 3237TIP3    H131126   4.440   6.728   6.238 -0.4994  0.5410 -0.9214
 3237TIP3    H231127   4.460   6.583   6.200  0.0949  0.2828  0.3166
 3238TIP3   OH231128   2.489   5.851  12.870  0.6865 -0.1033 -0.8096
 3238TIP3    H131129   2.412   5.828  12.921  1.8694  1.1381  1.7122
 3238TIP3    H231130   2.454   5.881  12.786 -1.7750  1.9273  0.7827
 3239TIP3   OH231131   6.077   6.591   3.839 -0.4687  0.0700  0.4658
 3239TIP3    H131132   5.990   6.584   3.878 -0.0391  2.1010  1.9660
 3239TIP3    H231133   6.083   6.681   3.809  0.9627 -0.1564 -0.0281
 3240TIP3   OH231134   6.581   1.850   2.362  0.1807  0.1967  0.3468
 3240TIP3    H131135   6.486   1.841   2.357  0.4355 -2.8581 -1.3857
 3240TIP3    H231136   6.608   1.867   2.272  1.2781  1.8294  0.9387
 3241TIP3   OH231137   4.182   1.120  12.646 -0.2080 -0.0671 -0.0790
 3241TIP3    H131138   4.191   1.173  12.567  0.2579  0.3384  0.2376
 3241TIP3    H231139   4.088   1.104  12.654 -0.5074  1.7290  0.4616
 3242TIP3   OH231140   5.355   0.153  12.457  0.0636 -0.1484  0.0143
 3242TIP3    H131141   5.427   0.202  12.497  0.8645  0.0753 -1.6459
 3242TIP3    H231142   5.338   0.198  12.375 -0.0072 -1.9294 -0.9895
 3243TIP3   OH231143   5.212   5.481   1.733  0.2515 -0.2179 -0.2931
 3243TIP3    H131144   5.138   5.478   1.793 -0.5160  1.2324 -1.1116
 3243TIP3    H231145   5.289   5.492   1.790 -0.1998 -1.2114  0.5273
 3244TIP3   OH231146   6.465   4.013   1.371 -0.1627 -0.2764 -0.3866
 3244TIP3    H131147   6.525   4.079   1.405 -0.3952 -0.8762  1.2694
 3244TIP3    H231148   6.521   3.937   1.354 -0.1445 -0.1826 -0.7440
 3245TIP3   OH231149   2.494   3.969   3.359 -0.3650 -0.4597 -0.2097
 3245TIP3    H131150   2.468   3.989   3.270 -0.7774  0.4400  0.1037
 3245TIP3    H231151   2.453   4.036   3.413  0.1443 -0.7897  0.6276
 3246TIP3   OH231152   3.825   0.325  14.368 -0.2545  0.5365  0.3210
 3246TIP3    H131153   3.796   0.236  14.348  1.2155  0.5143 -2.1863
 3246TIP3    H231154   3.864   0.320  14.455 -1.9097 -0.7944  1.0328
 3247TIP3   OH231155   3.563   2.888  13.142  0.4643 -0.6855 -0.5790
 3247TIP3    H131156   3.494   2.862  13.203  0.4627 -0.4240 -0.4647
 3247TIP3    H231157   3.637   2.911  13.198  1.0285 -2.0283 -0.7435
 3248TIP3   OH231158   4.121   0.745   2.081 -0.2006 -0.1981  0.6103
 3248TIP3    H131159   4.129   0.654   2.108 -0.1485 -0.2714  0.3565
 3248TIP3    H231160   4.195   0.758   2.021 -0.2608 -0.0148  0.5751
 3249TIP3   OH231161   2.375   0.989  14.260 -0.1441  0.2185  0.3239
 3249TIP3    H131162   2.468   0.966  14.253 -0.0243  0.8272 -0.1390
 3249TIP3    H231163   2.374   1.075  14.302 -0.5230  0.0424  0.6832
 3250TIP3   OH231164   3.382   5.767  17.169  0.4363 -0.3105 -0.7115
 3250TIP3    H131165   3.305   5.750  17.115 -0.6135  2.0022 -0.0460
 3250TIP3    H231166   3.404   5.858  17.152  3.0807 -0.8762 -0.8546
 3251TIP3   OH231167   2.043   2.872  11.911 -0.6970  0.1232 -0.6377
 3251TIP3    H131168   2.061   2.965  11.925  3.8596 -0.4078 -1.3382
 3251TIP3    H231169   2.027   2.865  11.817 -1.0672  0.1740 -0.5810
 3252TIP3   OH231170   4.350   3.242   2.009  0.0640  0.5514  0.2534
 3252TIP3    H131171   4.359   3.152   2.040  0.3783 -0.7415 -3.1388
 3252TIP3    H231172   4.439   3.269   1.986 -0.3516  0.4146 -1.7778
 3253TIP3   OH231173   2.225   1.642   4.304  0.0493  0.0123  0.7505
 3253TIP3    H131174   2.298   1.701   4.284  0.2893 -0.7183 -0.5806
 3253TIP3    H231175   2.158   1.700   4.340  0.5610  0.9964  0.1822
 3254TIP3   OH231176   0.927   0.748  15.168 -0.2913  0.6889  0.3309
 3254TIP3    H131177   0.999   0.704  15.213 -1.3382 -0.3821  1.0146
 3254TIP3    H231178   0.915   0.829  15.217  0.4014  0.8402  0.2588
 3255TIP3   OH231179   4.549   5.578  16.018  0.2818 -0.7808  0.0284
 3255TIP3    H131180   4.462   5.543  15.999 -0.5751  0.8019  0.8003
 3255TIP3    H231181   4.586   5.599  15.932 -1.8704  2.4789 -0.2550
 3256TIP3   OH231182   5.108   4.044  17.227 -0.2945 -0.5126  0.0063
 3256TIP3    H131183   5.122   4.128  17.270 -0.0334 -0.9778  0.8445
 3256TIP3    H231184   5.192   4.023  17.187 -0.0374 -0.8800  0.7181
 3257TIP3   OH231185   4.525   3.604  11.536 -0.6064 -0.3303 -0.0595
 3257TIP3    H131186   4.603   3.646  11.500 -1.4587  0.6774 -0.7963
 3257TIP3    H231187   4.528   3.623  11.629 -0.3296  0.3071 -0.1966
 3258TIP3   OH231188   3.665   5.590  13.387  0.0608  0.1634  0.8642
 3258TIP3    H131189   3.575   5.581  13.419  0.0615  1.6163  1.3624
 3258TIP3    H231190   3.666   5.675  13.344  0.5371 -0.9611 -1.5154
 3259TIP3   OH231191   4.148   3.197  15.736 -0.1694 -0.0073  0.4997
 3259TIP3    H131192   4.060   3.162  15.726 -0.6726  1.1632  0.7431
 3259TIP3    H231193   4.180   3.156  15.817 -1.2818  1.1163  1.5579
 3260TIP3   OH231194   4.411   2.707  13.505  0.0463  0.2781  0.5786
 3260TIP3    H131195   4.363   2.725  13.586  0.8000  0.9809  0.8918
 3260TIP3    H231196   4.369   2.630  13.468 -0.4230  0.0555  1.5503
 3261TIP3   OH231197   2.629   5.828   1.419 -0.2616 -0.1921  0.4396
 3261TIP3    H131198   2.683   5.906   1.406  0.1728 -0.3639  1.1788
 3261TIP3    H231199   2.652   5.796   1.506  0.2466 -1.6750 -0.1949
 3262TIP3   OH231200   4.828   1.601  16.828 -0.4714  0.0717 -0.4078
 3262TIP3    H131201   4.895   1.660  16.794  0.6115 -1.2109 -0.5954
 3262TIP3    H231202   4.799   1.551  16.751  1.3848 -2.2658  0.2846
 3263TIP3   OH231203   1.341   0.112  12.368 -0.2366 -0.3844  0.2804
 3263TIP3    H131204   1.407   0.116  12.299 -0.8642 -1.0828 -0.3777
 3263TIP3    H231205   1.284   0.187  12.352 -0.8045 -0.9556 -0.4098
 3264TIP3   OH231206   3.902   0.510  15.615  0.2919  0.1925  0.0255
 3264TIP3    H131207   3.824   0.559  15.641  1.6408  1.3824  2.0721
 3264TIP3    H231208   3.883   0.481  15.526 -2.2538  0.8931  0.2586
 3265TIP3   OH231209   5.421   6.203   3.138 -0.8766  0.1015 -0.0397
 3265TIP3    H131210   5.506   6.161   3.149  0.4788  2.9569  1.3482
 3265TIP3    H231211   5.368   6.168   3.210 -0.9572 -1.6437 -0.8753
 3266TIP3   OH231212   2.535   0.018   3.909 -0.2312 -0.3926  0.5888
 3266TIP3    H131213   2.508   0.064   3.829 -0.6358 -1.2298  0.2307
 3266TIP3    H231214   2.629   0.035   3.915 -0.3889  0.5619  0.5261
 3267TIP3   OH231215   1.340   0.357   3.201 -0.4703  0.0962  0.2518
 3267TIP3    H131216   1.362   0.441   3.242  1.2595 -0.7414  1.1113
 3267TIP3    H231217   1.335   0.295   3.273  0.0472 -0.9011 -0.5510
 3268TIP3   OH231218   2.110   4.098   0.274  0.4218 -0.1193 -0.0890
 3268TIP3    H131219   2.169   4.162   0.315  1.7187 -1.9798  1.1596
 3268TIP3    H231220   2.100   4.128   0.184  1.7969  1.2752  0.1748
 3269TIP3   OH231221   4.879   3.266   4.721 -0.0141 -0.1527  0.4074
 3269TIP3    H131222   4.844   3.241   4.807 -0.8752  2.9471  1.1078
 3269TIP3    H231223   4.962   3.310   4.741 -0.3955  0.9140 -0.2542
 3270TIP3   OH231224   5.304   3.039  11.369  0.1670 -0.1168 -0.3538
 3270TIP3    H131225   5.361   2.975  11.327 -1.8748 -0.6602 -2.4966
 3270TIP3    H231226   5.290   3.106  11.303 -0.9416  0.4630  0.4412
 3271TIP3   OH231227   1.396   2.330   3.418 -0.0088 -0.1018 -0.4254
 3271TIP3    H131228   1.464   2.281   3.371  2.6869  2.7936  0.0861
 3271TIP3    H231229   1.397   2.417   3.378 -5.4996 -0.4952 -2.2277
 3272TIP3   OH231230   2.573   4.114   0.318  0.3832 -0.0687  0.4171
 3272TIP3    H131231   2.501   4.170   0.287  0.2662  0.8961  2.2755
 3272TIP3    H231232   2.641   4.175   0.344  0.3257 -0.7466  2.3324
 3273TIP3   OH231233   0.995   6.735   2.512 -0.1671 -0.2703 -0.2780
 3273TIP3    H131234   0.982   6.827   2.490  0.2593 -0.3945 -1.1070
 3273TIP3    H231235   1.089   6.722   2.509 -0.2822 -1.0199 -1.4463
 3274TIP3   OH231236   0.795   4.779  11.637 -0.5002 -0.0509 -0.0743
 3274TIP3    H131237   0.761   4.803  11.723 -1.2794 -3.0997  0.5876
 3274TIP3    H231238   0.784   4.858  11.584 -0.2731  1.8295  2.4950
 3275TIP3   OH231239   4.179   0.365   4.980  0.1010 -0.2595 -0.2682
 3275TIP3    H131240   4.208   0.361   5.071 -1.6852 -0.4313  0.3303
 3275TIP3    H231241   4.126   0.444   4.975  1.1550  0.4044 -1.4907
 3276TIP3   OH231242   4.407   2.836  12.625 -0.5228 -0.1095  0.5923
 3276TIP3    H131243   4.472   2.797  12.685  0.4579 -0.8230 -0.8679
 3276TIP3    H231244   4.323   2.800  12.655  0.0972 -1.5300  0.7233
 3277TIP3   OH231245   0.321   4.525   4.409 -0.2263 -0.2542 -0.1101
 3277TIP3    H131246   0.226   4.519   4.402 -0.4065  1.5251  0.1867
 3277TIP3    H231247   0.352   4.524   4.318 -0.8387  2.3074 -0.4279
 3278TIP3   OH231248   0.173   6.467  12.896 -0.1188 -0.1219 -0.3304
 3278TIP3    H131249   0.220   6.423  12.967  0.2622 -0.3315 -0.7052
 3278TIP3    H231250   0.085   6.429  12.899  0.5314 -1.8490 -1.4016
 3279TIP3   OH231251   4.074   6.405  12.565 -0.6278  0.2709 -0.0970
 3279TIP3    H131252   3.980   6.398  12.548 -0.5526  0.9646 -0.8500
 3279TIP3    H231253   4.109   6.453  12.490  0.8510 -2.6020 -1.3896
 3280TIP3   OH231254   4.058   5.781  13.733 -0.0519 -0.1559  0.9988
 3280TIP3    H131255   4.047   5.875  13.721  0.3937 -0.1898  0.2284
 3280TIP3    H231256   4.019   5.742  13.655  0.1558 -0.5840  1.1014
 3281TIP3   OH231257   6.427   0.301  13.363  0.7763 -0.4122  0.1443
 3281TIP3    H131258   6.444   0.390  13.393  2.2401 -0.5690 -0.1742
 3281TIP3    H231259   6.493   0.247  13.407  1.5688 -0.9669 -1.6136
 3282TIP3   OH231260   3.120   1.909  16.438 -0.3243 -0.2439 -0.0872
 3282TIP3    H131261   3.074   1.916  16.522  0.8806 -1.4126  0.7215
 3282TIP3    H231262   3.210   1.933  16.458  0.4283 -2.4463 -0.5647
 3283TIP3   OH231263   0.577   0.830  16.908  0.2471 -0.4144  0.3569
 3283TIP3    H131264   0.578   0.778  16.828 -0.9233 -1.5761  1.0596
 3283TIP3    H231265   0.490   0.815  16.945 -0.0035  1.7756  0.7837
 3284TIP3   OH231266   3.623   4.998   4.290 -0.0601  0.1930 -0.2427
 3284TIP3    H131267   3.597   5.002   4.382  2.2978  0.3889  0.4799
 3284TIP3    H231268   3.574   5.069   4.248 -2.2599 -0.7956  0.5111
 3285TIP3   OH231269   2.750   0.309  16.969  0.5473 -0.1071 -0.1307
 3285TIP3    H131270   2.776   0.270  17.052 -2.1377  0.4020  1.0652
 3285TIP3    H231271   2.728   0.235  16.913  0.2699 -0.4263  0.3938
 3286TIP3   OH231272   6.706   3.554   0.256 -0.0478  0.7430 -0.5633
 3286TIP3    H131273   6.772   3.610   0.216 -0.3662 -0.5654 -3.1138
 3286TIP3    H231274   6.630   3.560   0.198 -1.4780  0.6505  1.2079
 3287TIP3   OH231275   5.607   2.831  16.620  0.2086 -0.2301 -0.5982
 3287TIP3    H131276   5.511   2.839  16.621  0.2911  0.7876  0.2153
 3287TIP3    H231277   5.622   2.738  16.635 -0.6476 -0.0933  1.4832
 3288TIP3   OH231278   3.541   5.994   5.097 -0.1418  1.2022  0.7295
 3288TIP3    H131279   3.544   5.919   5.157 -0.9319  0.0824 -0.5753
 3288TIP3    H231280   3.458   6.037   5.117 -0.6719  0.5057  0.1069
 3289TIP3   OH231281   6.314   3.893  11.827  0.4686  0.3059  0.3310
 3289TIP3    H131282   6.271   3.968  11.868  0.7178  1.9070 -2.1502
 3289TIP3    H231283   6.375   3.861  11.894 -2.3438 -0.2246  2.8587
 3290TIP3   OH231284   0.173   6.077   2.839 -0.2758 -0.0788  0.2787
 3290TIP3    H131285   0.099   6.018   2.854 -1.6499  1.5572  0.2691
 3290TIP3    H231286   0.132   6.160   2.812  1.5062  1.1632  1.1848
 3291TIP3   OH231287   0.715   1.793  14.748  0.0594  0.3758  0.0694
 3291TIP3    H131288   0.699   1.717  14.805 -0.8094  1.3580  1.1877
 3291TIP3    H231289   0.743   1.755  14.665  0.9761 -1.1183  1.0233
 3292TIP3   OH231290   0.991   3.062  16.038  0.6674 -0.1265 -0.4285
 3292TIP3    H131291   1.023   3.148  16.066  1.4329 -0.6557  0.3992
 3292TIP3    H231292   0.911   3.049  16.088  0.3865  0.2261 -0.7798
 3293TIP3   OH231293   4.089   5.802   1.776  0.5787  0.3482  0.7342
 3293TIP3    H131294   4.108   5.870   1.841 -0.8917 -0.2877  1.8658
 3293TIP3    H231295   4.044   5.849   1.705 -1.5162  0.4326  2.0383
 3294TIP3   OH231296   6.174   5.213   2.880  0.7023 -0.2421  0.3402
 3294TIP3    H131297   6.112   5.272   2.837 -0.5660 -1.0645  0.9907
 3294TIP3    H231298   6.160   5.227   2.973  1.5346 -0.4151  0.4997
 3295TIP3   OH231299   2.062   5.500  11.078  0.5679  0.6868  0.1451
 3295TIP3    H131300   2.071   5.580  11.130  2.2528  1.1666 -0.8071
 3295TIP3    H231301   2.125   5.510  11.007  2.6729 -2.5171  1.3147
 3296TIP3   OH231302   3.544   3.645  15.894 -0.5767 -0.6751  0.0445
 3296TIP3    H131303   3.524   3.663  15.802 -1.6682 -0.0672  0.3837
 3296TIP3    H231304   3.542   3.550  15.900 -1.5543 -0.7002 -0.3537
 3297TIP3   OH231305   0.845   5.987  15.333  0.0613 -0.4949 -0.1282
 3297TIP3    H131306   0.934   5.953  15.326  0.2378 -0.0663 -0.0087
 3297TIP3    H231307   0.789   5.909  15.338  0.4853 -0.7718  0.4378
 3298TIP3   OH231308   4.264   0.391  13.808 -0.3359 -0.1198 -0.3969
 3298TIP3    H131309   4.177   0.430  13.795  0.2905  1.7245  0.4915
 3298TIP3    H231310   4.278   0.396  13.903  0.8288 -0.1702 -0.5541
 3299TIP3   OH231311   5.496   2.904   0.481  0.0594 -0.1924 -0.0631
 3299TIP3    H131312   5.470   2.905   0.388 -1.1544 -1.7013  0.2156
 3299TIP3    H231313   5.583   2.944   0.482 -0.5904  1.4311 -1.6132
 3300TIP3   OH231314   1.241   1.565  12.323  0.6722  0.3069  0.2516
 3300TIP3    H131315   1.215   1.477  12.349 -1.5157  1.1195  0.9998
 3300TIP3    H231316   1.175   1.592  12.259 -0.2177  2.2896  1.8942
 3301TIP3   OH231317   1.980   2.887   4.517 -0.8348  0.0780  0.3764
 3301TIP3    H131318   1.903   2.926   4.560 -1.1652 -0.9663  0.7499
 3301TIP3    H231319   2.049   2.894   4.582 -0.9031  0.0065  0.4572
 3302TIP3   OH231320   0.896   5.446   5.887  0.0328  0.2816 -0.5366
 3302TIP3    H131321   0.931   5.424   5.973 -1.0129  0.2682 -0.1022
 3302TIP3    H231322   0.843   5.525   5.902 -3.5776 -1.9456 -0.2752
 3303TIP3   OH231323   5.675   3.838   2.503  0.3110  0.2321 -0.2929
 3303TIP3    H131324   5.582   3.820   2.488 -0.1055  3.3455 -2.2385
 3303TIP3    H231325   5.679   3.869   2.593 -0.6256  0.4792 -0.3223
 3304TIP3   OH231326   4.844   3.846  16.620 -0.2005 -0.4919 -0.0803
 3304TIP3    H131327   4.929   3.883  16.643 -0.6268  1.5585 -1.5895
 3304TIP3    H231328   4.864   3.755  16.598  1.5448 -0.1550 -0.0968
 3305TIP3   OH231329   1.235   5.478   2.705 -0.3763 -0.0846  0.2456
 3305TIP3    H131330   1.263   5.526   2.627 -1.2123  0.7416  0.4280
 3305TIP3    H231331   1.169   5.417   2.673  0.0712 -0.5218  0.1459
 3306TIP3   OH231332   3.638   6.004  15.720  0.9810  0.4464 -0.1220
 3306TIP3    H131333   3.723   5.966  15.697  0.9439  0.1869  0.1729
 3306TIP3    H231334   3.579   5.929  15.728  1.0680  0.4979  1.1369
 3307TIP3   OH231335   6.766   0.496   1.864 -0.6342 -0.2486 -0.3067
 3307TIP3    H131336   6.840   0.458   1.911 -0.1893 -0.3181 -1.0354
 3307TIP3    H231337   6.688   0.461   1.908 -0.2335 -1.3272 -0.4300
 3308TIP3   OH231338   0.485   2.347   3.468 -0.0361  0.5851  0.1524
 3308TIP3    H131339   0.535   2.296   3.532  0.2110  1.8919  1.0246
 3308TIP3    H231340   0.525   2.324   3.384 -0.1557 -0.9129  0.4704
 3309TIP3   OH231341   6.419   0.168   1.849  0.1973  1.0731 -0.1923
 3309TIP3    H131342   6.497   0.112   1.856 -0.5783  0.1337  1.9277
 3309TIP3    H231343   6.418   0.196   1.758  2.8239  0.8517 -0.3776
 3310TIP3   OH231344   0.994   3.578  14.727 -0.2408  0.2596  0.0958
 3310TIP3    H131345   0.989   3.651  14.666 -0.7696  3.0145  3.1747
 3310TIP3    H231346   0.930   3.599  14.795  1.0809 -2.0135  2.1940
 3311TIP3   OH231347   5.194   5.867   1.090  0.4882 -0.2972  0.3511
 3311TIP3    H131348   5.192   5.834   1.180 -0.5130  2.3002  1.3781
 3311TIP3    H231349   5.110   5.842   1.053  0.3557 -0.2344  0.6073
 3312TIP3   OH231350   0.657   2.248  13.854  0.1071  0.0809  1.0345
 3312TIP3    H131351   0.714   2.193  13.908  0.7618  0.7867  1.0649
 3312TIP3    H231352   0.689   2.236  13.764  0.0030  0.1203  0.9910
 3313TIP3   OH231353   4.045   3.363  11.616  0.3239  0.4767  0.3921
 3313TIP3    H131354   4.083   3.279  11.642 -0.1586 -0.8642 -2.7865
 3313TIP3    H231355   4.114   3.407  11.568 -0.1305  0.8813  0.0958
 3314TIP3   OH231356   1.449   3.831  16.795 -0.1390  0.0018  0.0702
 3314TIP3    H131357   1.388   3.772  16.751  0.2028 -0.5678  0.3514
 3314TIP3    H231358   1.405   3.916  16.792 -2.2914 -0.8518  2.6642
 3315TIP3   OH231359   4.776   6.741  15.829  0.1154 -0.3098 -0.2625
 3315TIP3    H131360   4.711   6.811  15.835 -0.5439 -0.7232 -2.0410
 3315TIP3    H231361   4.771   6.710  15.739  2.3016 -0.8427 -0.2637
 3316TIP3   OH231362   4.255   1.842   5.952 -0.2972 -0.1464 -0.2406
 3316TIP3    H131363   4.238   1.772   5.889  0.4256  1.3396 -2.1954
 3316TIP3    H231364   4.214   1.919   5.913 -0.1591  0.7533  1.3304
 3317TIP3   OH231365   4.730   5.722  13.352 -0.1197 -0.5190  0.1027
 3317TIP3    H131366   4.793   5.793  13.341  0.7403 -1.3750 -0.6481
 3317TIP3    H231367   4.728   5.705  13.446 -1.4883  1.4935  0.4944
 3318TIP3   OH231368   0.897   0.172  14.237  0.4973  0.0443 -0.3230
 3318TIP3    H131369   0.856   0.188  14.152 -0.6842 -1.8223 -0.1648
 3318TIP3    H231370   0.941   0.087  14.227  1.7184  0.5554  0.4666
 3319TIP3   OH231371   0.501   6.016   3.516  0.3112 -0.5138 -0.1771
 3319TIP3    H131372   0.505   5.925   3.485 -0.4715 -1.1455  1.4296
 3319TIP3    H231373   0.422   6.051   3.475 -0.2474 -1.0728  0.3823
 3320TIP3   OH231374   1.285   4.539   4.008 -0.0956 -0.3719  0.4000
 3320TIP3    H131375   1.378   4.560   4.019  0.0264 -0.8735  0.3400
 3320TIP3    H231376   1.239   4.620   4.032  0.4858  1.3862 -3.5622
 3321TIP3   OH231377   1.668   3.399  16.296  0.0099  0.1541 -0.6458
 3321TIP3    H131378   1.595   3.456  16.272 -0.3614  0.4436  1.0455
 3321TIP3    H231379   1.664   3.328  16.233 -1.1916  0.6286 -1.1396
 3322TIP3   OH231380   3.999   2.336  10.860  0.3578  0.1706 -0.3418
 3322TIP3    H131381   4.018   2.423  10.824 -0.6747  1.1366  1.3447
 3322TIP3    H231382   3.945   2.294  10.793 -0.5654  1.4826 -0.4527
 3323TIP3   OH231383   5.857   6.033  17.085  0.1238  0.0248  0.1838
 3323TIP3    H131384   5.783   5.982  17.118  0.0475  0.3938  0.5998
 3323TIP3    H231385   5.837   6.123  17.110  1.3325 -0.0256  1.4589
 3324TIP3   OH231386   2.603   1.440   1.748  0.2512 -0.4883 -0.2180
 3324TIP3    H131387   2.659   1.363   1.738 -0.6247 -1.2394  0.4130
 3324TIP3    H231388   2.536   1.430   1.680  0.2187 -0.2191 -0.2249
 3325TIP3   OH231389   3.238   4.832   2.515 -0.4267 -0.0959 -0.2770
 3325TIP3    H131390   3.323   4.868   2.489 -1.0607  2.7000  1.1437
 3325TIP3    H231391   3.254   4.796   2.602 -0.6678  0.5066  0.0261
 3326TIP3   OH231392   3.110   1.596   3.321  0.7134  0.6599  0.2974
 3326TIP3    H131393   3.055   1.663   3.360 -0.1630  0.5652 -0.7222
 3326TIP3    H231394   3.052   1.548   3.262  1.8005  0.3223 -0.5450
 3327TIP3   OH231395   6.232   1.574   1.352  0.2090  0.5325 -0.2666
 3327TIP3    H131396   6.319   1.537   1.337  0.1340  0.2074  0.0674
 3327TIP3    H231397   6.181   1.500   1.386  0.9171  1.6114  3.6142
 3328TIP3   OH231398   0.755   1.796  14.160 -0.1148 -0.0178  0.1173
 3328TIP3    H131399   0.797   1.873  14.122  0.1009 -0.9408 -1.6019
 3328TIP3    H231400   0.681   1.831  14.210 -0.4368  1.2646 -1.2040
 3329TIP3   OH231401   5.790   4.038   4.037  0.3836 -0.5217  0.1293
 3329TIP3    H131402   5.700   4.009   4.025  0.0899  0.5417 -0.4199
 3329TIP3    H231403   5.783   4.133   4.046  1.6427 -0.0699 -2.6243
 3330TIP3   OH231404   2.292   5.693   3.308 -1.0145 -0.2302 -0.1392
 3330TIP3    H131405   2.327   5.676   3.220  0.0196  1.0262 -0.0053
 3330TIP3    H231406   2.255   5.781   3.302  1.5407  1.0761  1.3306
 3331TIP3   OH231407   3.257   4.328   1.567 -0.0381  0.2943  0.2015
 3331TIP3    H131408   3.250   4.405   1.624 -3.1668 -0.1856  0.6576
 3331TIP3    H231409   3.217   4.257   1.618 -0.9036 -0.6838 -1.7203
 3332TIP3   OH231410   5.766   0.495  13.965 -0.2867 -0.5235 -0.2184
 3332TIP3    H131411   5.791   0.535  13.882  1.0751 -1.3842 -0.2693
 3332TIP3    H231412   5.833   0.427  13.979 -0.2355 -0.1136  1.7833
 3333TIP3   OH231413   3.246   6.124   0.902  1.0152 -0.2466  0.3325
 3333TIP3    H131414   3.260   6.186   0.831 -2.7213  1.2565  0.6786
 3333TIP3    H231415   3.264   6.174   0.982 -0.3614 -0.0409  0.5503
 3334TIP3   OH231416   1.955   1.269  11.085  0.2137  0.2601  0.5679
 3334TIP3    H131417   1.942   1.362  11.068  1.1632  0.6056  1.5973
 3334TIP3    H231418   1.980   1.232  11.001  1.4331  1.2580  0.4542
 3335TIP3   OH231419   4.272   0.376   2.893 -0.3379 -0.8978 -0.1718
 3335TIP3    H131420   4.341   0.425   2.850 -0.8758  0.9019  0.9260
 3335TIP3    H231421   4.195   0.387   2.837 -0.7283  0.4492  0.5850
 3336TIP3   OH231422   6.189   1.492  11.833 -0.3239 -0.4024  0.2945
 3336TIP3    H131423   6.254   1.454  11.893  0.7045  3.1851  1.7280
 3336TIP3    H231424   6.121   1.527  11.891 -1.7030 -0.8845 -0.9800
 3337TIP3   OH231425   0.723   3.298  10.335  0.2411  1.5220  0.0795
 3337TIP3    H131426   0.735   3.273  10.427 -1.8116  0.9983  0.2647
 3337TIP3    H231427   0.780   3.238  10.286 -0.5185  0.0954  0.8761
 3338TIP3   OH231428   3.762   2.762  10.914  0.6089 -0.2122 -0.3749
 3338TIP3    H131429   3.818   2.689  10.939  0.6562 -0.3400 -0.8455
 3338TIP3    H231430   3.822   2.831  10.889  0.6001  0.4803  1.3595
 3339TIP3   OH231431   3.711   0.256   3.230  0.3638  0.5444 -0.0055
 3339TIP3    H131432   3.745   0.338   3.193  0.0335  0.1379 -1.2931
 3339TIP3    H231433   3.648   0.283   3.296 -0.6575  1.3757 -1.2687
 3340TIP3   OH231434   5.016   3.936  14.265 -0.0040 -0.4032 -0.1880
 3340TIP3    H131435   5.042   3.845  14.258  0.0663 -0.2844 -1.7784
 3340TIP3    H231436   4.972   3.956  14.183 -0.5572  0.8367  0.3670
 3341TIP3   OH231437   4.450   2.711  10.789  0.1235  0.0215  0.1186
 3341TIP3    H131438   4.484   2.787  10.742 -1.0449  1.3574  1.3283
 3341TIP3    H231439   4.443   2.643  10.723 -2.0519  1.9925 -1.8534
 3342TIP3   OH231440   5.175   0.059  16.716 -0.0145  0.6914  0.1007
 3342TIP3    H131441   5.139  -0.003  16.780  1.6624 -0.7734 -0.2717
 3342TIP3    H231442   5.159   0.017  16.632  2.6853 -0.1829 -0.0635
 3343TIP3   OH231443   6.403   5.664   4.274  0.0089  0.2007 -0.4847
 3343TIP3    H131444   6.458   5.607   4.328  0.0602  1.5130  0.9161
 3343TIP3    H231445   6.350   5.603   4.222 -0.4047 -1.1693  1.4137
 3344TIP3   OH231446   4.970   4.732   1.404  0.2676  0.2251  0.5095
 3344TIP3    H131447   4.966   4.827   1.413  1.2258  0.4055 -0.6834
 3344TIP3    H231448   4.956   4.716   1.311  1.9952 -0.6370  0.3630
 3345TIP3   OH231449   0.324   0.440  13.800 -0.0937  0.0691  0.1905
 3345TIP3    H131450   0.386   0.502  13.837  1.2216  0.4952 -2.4686
 3345TIP3    H231451   0.362   0.354  13.817 -0.4026  0.1407  1.2909
 3346TIP3   OH231452   3.203   4.127   4.333 -1.0147  0.2586 -0.0047
 3346TIP3    H131453   3.266   4.170   4.391 -2.1326 -0.3455  1.7291
 3346TIP3    H231454   3.118   4.159   4.363 -1.6268  0.1357 -1.5201
 3347TIP3   OH231455   0.633   1.885  15.576 -0.6102 -0.8480  0.1670
 3347TIP3    H131456   0.570   1.829  15.621  1.5091 -0.8461  3.4973
 3347TIP3    H231457   0.712   1.831  15.567 -0.5944 -0.4825 -2.8200
 3348TIP3   OH231458   2.545   6.299   5.463  0.5476  0.0522  0.0297
 3348TIP3    H131459   2.489   6.295   5.386  0.3281 -0.4041  0.2078
 3348TIP3    H231460   2.555   6.207   5.490  0.0474  0.2620  0.9582
 3349TIP3   OH231461   2.610   3.178  14.299 -0.3732 -0.1063  0.2977
 3349TIP3    H131462   2.536   3.124  14.324 -0.2369  1.1172  3.9520
 3349TIP3    H231463   2.571   3.253  14.254 -1.2836  0.0421  1.3040
 3350TIP3   OH231464   6.617   0.235  13.583  0.2240  0.0820  0.9015
 3350TIP3    H131465   6.596   0.187  13.663 -0.5216  0.4901  0.9581
 3350TIP3    H231466   6.667   0.173  13.530 -2.1747 -1.4029  0.2197
 3351TIP3   OH231467   4.872   1.989  14.003 -0.0313  0.2416 -0.7133
 3351TIP3    H131468   4.815   1.946  13.938  1.4928  0.8982 -2.5721
 3351TIP3    H231469   4.882   2.078  13.969  0.7023  0.6387  0.5290
 3352TIP3   OH231470   6.475   2.883  15.134  0.7999 -0.0846 -0.3442
 3352TIP3    H131471   6.384   2.912  15.129  0.7051 -0.0965  0.9588
 3352TIP3    H231472   6.484   2.849  15.223  2.0870 -0.0637 -0.4537
 3353TIP3   OH231473   4.172   4.106  15.678  0.2900  0.0084  0.3134
 3353TIP3    H131474   4.201   4.067  15.761 -0.7648 -1.2657  0.1228
 3353TIP3    H231475   4.084   4.139  15.697  0.6182  1.0344  0.0749
 3354TIP3   OH231476   3.162   6.296  16.150 -0.0340  0.3846  0.0391
 3354TIP3    H131477   3.165   6.371  16.210  0.3890 -0.4534  1.0937
 3354TIP3    H231478   3.115   6.228  16.199  0.0230 -0.2163 -0.7165
 3355TIP3   OH231479   1.790   4.454   4.818  0.2023  0.7359 -0.2397
 3355TIP3    H131480   1.725   4.398   4.860 -2.5135  2.3201 -2.0215
 3355TIP3    H231481   1.783   4.431   4.725  0.8705  2.2235 -0.6799
 3356TIP3   OH231482   0.571   5.444  12.720  0.4131 -0.1763  0.1205
 3356TIP3    H131483   0.647   5.498  12.743  1.4492 -1.3903 -0.3461
 3356TIP3    H231484   0.579   5.431  12.626  0.1597 -1.1020  0.2215
 3357TIP3   OH231485   5.506   4.195  13.123  0.4869  0.0394 -0.1904
 3357TIP3    H131486   5.569   4.248  13.075  1.1547  0.0086  0.6283
 3357TIP3    H231487   5.445   4.258  13.161  0.9842  0.2035  0.3583
 3358TIP3   OH231488   5.650   0.669  11.750 -0.3660  0.5679 -0.6875
 3358TIP3    H131489   5.716   0.665  11.819 -1.4275 -2.3399  0.3113
 3358TIP3    H231490   5.643   0.579  11.718 -2.1549  1.2425 -2.4357
 3359TIP3   OH231491   4.031   3.939  14.500 -0.0955  0.6118 -0.3730
 3359TIP3    H131492   4.116   3.968  14.535  0.2485  0.7764 -1.3234
 3359TIP3    H231493   4.043   3.845  14.484 -0.1618  0.5946 -0.3227
 3360TIP3   OH231494   2.461   4.491   1.784 -0.0571  0.1867  0.4587
 3360TIP3    H131495   2.417   4.556   1.839  0.1342  0.3501  0.4199
 3360TIP3    H231496   2.459   4.411   1.836 -0.1546  0.2626  0.5735
 3361TIP3   OH231497   5.750   5.546   0.526  0.0909 -0.2050  0.0819
 3361TIP3    H131498   5.815   5.603   0.568  2.3161 -1.7518 -1.0401
 3361TIP3    H231499   5.791   5.522   0.443 -1.8351 -1.4972 -0.5439
 3362TIP3   OH231500   1.904   5.704   3.956 -0.2134  0.2045  0.2250
 3362TIP3    H131501   1.979   5.754   3.924 -1.6178  3.1467  1.1977
 3362TIP3    H231502   1.942   5.622   3.987  2.3310  0.8508 -0.9044
 3363TIP3   OH231503   4.495   0.397  12.892  0.2753 -0.7367  0.4424
 3363TIP3    H131504   4.510   0.423  12.983 -1.0713 -0.3982  0.5943
 3363TIP3    H231505   4.400   0.383  12.887  0.4023 -1.2736 -0.7792
 3364TIP3   OH231506   4.854   4.763  13.001  0.3616 -0.2736  0.5051
 3364TIP3    H131507   4.764   4.765  13.034  0.1858  1.3065  0.0125
 3364TIP3    H231508   4.905   4.808  13.067 -0.0693  3.3538 -1.3962
 3365TIP3   OH231509   1.572   5.622   4.098  0.1151  0.8404  0.3088
 3365TIP3    H131510   1.539   5.623   4.008 -1.1944 -1.6076  0.6705
 3365TIP3    H231511   1.499   5.655   4.151 -1.4413 -3.0032  0.9312
 3366TIP3   OH231512   6.563   6.139  14.245 -0.0616 -0.1765  0.0360
 3366TIP3    H131513   6.537   6.147  14.153  0.2066 -0.7693 -0.0962
 3366TIP3    H231514   6.593   6.226  14.269  1.3630 -0.3638 -0.9153
 3367TIP3   OH231515   1.406   6.515  15.271  0.1488  0.5839  0.7350
 3367TIP3    H131516   1.314   6.505  15.246  0.0042 -2.1775  2.0277
 3367TIP3    H231517   1.449   6.439  15.234  1.2293  0.0723  2.8563
 3368TIP3   OH231518   4.946   5.515   3.889 -0.0606 -0.2540 -0.8207
 3368TIP3    H131519   4.932   5.471   3.973 -2.4050  1.6183 -0.1068
 3368TIP3    H231520   4.991   5.597   3.911  0.8351 -0.5079 -1.6336
 3369TIP3   OH231521   1.010   2.274  14.768  0.1145 -0.3389  0.0993
 3369TIP3    H131522   1.009   2.269  14.672  0.4061  0.6793  0.0216
 3369TIP3    H231523   0.965   2.195  14.797 -0.3554 -0.4547 -0.8888
 3370TIP3   OH231524   4.647   2.494   1.511  0.4864  0.0116 -0.2255
 3370TIP3    H131525   4.634   2.465   1.421  2.3166  1.3784 -1.0225
 3370TIP3    H231526   4.574   2.553   1.528  0.5090  0.3255 -1.1314
 3371TIP3   OH231527   5.757   3.372   5.438  0.0111 -0.3445  0.2245
 3371TIP3    H131528   5.851   3.369   5.456  0.1045  1.4361  0.1487
 3371TIP3    H231529   5.721   3.426   5.508 -0.6592  0.6826 -0.8796
 3372TIP3   OH231530   2.995   6.002   0.546 -0.0160  0.4701 -0.6630
 3372TIP3    H131531   3.085   6.019   0.517  0.4301  1.2508  1.0853
 3372TIP3    H231532   3.003   5.977   0.638 -1.5586 -0.0095 -0.6203
 3373TIP3   OH231533   2.296   0.318   3.266 -0.4513 -0.4338 -0.2412
 3373TIP3    H131534   2.341   0.312   3.181  0.2626 -0.7923  0.1475
 3373TIP3    H231535   2.245   0.399   3.260 -0.6480 -0.6057 -1.1198
 3374TIP3   OH231536   6.138   2.346  11.842 -0.0569 -0.4025  0.3788
 3374TIP3    H131537   6.191   2.348  11.762 -0.9472 -0.7554 -0.2368
 3374TIP3    H231538   6.198   2.373  11.911  1.1387 -1.5090 -0.1800
 3375TIP3   OH231539   5.292   3.503   0.925 -0.0729  0.0692 -0.2799
 3375TIP3    H131540   5.339   3.579   0.890 -2.2245  1.3705 -0.5167
 3375TIP3    H231541   5.299   3.512   1.020  0.0468  0.3070 -0.3117
 3376TIP3   OH231542   0.846   1.021  16.534 -0.5166  0.9446  0.0560
 3376TIP3    H131543   0.894   0.943  16.509  0.2171  1.6211 -0.7048
 3376TIP3    H231544   0.755   1.004  16.507 -0.2450  0.6080 -0.6507
 3377TIP3   OH231545   5.950   3.022  16.480  0.6888 -0.4788 -0.6327
 3377TIP3    H131546   5.918   3.037  16.570  2.0811  0.7796 -0.3000
 3377TIP3    H231547   6.015   2.952  16.489  0.2936 -0.8686 -0.7891
 3378TIP3   OH231548   2.269   5.770  11.474  0.5520  0.4518 -0.2173
 3378TIP3    H131549   2.289   5.823  11.551 -1.8280  1.0448  0.0498
 3378TIP3    H231550   2.268   5.680  11.506  1.5502  0.4991 -0.0145
 3379TIP3   OH231551   4.470   3.810   4.611 -0.1395 -0.6987 -0.1647
 3379TIP3    H131552   4.512   3.895   4.619  0.2079 -0.8315 -0.5652
 3379TIP3    H231553   4.518   3.754   4.673 -0.3233 -0.6266  0.0475
 3380TIP3   OH231554   1.021   4.346   2.090  0.9137  0.0185  0.3364
 3380TIP3    H131555   0.949   4.288   2.065 -0.3072  1.2588  0.8359
 3380TIP3    H231556   1.091   4.324   2.029 -0.9336  0.9028 -2.2682
 3381TIP3   OH231557   0.590   0.235  14.179  0.2143  0.2188  0.3705
 3381TIP3    H131558   0.633   0.295  14.240  0.5000  0.6497 -0.2499
 3381TIP3    H231559   0.518   0.197  14.230  0.1166  0.9773  0.8131
 3382TIP3   OH231560   6.576   4.618  13.773 -0.3489  0.1791  0.5800
 3382TIP3    H131561   6.541   4.551  13.831 -0.4496 -0.2676  0.0182
 3382TIP3    H231562   6.510   4.627  13.704 -0.3587  0.8939  0.6766
 3383TIP3   OH231563   0.429   0.290  11.268 -0.4945  0.1761 -0.6586
 3383TIP3    H131564   0.506   0.235  11.252  0.1231  0.5256  0.9151
 3383TIP3    H231565   0.453   0.375  11.233  0.1687  0.4849  0.4837
 3384TIP3   OH231566   5.677   6.340   4.189 -0.0394 -1.1570 -0.3946
 3384TIP3    H131567   5.719   6.318   4.106  0.2619 -0.9638 -0.2923
 3384TIP3    H231568   5.584   6.351   4.166  0.2584  0.4219 -1.0008
 3385TIP3   OH231569   4.556   5.658   5.418  0.3951  0.5792  0.5473
 3385TIP3    H131570   4.557   5.716   5.494  2.2339  0.1652  0.8824
 3385TIP3    H231571   4.645   5.621   5.414 -0.3734 -1.3244 -0.3267
 3386TIP3   OH231572   5.256   0.586  14.390  0.0618  0.4784 -0.8377
 3386TIP3    H131573   5.266   0.596  14.295  0.4348 -2.1965 -1.1716
 3386TIP3    H231574   5.174   0.538  14.400 -0.4338  1.5023  0.2956
 3387TIP3   OH231575   4.939   1.971   5.622  0.4741 -0.1040  0.0017
 3387TIP3    H131576   4.880   2.039   5.655 -1.4935 -1.6502 -0.1433
 3387TIP3    H231577   4.983   1.937   5.700  0.7170  0.6500  0.1966
 3388TIP3   OH231578   5.148   3.130  15.415 -0.0887  0.8193 -0.0085
 3388TIP3    H131579   5.216   3.088  15.361  0.7823  2.7791 -0.5338
 3388TIP3    H231580   5.085   3.164  15.351 -0.4344  0.8850  0.3634
 3389TIP3   OH231581   4.835   0.901   0.223 -0.4456  0.0171 -0.4754
 3389TIP3    H131582   4.865   0.817   0.258 -1.0900 -0.6385 -1.4511
 3389TIP3    H231583   4.743   0.885   0.198 -0.5922  1.0287 -0.6169
 3390TIP3   OH231584   2.207   0.401   3.635 -0.4202 -0.6449  0.5257
 3390TIP3    H131585   2.145   0.340   3.595 -2.4777  1.1899  0.6964
 3390TIP3    H231586   2.169   0.421   3.721 -0.2126  1.3768  0.2006
 3391TIP3   OH231587   1.436   2.552   4.341  0.1609 -0.6841 -0.2615
 3391TIP3    H131588   1.492   2.475   4.334 -0.0312 -1.0722  1.8751
 3391TIP3    H231589   1.390   2.541   4.424 -2.2834  0.1713 -1.4127
 3392TIP3   OH231590   4.459   2.147   1.105  0.3845 -0.3582 -0.2915
 3392TIP3    H131591   4.417   2.066   1.134  1.0278 -0.7507 -0.4370
 3392TIP3    H231592   4.529   2.118   1.046  0.3332  0.3266 -0.7045
 3393TIP3   OH231593   5.405   1.940  14.344  0.1530  0.1466  0.3177
 3393TIP3    H131594   5.445   1.857  14.366 -1.5272 -0.7581  0.1341
 3393TIP3    H231595   5.478   1.997  14.321  1.3916 -1.0204  1.2249
 3394TIP3   OH231596   4.767   2.775  12.304  0.4145 -0.4246 -0.0343
 3394TIP3    H131597   4.839   2.787  12.242  0.6925 -0.4434  0.2825
 3394TIP3    H231598   4.786   2.692  12.347 -0.3900 -0.9798 -0.7349
 3395TIP3   OH231599   5.836   0.355   3.176 -0.1728 -0.6452  0.2145
 3395TIP3    H131600   5.900   0.286   3.160 -1.3954 -1.7474 -0.1801
 3395TIP3    H231601   5.751   0.312   3.162 -1.0740  0.3496  2.1772
 3396TIP3   OH231602   3.028   3.997  15.014 -0.2687 -0.2467 -0.1541
 3396TIP3    H131603   2.951   4.036  14.973 -0.1330  1.7053  1.2946
 3396TIP3    H231604   3.016   4.012  15.107  1.5171 -0.5181  0.1686
 3397TIP3   OH231605   3.077   2.773   0.935  0.2242  0.1023  0.1191
 3397TIP3    H131606   3.128   2.707   0.887 -1.8043 -0.8879 -0.7879
 3397TIP3    H231607   2.994   2.777   0.888 -0.1122  2.5537  0.8205
 3398TIP3   OH231608   4.428   0.739  17.280  0.0093 -0.7443 -0.9030
 3398TIP3    H131609   4.397   0.803  17.215  1.2187 -0.1117 -0.8886
 3398TIP3    H231610   4.366   0.666  17.273 -3.1809  1.4723  0.9926
 3399TIP3   OH231611   0.973   0.387   2.089 -0.1779  0.3530 -0.5013
 3399TIP3    H131612   0.879   0.371   2.092 -0.0118 -0.5797 -0.0725
 3399TIP3    H231613   0.986   0.462   2.147 -0.3258 -1.2780  1.7616
 3400TIP3   OH231614   1.172   2.768   5.797 -0.3305  0.6004 -0.4992
 3400TIP3    H131615   1.095   2.761   5.853  0.5309  1.6343  0.8888
 3400TIP3    H231616   1.174   2.686   5.748 -2.3755  0.6177 -0.6715
 3401TIP3   OH231617   1.586   0.045   5.708  0.1531 -0.7760 -0.5404
 3401TIP3    H131618   1.676   0.068   5.729 -0.3600  1.8483 -0.8428
 3401TIP3    H231619   1.558  -0.013   5.779  1.8894 -1.1646 -0.1441
 3402TIP3   OH231620   4.492   2.166   5.778  0.7967 -0.0022  0.0274
 3402TIP3    H131621   4.415   2.171   5.721  0.5560  1.9785  0.4506
 3402TIP3    H231622   4.464   2.115   5.853  0.4559 -0.8042 -0.6318
 3403TIP3   OH231623   4.500   5.346  14.432  0.1151  0.1890 -0.0700
 3403TIP3    H131624   4.412   5.309  14.432 -0.4712  1.5162  0.6231
 3403TIP3    H231625   4.541   5.312  14.511 -0.0052  0.0871 -0.0516
 3404TIP3   OH231626   3.308   2.091   5.057 -0.3890  0.4851 -0.2216
 3404TIP3    H131627   3.359   2.032   5.001 -0.5968  0.5252 -0.4602
 3404TIP3    H231628   3.217   2.066   5.040 -0.4354 -1.8131  2.6160
 3405TIP3   OH231629   6.085   4.165   2.095 -0.4476  0.4136 -0.0483
 3405TIP3    H131630   6.068   4.259   2.085 -1.0981  0.6171  2.4020
 3405TIP3    H231631   6.178   4.156   2.074  0.4063  2.1725  2.4786
 3406TIP3   OH231632   5.678   0.200  13.559  0.9060  0.0020 -0.3027
 3406TIP3    H131633   5.730   0.279  13.541  0.0699  0.8869  0.9411
 3406TIP3    H231634   5.714   0.166  13.641  1.6759 -1.3076 -1.1538
 3407TIP3   OH231635   2.577   5.655  11.782  0.0661  0.4244 -0.2371
 3407TIP3    H131636   2.624   5.681  11.703  0.1252  1.7744  0.2207
 3407TIP3    H231637   2.524   5.581  11.754  1.3101 -0.1840 -1.1348
 3408TIP3   OH231638   5.508   1.480   4.914  0.6192  0.5391  0.7608
 3408TIP3    H131639   5.462   1.446   4.991 -1.8292  0.6678 -0.5421
 3408TIP3    H231640   5.601   1.475   4.937  0.0871 -1.7042  2.7694
 3409TIP3   OH231641   5.158   1.413  15.762 -0.2440  0.5314 -0.2514
 3409TIP3    H131642   5.124   1.325  15.744  2.0506 -1.0054  2.2459
 3409TIP3    H231643   5.088   1.455  15.812 -0.8411 -0.4113 -0.2633
 3410TIP3   OH231644   3.566   4.097   2.717 -0.1050 -0.0523  0.0596
 3410TIP3    H131645   3.618   4.137   2.787 -0.9203  0.6486  0.2831
 3410TIP3    H231646   3.631   4.060   2.657  0.6234 -0.0475  0.8211
 3411TIP3   OH231647   0.323   4.178  11.060 -0.3048 -0.3331 -0.3959
 3411TIP3    H131648   0.269   4.249  11.026  0.8651  0.2202 -1.1278
 3411TIP3    H231649   0.275   4.098  11.035 -0.6545  0.1400 -1.2787
 3412TIP3   OH231650   5.949   5.304  16.693 -0.4344  0.1689 -0.4330
 3412TIP3    H131651   5.946   5.309  16.788 -0.5821 -3.6504 -0.0780
 3412TIP3    H231652   5.875   5.357  16.664 -1.8010 -0.4077  1.7533
 3413TIP3   OH231653   2.826   2.690   1.189  0.0642  0.2133 -0.3331
 3413TIP3    H131654   2.746   2.636   1.188 -0.1880  0.5848 -0.9055
 3413TIP3    H231655   2.893   2.633   1.226  0.3408 -1.3180 -2.9350
 3414TIP3   OH231656   1.557   6.178   3.457 -0.3967  0.3556  0.2542
 3414TIP3    H131657   1.580   6.102   3.404 -1.1279 -0.5794  1.2200
 3414TIP3    H231658   1.569   6.253   3.399  1.8863 -0.3287 -0.2590
 3415TIP3   OH231659   2.573   5.080  13.656  0.4199 -0.2350  0.4642
 3415TIP3    H131660   2.610   5.167  13.647 -1.1404  0.2676 -1.9523
 3415TIP3    H231661   2.634   5.023  13.609 -1.0859  0.4189 -2.5021
 3416TIP3   OH231662   4.253   5.419  12.229 -0.7240  0.0379  0.0447
 3416TIP3    H131663   4.206   5.335  12.231 -1.7808  0.6099 -0.2535
 3416TIP3    H231664   4.228   5.458  12.145  2.7363 -0.9858 -1.6418
 3417TIP3   OH231665   2.061   6.548   1.796  0.1987 -0.0264  0.1569
 3417TIP3    H131666   1.996   6.602   1.841 -0.0388  1.5526 -1.9391
 3417TIP3    H231667   2.143   6.598   1.802  0.8689 -1.1728  1.2438
 3418TIP3   OH231668   3.546   1.600  17.235 -0.0373  0.5272  0.4764
 3418TIP3    H131669   3.599   1.522  17.219 -0.4958  0.0476  1.2174
 3418TIP3    H231670   3.516   1.627  17.148  0.5986  0.2225  0.1549
 3419TIP3   OH231671   3.540   1.195  10.280  0.2144  0.1303  0.4890
 3419TIP3    H131672   3.535   1.248  10.360  1.1381 -1.8179  1.9350
 3419TIP3    H231673   3.596   1.121  10.304  0.4867 -0.5498 -1.9860
 3420TIP3   OH231674   6.439   3.955  16.868 -0.3023  0.6111  0.3461
 3420TIP3    H131675   6.398   3.874  16.899 -1.0715  0.8175 -0.1014
 3420TIP3    H231676   6.369   4.020  16.870  0.3798  1.3501  0.9663
 3421TIP3   OH231677   2.670   4.560   0.363 -0.2396 -0.1278 -0.1493
 3421TIP3    H131678   2.685   4.471   0.333  2.2965  0.0258  0.4091
 3421TIP3    H231679   2.701   4.615   0.291  2.1992  0.2281  1.0610
 3422TIP3   OH231680   4.791   4.086   4.117  0.8852  0.3232  0.1742
 3422TIP3    H131681   4.709   4.134   4.125  1.8248  2.3498 -1.2725
 3422TIP3    H231682   4.766   3.998   4.089 -0.9771 -0.4499  3.7303
 3423TIP3   OH231683   3.217   1.726   4.951  0.4961 -0.4032 -0.2395
 3423TIP3    H131684   3.232   1.636   4.983  1.0806  0.7053  2.9781
 3423TIP3    H231685   3.304   1.762   4.940  0.2575 -0.1078 -1.2653
 3424TIP3   OH231686   0.603   0.231   4.218  0.0698 -0.1904 -0.4202
 3424TIP3    H131687   0.543   0.244   4.145 -0.3642  1.0676  0.1292
 3424TIP3    H231688   0.561   0.164   4.272 -0.9857  0.8404  0.0795
 3425TIP3   OH231689   0.545   6.311  13.018 -0.3289  0.1867 -0.1590
 3425TIP3    H131690   0.549   6.270  12.932 -0.1711 -3.4798  1.4049
 3425TIP3    H231691   0.454   6.303  13.045 -0.4291  1.5209 -0.0584
 3426TIP3   OH231692   5.865   0.061  11.579  0.4616 -0.3432 -0.2091
 3426TIP3    H131693   5.868  -0.034  11.591 -0.4650 -0.1235  2.2654
 3426TIP3    H231694   5.785   0.089  11.623  0.1852  1.5193 -1.7274
 3427TIP3   OH231695   0.752   3.202  14.134 -0.2989  0.0496  0.2924
 3427TIP3    H131696   0.673   3.149  14.143 -0.4765 -0.0367 -1.3640
 3427TIP3    H231697   0.747   3.266  14.204 -0.9191 -1.0850  1.3182
 3428TIP3   OH231698   4.468   5.557  11.816 -0.2683  0.0383 -0.1380
 3428TIP3    H131699   4.430   5.645  11.807  1.3913  0.8830  0.5891
 3428TIP3    H231700   4.517   5.545  11.734 -0.3220 -0.1217 -0.1456
 3429TIP3   OH231701   3.014   1.246   4.586  0.1027  0.1112  0.2675
 3429TIP3    H131702   2.926   1.262   4.553 -0.2172 -0.9167  0.5501
 3429TIP3    H231703   3.043   1.167   4.540  0.7311  0.2375  0.4357
 3430TIP3   OH231704   4.113   6.210  16.056  0.1568 -0.0592  0.0576
 3430TIP3    H131705   4.126   6.299  16.089 -0.5118 -0.3064  1.0317
 3430TIP3    H231706   4.187   6.160  16.090  0.4744  0.0929 -0.3991
 3431TIP3   OH231707   2.251   6.319  11.824  0.4913  0.1823  0.4276
 3431TIP3    H131708   2.173   6.369  11.850  2.2059  2.3680  1.7148
 3431TIP3    H231709   2.321   6.354  11.878  2.4152 -1.7099 -0.6874
 3432TIP3   OH231710   1.743   1.001   5.965  0.1629  0.0252 -0.6250
 3432TIP3    H131711   1.793   0.968   6.039 -1.1505 -0.4729  0.0612
 3432TIP3    H231712   1.728   0.924   5.910  1.0610  0.3757 -1.4000
 3433TIP3   OH231713   1.870   3.120   1.545 -0.1676 -0.3568 -0.3160
 3433TIP3    H131714   1.822   3.046   1.507 -0.9838 -1.0407  1.8567
 3433TIP3    H231715   1.802   3.177   1.582  0.4802  1.2493 -1.4915
 3434TIP3   OH231716   2.898   4.392  11.159  0.4610  0.3320  0.2380
 3434TIP3    H131717   2.900   4.303  11.122  0.3926 -0.1550  1.3665
 3434TIP3    H231718   2.806   4.416  11.160  0.5228  0.6222 -0.5262
 3435TIP3   OH231719   3.026   2.297  16.546  0.2414  0.3136 -0.1255
 3435TIP3    H131720   3.048   2.325  16.635  0.1086  0.5246 -0.1595
 3435TIP3    H231721   3.110   2.297  16.499  0.3937 -0.2948  0.1350
 3436TIP3   OH231722   5.740   1.636  15.215  0.0513 -0.6997  0.4477
 3436TIP3    H131723   5.775   1.551  15.242 -1.6496 -1.2885  0.8740
 3436TIP3    H231724   5.746   1.635  15.120 -0.3642 -1.4851  0.4205
 3437TIP3   OH231725   3.568   1.383  15.577 -0.0664 -0.4380  0.9329
 3437TIP3    H131726   3.552   1.477  15.580  0.8147 -0.2635  0.3743
 3437TIP3    H231727   3.483   1.345  15.553 -0.1983  0.2888  0.2064
 3438TIP3   OH231728   0.415   0.748  14.100  0.2131  0.2698 -0.2957
 3438TIP3    H131729   0.504   0.723  14.125  0.0682 -0.4982 -0.4982
 3438TIP3    H231730   0.414   0.843  14.104  1.6993  0.4617 -2.3909
 3439TIP3   OH231731   5.979   4.831   0.571  0.3536  0.5350  0.1974
 3439TIP3    H131732   5.893   4.850   0.534 -0.6249  0.1716  2.1427
 3439TIP3    H231733   5.998   4.741   0.542  0.0134  0.5621 -0.1174
 3440TIP3   OH231734   1.704   3.420   4.690  0.1184 -0.1561 -0.4533
 3440TIP3    H131735   1.795   3.396   4.710 -1.1427 -2.8825  3.3262
 3440TIP3    H231736   1.698   3.513   4.714  1.5052 -0.4668  1.3628
 3441TIP3   OH231737   0.196   5.038  12.748  0.2228 -0.3244  0.0853
 3441TIP3    H131738   0.106   5.062  12.728  0.2258 -0.1086  0.3272
 3441TIP3    H231739   0.219   5.091  12.824 -0.1716 -1.9721  1.4030
 3442TIP3   OH231740   2.327   2.467  13.476 -0.4843 -0.0803 -0.2239
 3442TIP3    H131741   2.311   2.550  13.431  0.5364 -0.0110 -0.4905
 3442TIP3    H231742   2.390   2.489  13.545 -1.3708 -0.3521  0.7065
 3443TIP3   OH231743   3.813   5.280   0.411  0.1284 -0.0167  0.2401
 3443TIP3    H131744   3.776   5.368   0.414 -0.7444 -0.3400 -0.6202
 3443TIP3    H231745   3.738   5.223   0.397  0.8479 -0.7663 -0.6761
 3444TIP3   OH231746   0.867   2.482  13.271 -0.2498 -0.0616  0.3392
 3444TIP3    H131747   0.867   2.450  13.181  0.1779 -1.9215  0.9545
 3444TIP3    H231748   0.850   2.576  13.264  1.2279  0.0994 -1.7614
 3445TIP3   OH231749   2.420   5.781   3.778  0.2297  0.1076 -0.0480
 3445TIP3    H131750   2.507   5.821   3.773  0.1139  0.2377 -3.0424
 3445TIP3    H231751   2.436   5.694   3.813  1.2441  0.8262  1.3758
 3446TIP3   OH231752   3.596   6.618  15.893 -0.2255 -0.0997  0.1947
 3446TIP3    H131753   3.662   6.555  15.864 -0.0493  0.2678 -0.1989
 3446TIP3    H231754   3.514   6.568  15.892  0.0542 -0.5787  0.7644
 3447TIP3   OH231755   2.700   5.182  16.596  0.0289 -0.0755  0.3513
 3447TIP3    H131756   2.620   5.218  16.636  0.1916 -0.3441  0.9289
 3447TIP3    H231757   2.709   5.229  16.514  0.9755  2.1792  1.6715
 3448TIP3   OH231758   6.229   5.580  11.726 -0.3326 -0.0625 -0.4116
 3448TIP3    H131759   6.136   5.580  11.703 -0.4642  0.3109  0.1034
 3448TIP3    H231760   6.242   5.498  11.773  0.0387 -1.0596 -2.1458
 3449TIP3   OH231761   2.480   4.704   1.611 -0.0050  0.5296  0.2802
 3449TIP3    H131762   2.495   4.629   1.668 -0.1089  0.8656  0.7517
 3449TIP3    H231763   2.464   4.665   1.524  0.3176  0.0285  0.4403
 3450TIP3   OH231764   4.591   0.491  16.347  0.2655 -0.2880  0.2452
 3450TIP3    H131765   4.514   0.442  16.378 -0.8887  0.3429 -1.4610
 3450TIP3    H231766   4.662   0.461  16.403 -0.5697 -3.1955 -0.0471
 3451TIP3   OH231767   6.354   4.697   3.633 -0.3877 -0.1601 -0.2033
 3451TIP3    H131768   6.366   4.756   3.558  0.5882 -0.7370 -0.5238
 3451TIP3    H231769   6.323   4.616   3.594  1.2341 -0.8426 -0.1473
 3452TIP3   OH231770   6.437   1.607   1.782 -0.6632  0.0425 -0.7759
 3452TIP3    H131771   6.410   1.694   1.811  1.8616  0.0293  2.1902
 3452TIP3    H231772   6.532   1.614   1.771 -0.3554 -2.3383 -0.2251
 3453TIP3   OH231773   5.637   0.891   4.863 -0.1534 -0.6869 -0.6009
 3453TIP3    H131774   5.707   0.841   4.820 -2.0268 -2.9139 -1.2471
 3453TIP3    H231775   5.652   0.877   4.956 -0.2424 -1.9292 -0.7568
 3454TIP3   OH231776   6.019   1.622  15.517  0.4634  0.2073 -0.1350
 3454TIP3    H131777   5.987   1.574  15.441 -2.0802  0.6750  0.5424
 3454TIP3    H231778   5.968   1.588  15.591  0.4857  2.0310  0.7895
 3455TIP3   OH231779   4.566   0.238  14.893  0.6683  0.3045 -0.1732
 3455TIP3    H131780   4.603   0.209  14.810 -0.7775 -0.3571 -0.6274
 3455TIP3    H231781   4.552   0.157  14.942 -1.0604  0.3848 -0.4370
 3456TIP3   OH231782   2.204   3.527   0.927  0.5077  0.5406 -0.0572
 3456TIP3    H131783   2.267   3.532   0.855  0.0491 -1.2647 -0.6353
 3456TIP3    H231784   2.127   3.485   0.889  0.1093 -0.0991  1.3731
 3457TIP3   OH231785   1.124   1.672   1.895  0.0951  0.0165  0.2447
 3457TIP3    H131786   1.219   1.677   1.889 -0.0499  2.4730 -1.6022
 3457TIP3    H231787   1.094   1.657   1.805 -1.2880 -0.8271  0.8065
 3458TIP3   OH231788   3.261   2.981  13.885  0.1533 -0.0486  0.1945
 3458TIP3    H131789   3.295   2.900  13.923  1.3571 -0.0204 -0.7451
 3458TIP3    H231790   3.293   3.050  13.944  2.1212  0.0080 -0.8482
 3459TIP3   OH231791   0.710   1.708   3.924  0.3003  0.2346 -0.4502
 3459TIP3    H131792   0.752   1.638   3.975  2.4310  1.1356 -0.8704
 3459TIP3    H231793   0.631   1.729   3.973  2.2508  1.0995  2.5949
 3460TIP3   OH231794   0.245   3.177   0.448  0.5779  0.7364 -0.4036
 3460TIP3    H131795   0.202   3.132   0.521  0.6931  2.2370  0.6215
 3460TIP3    H231796   0.232   3.118   0.373 -0.4492 -0.3484  0.5838
 3461TIP3   OH231797   3.124   1.266  10.665  0.4128 -0.0276  0.1027
 3461TIP3    H131798   3.090   1.315  10.590  0.9086 -2.4814 -1.8320
 3461TIP3    H231799   3.115   1.174  10.640  5.4524 -0.9565  0.6838
 3462TIP3   OH231800   0.811   2.599  11.141 -0.1866  0.5117 -0.5589
 3462TIP3    H131801   0.874   2.649  11.089  1.1806  0.2756  0.8057
 3462TIP3    H231802   0.849   2.512  11.148 -0.7428  0.3200  0.1575
 3463TIP3   OH231803   4.246   5.967   4.685  0.4340  0.2015 -0.1016
 3463TIP3    H131804   4.267   5.905   4.755 -1.6490  0.0695  0.4753
 3463TIP3    H231805   4.331   5.998   4.653  1.4562 -1.0857  1.2730
 3464TIP3   OH231806   3.883   2.854   1.587 -0.1237  0.1780  0.5976
 3464TIP3    H131807   3.816   2.900   1.536 -0.0022 -0.0320  0.2430
 3464TIP3    H231808   3.964   2.902   1.571 -0.2576  0.6650  1.3388
 3465TIP3   OH231809   2.193   0.208  12.920  0.1725  0.0463  0.0124
 3465TIP3    H131810   2.143   0.141  12.872  0.1229 -0.5006  0.7977
 3465TIP3    H231811   2.201   0.281  12.859  0.4234 -0.7633 -0.9566
 3466TIP3   OH231812   5.861   5.774  12.671  0.0518  0.2793  0.7326
 3466TIP3    H131813   5.825   5.843  12.617 -1.2603 -0.0354  1.1646
 3466TIP3    H231814   5.785   5.736  12.715  0.7827 -1.1764  0.8010
 3467TIP3   OH231815   4.542   5.741   5.679  0.6295  0.1729 -0.4894
 3467TIP3    H131816   4.518   5.829   5.708  0.2084 -0.3219  0.7354
 3467TIP3    H231817   4.631   5.727   5.711  1.0227  0.4549 -1.4226
 3468TIP3   OH231818   1.472   1.205   5.650 -0.4636 -0.2472 -0.8167
 3468TIP3    H131819   1.438   1.221   5.562 -1.4661  0.1444 -0.3786
 3468TIP3    H231820   1.483   1.292   5.687  2.3299 -0.2885 -1.3843
 3469TIP3   OH231821   5.072   0.558  11.163 -0.4667  0.2275 -0.4781
 3469TIP3    H131822   5.115   0.643  11.165  0.2245 -0.0809 -1.6786
 3469TIP3    H231823   5.103   0.517  11.083 -0.5025 -1.3082  0.2605
 3470TIP3   OH231824   1.871   2.178  13.564  1.2044  0.0227  0.1546
 3470TIP3    H131825   1.862   2.098  13.511 -0.6077  0.0371  0.3595
 3470TIP3    H231826   1.934   2.232  13.517 -0.4049  0.0803 -2.0942
 3471TIP3   OH231827   5.151   3.558  12.214 -0.3385  0.1065  0.2923
 3471TIP3    H131828   5.065   3.590  12.187  0.6372  2.3432 -0.4523
 3471TIP3    H231829   5.174   3.614  12.288  1.0642  0.5647 -0.4523
 3472TIP3   OH231830   4.237   6.509   1.786  0.2106 -0.7322  0.2016
 3472TIP3    H131831   4.261   6.427   1.830 -0.4735 -1.3936 -0.6095
 3472TIP3    H231832   4.146   6.524   1.813  0.2192 -0.4297  0.0630
 3473TIP3   OH231833   0.615   5.172  15.618 -0.2297 -0.0463 -0.2740
 3473TIP3    H131834   0.683   5.107  15.635  0.0754  0.1373 -0.7588
 3473TIP3    H231835   0.614   5.181  15.523  0.0787  1.0087 -0.1924
 3474TIP3   OH231836   4.801   2.887   2.799 -0.1696 -0.5292  0.0181
 3474TIP3    H131837   4.847   2.819   2.750 -0.3591  0.2867 -1.3514
 3474TIP3    H231838   4.718   2.899   2.752 -0.5655 -0.0321  0.8129
 3475TIP3   OH231839   4.483   6.054  13.621 -0.2349 -0.5095 -0.2348
 3475TIP3    H131840   4.526   6.134  13.591 -0.1936 -0.6254 -0.4829
 3475TIP3    H231841   4.428   6.027  13.548 -1.2381 -0.0056  0.3105
 3476TIP3   OH231842   3.915   4.941  15.343 -0.1855 -0.3900 -0.6433
 3476TIP3    H131843   3.954   4.891  15.271 -0.2215  2.1928 -2.5972
 3476TIP3    H231844   3.833   4.975  15.306 -1.5334 -1.1120  1.5296
 3477TIP3   OH231845   3.173   6.485  16.343  0.1682  0.2822  0.1529
 3477TIP3    H131846   3.234   6.549  16.307 -1.2334  1.1669 -0.7445
 3477TIP3    H231847   3.152   6.519  16.430  0.1367  0.5611  0.0385
 3478TIP3   OH231848   4.796   6.357  13.545 -0.4752  0.4493 -1.0755
 3478TIP3    H131849   4.829   6.418  13.479 -0.2741  0.4099 -1.0121
 3478TIP3    H231850   4.740   6.297  13.496  1.1628 -0.7626 -1.5667
 3479TIP3   OH231851   0.788   4.385   1.632  0.1527 -0.0411 -0.2510
 3479TIP3    H131852   0.772   4.400   1.725  1.4894 -1.4584  0.2468
 3479TIP3    H231853   0.871   4.430   1.615  0.4567 -0.6779 -0.4871
 3480TIP3   OH231854   6.563   2.675  16.488 -0.2266  0.2445  0.5413
 3480TIP3    H131855   6.569   2.729  16.410 -1.6079  0.0561  0.2773
 3480TIP3    H231856   6.534   2.735  16.557 -1.5078 -0.0689  0.3064
 3481TIP3   OH231857   5.626   1.776   1.718  0.0854  0.5282  0.7274
 3481TIP3    H131858   5.719   1.797   1.715  0.3990 -0.4803  2.1457
 3481TIP3    H231859   5.583   1.850   1.676  1.5420  0.8030 -0.3625
 3482TIP3   OH231860   1.825   4.014   2.122  0.3124 -0.2254 -0.0334
 3482TIP3    H131861   1.872   3.941   2.163 -0.2666 -0.8212 -0.4076
 3482TIP3    H231862   1.798   3.980   2.037 -0.7659  0.1049  0.1610
 3483TIP3   OH231863   3.859   3.961  14.274  0.0836  0.3428  0.0741
 3483TIP3    H131864   3.930   3.970  14.337 -0.1304 -0.0969  0.3853
 3483TIP3    H231865   3.884   4.018  14.201 -0.5097  2.2705  1.2984
 3484TIP3   OH231866   5.314   0.795   3.316  0.9396 -0.1479 -0.2067
 3484TIP3    H131867   5.229   0.753   3.304  1.2137 -0.8038  0.0925
 3484TIP3    H231868   5.362   0.735   3.374  1.3137  0.6161  0.2821
 3485TIP3   OH231869   2.949   3.718   2.050 -0.7455  0.0113  0.3144
 3485TIP3    H131870   2.875   3.753   2.100 -0.9398  0.0544  0.0012
 3485TIP3    H231871   2.976   3.790   1.994  1.9980  1.3526  3.0380
 3486TIP3   OH231872   2.532   6.016  13.123  0.6468  0.1217  0.6981
 3486TIP3    H131873   2.615   6.062  13.136  1.5509 -1.6529  1.4681
 3486TIP3    H231874   2.557   5.930  13.091 -0.9853 -0.0643 -0.1855
 3487TIP3   OH231875   4.596   4.124  17.044  0.3392  0.1280  0.2211
 3487TIP3    H131876   4.641   4.042  17.024  0.6475  0.2941  0.2321
 3487TIP3    H231877   4.651   4.192  17.006  0.4660  0.3848  0.8440
 3488TIP3   OH231878   5.838   1.150  15.687 -0.1860  0.4955 -0.7475
 3488TIP3    H131879   5.798   1.143  15.600 -0.1897 -2.8637 -0.5873
 3488TIP3    H231880   5.773   1.113  15.747  0.6017  0.9197  0.4129
 3489TIP3   OH231881   2.769   6.629   0.558 -0.3876  0.1283 -0.7421
 3489TIP3    H131882   2.818   6.685   0.619 -0.4224  1.2083 -1.6636
 3489TIP3    H231883   2.682   6.622   0.596 -0.5283  1.1322 -0.8466
 3490TIP3   OH231884   4.061   0.925   5.912  0.2051 -0.1712 -0.5025
 3490TIP3    H131885   4.118   0.849   5.902  0.5270  0.1912 -1.5131
 3490TIP3    H231886   3.992   0.912   5.846  0.9170  0.9836 -1.5148
 3491TIP3   OH231887   5.216   0.708  16.231 -1.1996  0.7717  0.0052
 3491TIP3    H131888   5.209   0.685  16.323  0.1444 -1.0291 -0.2869
 3491TIP3    H231889   5.307   0.736  16.219 -1.2428  0.5997 -0.8407
 3492TIP3   OH231890   3.744   3.934  12.468 -0.5449  0.0912  0.0238
 3492TIP3    H131891   3.688   3.870  12.422 -1.4546 -0.4010  1.7281
 3492TIP3    H231892   3.808   3.880  12.514 -1.4671  0.3448  1.6669
 3493TIP3   OH231893   0.447   2.501  13.435 -0.6561 -0.0475  0.6220
 3493TIP3    H131894   0.480   2.566  13.373  0.8135 -0.6717  0.7186
 3493TIP3    H231895   0.486   2.526  13.519 -1.1700 -0.2800  0.9368
 3494TIP3   OH231896   5.757   3.306   4.031 -0.1014  0.0921 -0.7921
 3494TIP3    H131897   5.733   3.308   4.123  0.9377 -1.5574 -0.4291
 3494TIP3    H231898   5.852   3.296   4.031  0.1877  2.2161 -2.1022
 3495TIP3   OH231899   3.860   5.116  16.269  0.2026 -0.0887  0.5912
 3495TIP3    H131900   3.809   5.137  16.348 -1.6881 -0.5776 -0.4385
 3495TIP3    H231901   3.795   5.085  16.206  1.4432  1.5822 -1.6527
 3496TIP3   OH231902   1.806   1.848  14.334 -0.3406 -0.3677  0.2279
 3496TIP3    H131903   1.890   1.870  14.374 -0.4076  0.3689 -0.0264
 3496TIP3    H231904   1.790   1.918  14.271 -0.4292 -1.2993 -0.8139
 3497TIP3   OH231905   3.512   4.308   5.311 -0.5934  0.0684 -0.6071
 3497TIP3    H131906   3.482   4.232   5.261 -2.5605  0.7874 -0.6192
 3497TIP3    H231907   3.472   4.298   5.397  1.0667 -0.0811  0.1861
 3498TIP3   OH231908   1.181   1.935   2.726 -0.2248 -0.3886  0.6833
 3498TIP3    H131909   1.260   1.958   2.676  0.2159 -2.3154  0.4168
 3498TIP3    H231910   1.196   1.974   2.812 -0.8219  2.6553 -0.4380
 3499TIP3   OH231911   6.584   6.056   5.274  0.0112  0.1307  0.2247
 3499TIP3    H131912   6.642   5.984   5.253  0.6686  1.0357 -1.1687
 3499TIP3    H231913   6.642   6.125   5.307 -0.5442  0.2606  0.9835
 3500TIP3   OH231914   3.257   5.201  16.514  0.3418 -0.5662 -0.0870
 3500TIP3    H131915   3.208   5.139  16.569  1.5466 -1.3332  0.1632
 3500TIP3    H231916   3.247   5.285  16.558  1.4327 -1.1965  1.4543
 3501TIP3   OH231917   6.352   5.016   5.453 -0.0614 -0.6866 -0.0113
 3501TIP3    H131918   6.359   4.935   5.403  0.2951 -0.6499 -0.0248
 3501TIP3    H231919   6.399   4.998   5.534  1.2927 -0.0347 -0.6055
 3502TIP3   OH231920   5.716   5.985  14.407  0.0164 -0.2266  0.3752
 3502TIP3    H131921   5.693   5.968  14.315 -1.6889  1.3506  0.4461
 3502TIP3    H231922   5.683   5.908  14.453 -0.9000 -0.1625 -0.1311
 3503TIP3   OH231923   0.977   5.393   4.705 -0.2041 -0.1603 -0.0895
 3503TIP3    H131924   1.035   5.409   4.631 -1.2003 -0.9124 -1.0660
 3503TIP3    H231925   0.960   5.299   4.703  0.1529 -0.2752  1.4109
 3504TIP3   OH231926   5.019   2.884   2.307  0.0908  0.4036  0.6184
 3504TIP3    H131927   5.078   2.871   2.381  0.7387 -2.3154 -0.2545
 3504TIP3    H231928   4.941   2.832   2.328 -0.9186  1.8276  0.5685
 3505TIP3   OH231929   3.335   0.047   5.510 -0.3208 -0.6671  0.3393
 3505TIP3    H131930   3.360   0.039   5.602 -1.5228  0.7075  0.8313
 3505TIP3    H231931   3.321   0.141   5.497 -3.6204 -1.1129 -0.2663
 3506TIP3   OH231932   1.600   1.444   0.034  0.1335 -0.3077 -0.0162
 3506TIP3    H131933   1.693   1.461   0.023  0.0656  1.3336  1.4733
 3506TIP3    H231934   1.558   1.529   0.017 -1.1693 -1.1646 -1.3003
 3507TIP3   OH231935   4.872   0.391   1.154  0.4498 -0.0118  1.2971
 3507TIP3    H131936   4.821   0.316   1.183 -0.6720  0.9536  1.9107
 3507TIP3    H231937   4.944   0.398   1.217  0.3420 -0.3431  1.4545
 3508TIP3   OH231938   3.018   6.407  11.500 -0.3546  0.2531  0.1165
 3508TIP3    H131939   2.992   6.499  11.508 -1.1000 -0.0592  1.6694
 3508TIP3    H231940   3.100   6.410  11.452 -1.2783  1.5796 -1.5199
 3509TIP3   OH231941   4.886   2.311   3.177 -0.2444 -0.3566  0.0796
 3509TIP3    H131942   4.875   2.243   3.111 -1.0733 -1.5947  1.4682
 3509TIP3    H231943   4.919   2.386   3.127 -2.2266 -0.7578 -2.0020
 3510TIP3   OH231944   0.357   4.906   0.311 -0.4677  0.7359 -0.4281
 3510TIP3    H131945   0.449   4.883   0.325 -0.8502  0.6341  2.5326
 3510TIP3    H231946   0.340   4.976   0.374 -2.5401  0.4765 -0.6449
 3511TIP3   OH231947   1.847   6.654  16.476  0.6863  0.3237 -0.2409
 3511TIP3    H131948   1.857   6.714  16.550  1.9884 -1.2480  0.9198
 3511TIP3    H231949   1.897   6.695  16.406  1.7265  0.5259  0.5944
 3512TIP3   OH231950   5.167   2.770  15.550 -0.4060  0.3489 -0.2168
 3512TIP3    H131951   5.211   2.776  15.635 -0.2953 -0.1635 -0.2329
 3512TIP3    H231952   5.156   2.676  15.535 -1.4908  0.4572 -0.2229
 3513TIP3   OH231953   1.185   4.765   2.821 -0.2333  0.2859  0.5246
 3513TIP3    H131954   1.272   4.747   2.857 -0.8118 -2.6364  0.6816
 3513TIP3    H231955   1.199   4.776   2.727  0.2728 -0.5137  0.5001
 3514TIP3   OH231956   6.308   0.147  15.011  0.0976 -0.3484 -0.5762
 3514TIP3    H131957   6.389   0.105  15.042 -0.7560 -0.5035  1.6339
 3514TIP3    H231958   6.315   0.144  14.915  1.9345 -1.8545 -0.4676
 3515TIP3   OH231959   1.845   4.775   1.348  0.5072 -0.3407 -0.3884
 3515TIP3    H131960   1.760   4.814   1.328  0.8472  0.1748 -0.8925
 3515TIP3    H231961   1.830   4.681   1.345  0.5033 -0.3535 -3.2215
 3516TIP3   OH231962   0.672   0.657  15.128  0.3712  0.4194 -0.6850
 3516TIP3    H131963   0.759   0.696  15.135 -0.5140  2.2707  1.5100
 3516TIP3    H231964   0.645   0.642  15.219 -1.6478  0.0486 -1.2799
 3517TIP3   OH231965   6.710   6.253  16.644  0.2756 -0.4741 -0.0719
 3517TIP3    H131966   6.697   6.166  16.604  2.2605 -1.4043  1.1405
 3517TIP3    H231967   6.667   6.246  16.729  0.8322 -0.4513  0.2162
 3518TIP3   OH231968   3.594   6.067  13.964  0.2275  0.9598  0.2740
 3518TIP3    H131969   3.631   6.142  14.011  0.4593  0.6252  0.6383
 3518TIP3    H231970   3.639   5.991  14.002  0.0825  0.6465 -0.1731
 3519TIP3   OH231971   4.392   6.599  13.302 -0.4898  0.0567 -0.6865
 3519TIP3    H131972   4.381   6.644  13.385  0.4821 -0.9880  0.0430
 3519TIP3    H231973   4.324   6.531  13.303  1.4736 -2.0438  0.7779
 3520TIP3   OH231974   0.167   3.151   0.724 -0.0014 -0.4317  0.1455
 3520TIP3    H131975   0.075   3.173   0.739  0.1008  0.1962 -0.1031
 3520TIP3    H231976   0.210   3.166   0.808  0.0593  0.3180 -0.0086
 3521TIP3   OH231977   1.281   1.860   4.677 -0.2203 -0.5152  0.4373
 3521TIP3    H131978   1.357   1.810   4.648  0.3338  0.2118  0.6123
 3521TIP3    H231979   1.308   1.899   4.760 -1.2694 -1.3672  1.2209
 3522TIP3   OH231980   4.945   4.136  15.866  0.1058  0.0724 -0.7215
 3522TIP3    H131981   5.032   4.125  15.828 -0.5549 -0.7516 -2.1007
 3522TIP3    H231982   4.907   4.210  15.819  0.2622  0.8041  0.2849
 3523TIP3   OH231983   3.882   4.120  15.733  0.8858  0.3817  0.8437
 3523TIP3    H131984   3.810   4.060  15.712 -0.5278  2.2883  0.0251
 3523TIP3    H231985   3.843   4.184  15.793  1.6980  1.8227 -0.1155
 3524TIP3   OH231986   0.882   3.272   1.951 -0.3594  0.2410  0.0918
 3524TIP3    H131987   0.953   3.215   1.920  0.4309  0.8742  0.6859
 3524TIP3    H231988   0.802   3.222   1.936  0.2890 -0.8818  0.2920
 3525TIP3   OH231989   3.130   0.133  14.123 -0.6089  0.6175 -0.3274
 3525TIP3    H131990   3.176   0.214  14.146  0.0075  0.0638  0.4513
 3525TIP3    H231991   3.038   0.153  14.136 -0.4765  1.2325 -0.2792
 3526TIP3   OH231992   5.644   1.142   4.588 -0.0450  0.2364  0.1541
 3526TIP3    H131993   5.724   1.105   4.626  0.2186  0.8114  0.1701
 3526TIP3    H231994   5.664   1.149   4.495  0.2022  1.0815  0.2681
 3527TIP3   OH231995   0.215   4.473  13.767 -0.0212  0.1502 -0.3228
 3527TIP3    H131996   0.282   4.460  13.834  0.0912  0.4456 -0.3774
 3527TIP3    H231997   0.209   4.568  13.756 -1.3395  0.1899  0.5754
 3528TIP3   OH231998   3.671   3.905   4.701  0.0575 -0.0559 -0.2111
 3528TIP3    H131999   3.657   3.836   4.635  0.4338  0.7651 -1.1894
 3528TIP3    H232000   3.646   3.986   4.656  0.9625  0.6026  0.4308
 3529TIP3   OH232001   4.185   0.192   3.066  0.1483  0.4534 -0.2597
 3529TIP3    H132002   4.223   0.205   3.153  0.9125  0.6784 -0.6293
 3529TIP3    H232003   4.224   0.260   3.012 -0.1227  0.1447 -0.8477
 3530TIP3   OH232004   2.626   3.022  11.323  0.0753  0.3784  0.0053
 3530TIP3    H132005   2.696   2.979  11.373 -0.6834  0.1532  0.9019
 3530TIP3    H232006   2.669   3.097  11.281  1.4275 -1.1906 -1.5877
 3531TIP3   OH232007   4.877   6.764  11.626  0.6856  0.7739 -0.5358
 3531TIP3    H132008   4.852   6.768  11.534 -2.1186  1.7285  0.1727
 3531TIP3    H232009   4.915   6.851  11.643  0.1766  0.9959 -0.5279
 3532TIP3   OH232010   3.097   6.118  13.687 -0.0725  0.5442  0.0755
 3532TIP3    H132011   3.141   6.201  13.703  0.1242  0.1681  1.6004
 3532TIP3    H232012   3.162   6.051  13.708 -0.6318  0.0045  0.1257
 3533TIP3   OH232013   1.350   1.937   1.931 -0.3494 -0.4533 -0.1781
 3533TIP3    H132014   1.292   1.999   1.886  1.5079  1.1925 -0.4522
 3533TIP3    H232015   1.366   1.868   1.866  1.5558  1.4182 -1.8689
 3534TIP3   OH232016   3.659   2.721  15.805  0.7133 -0.2431 -0.4448
 3534TIP3    H132017   3.621   2.680  15.728 -0.4004  1.3181 -0.7701
 3534TIP3    H232018   3.753   2.705  15.796  0.4791 -1.1603 -1.4619
 3535TIP3   OH232019   4.846   6.564   0.358  0.2341 -0.4751  0.1825
 3535TIP3    H132020   4.865   6.658   0.363  0.1628 -0.4611  0.1866
 3535TIP3    H232021   4.932   6.523   0.357  0.2654 -0.4569  1.0318
 3536TIP3   OH232022   3.623   4.828  15.699 -0.2781  0.1739  0.3338
 3536TIP3    H132023   3.661   4.871  15.775 -0.3007  0.8687 -0.0403
 3536TIP3    H232024   3.618   4.896  15.633 -0.4713 -0.3670 -0.2198
 3537TIP3   OH232025   1.143   5.450   4.464  0.4717 -0.3983  0.2874
 3537TIP3    H132026   1.150   5.545   4.451 -2.7158 -0.0346  0.5506
 3537TIP3    H232027   1.156   5.413   4.377  1.9390  0.2174  0.2083
 3538TIP3   OH232028   6.217   5.662   1.113  0.1243 -0.3446  0.0713
 3538TIP3    H132029   6.309   5.636   1.107  0.3691  0.6973 -0.9885
 3538TIP3    H232030   6.197   5.699   1.027 -0.6907  1.3185  0.9345
 3539TIP3   OH232031   3.865   4.103   0.998  0.1439  0.2549  0.1630
 3539TIP3    H132032   3.951   4.144   1.008  0.7353 -0.5347 -1.2769
 3539TIP3    H232033   3.858   4.044   1.072  0.2085  1.3672  1.0785
 3540TIP3   OH232034   5.010   5.184  11.975  0.1598 -0.1127 -0.6043
 3540TIP3    H132035   5.074   5.247  12.009 -0.7433  0.8462 -0.6507
 3540TIP3    H232036   5.027   5.181  11.881 -0.2763  0.6340 -0.7124
 3541TIP3   OH232037   0.212   4.024   2.669 -0.3792 -0.1777  0.4468
 3541TIP3    H132038   0.297   3.982   2.684 -0.9464 -1.1089  1.2075
 3541TIP3    H232039   0.207   4.091   2.737 -1.4750 -2.1113  2.4325
 3542TIP3   OH232040   1.339   1.665   1.490 -0.1698 -0.0709 -0.0190
 3542TIP3    H132041   1.304   1.749   1.458 -1.0921 -1.0566 -1.7340
 3542TIP3    H232042   1.282   1.599   1.451  2.2514 -1.6541 -1.1223
 3543TIP3   OH232043   1.744   3.084  11.745  0.6406 -0.0752  0.6177
 3543TIP3    H132044   1.792   3.050  11.669  0.5176 -0.6763  0.8037
 3543TIP3    H232045   1.780   3.172  11.758 -0.6689  0.8455 -1.3155
 3544TIP3   OH232046   0.546   2.927  14.427 -0.0479 -0.0124 -0.1103
 3544TIP3    H132047   0.641   2.942  14.423 -0.0657 -0.1337 -1.5779
 3544TIP3    H232048   0.529   2.902  14.518  0.9191  2.5998  0.8851
 3545TIP3   OH232049   6.084   5.398   3.631  0.1340  0.6008  0.1600
 3545TIP3    H132050   6.179   5.414   3.633  0.5988 -1.7507  1.2841
 3545TIP3    H232051   6.071   5.328   3.696 -2.0076 -0.9227 -1.7621
 3546TIP3   OH232052   0.769   6.221  15.174 -0.6553 -0.3105 -0.2527
 3546TIP3    H132053   0.727   6.272  15.242 -1.1876 -1.4248  0.2686
 3546TIP3    H232054   0.800   6.142  15.218 -0.2005 -0.6332 -1.1223
 3547TIP3   OH232055   2.380   1.454  13.976 -0.3089  0.2512 -0.2295
 3547TIP3    H132056   2.323   1.419  13.907  0.8119  0.3982 -1.2819
 3547TIP3    H232057   2.361   1.548  13.976  0.4576  0.4247 -1.1323
 3548TIP3   OH232058   2.128   3.368  17.207  0.1084  0.2860 -0.0899
 3548TIP3    H132059   2.192   3.298  17.196  0.1659  0.1259  1.1834
 3548TIP3    H232060   2.048   3.333  17.165  0.1349 -0.5493  0.5304
 3549TIP3   OH232061   0.326   5.014  10.901  0.2236  0.0284  0.5737
 3549TIP3    H132062   0.398   5.076  10.915  1.5075 -1.1114 -0.6122
 3549TIP3    H232063   0.350   4.937  10.952 -0.8438  0.1163  1.2223
 3550TIP3   OH232064   3.763   6.685  16.269  0.6109 -0.4150  0.4329
 3550TIP3    H132065   3.797   6.715  16.354  0.0307  0.8099  0.2524
 3550TIP3    H232066   3.842   6.671  16.216  0.9247  0.5538  0.6192
 3551TIP3   OH232067   0.421   4.345   4.963 -0.1431  0.5790  0.3385
 3551TIP3    H132068   0.353   4.290   4.924  1.6971 -1.6331  0.0623
 3551TIP3    H232069   0.396   4.353   5.055 -1.4960  0.9895 -0.0491
 3552TIP3   OH232070   2.866   1.485   6.836  0.3437  0.5693  0.5008
 3552TIP3    H132071   2.927   1.446   6.899  0.1140 -2.1467 -0.8330
 3552TIP3    H232072   2.903   1.572   6.819  3.4578 -0.6413  0.3714
 3553TIP3   OH232073   4.210   5.721  13.941 -0.0912  0.2463 -0.5963
 3553TIP3    H132074   4.148   5.671  13.995  2.0317 -0.6509  1.1644
 3553TIP3    H232075   4.160   5.744  13.863 -2.0349 -2.1914 -0.2108
 3554TIP3   OH232076   5.173   6.278  15.268 -0.4631  0.2703 -0.4510
 3554TIP3    H132077   5.190   6.314  15.181 -0.8686  0.2369 -0.5454
 3554TIP3    H232078   5.165   6.355  15.325 -0.0592  0.2883 -0.4142
 3555TIP3   OH232079   3.010   1.253   1.465 -0.7958 -0.4394 -0.8379
 3555TIP3    H132080   3.099   1.285   1.475 -1.2398  0.3670  0.9068
 3555TIP3    H232081   3.016   1.187   1.396  1.4412 -1.5399  0.2968
 3556TIP3   OH232082   2.958   2.307   5.187  0.2697  0.3909  0.2867
 3556TIP3    H132083   3.028   2.347   5.239 -1.0181 -0.9210  3.2071
 3556TIP3    H232084   2.998   2.228   5.151  0.9128  0.8328 -0.0020
 3557TIP3   OH232085   2.909   2.226   3.988 -0.2839 -0.1114 -0.1008
 3557TIP3    H132086   2.846   2.287   4.028 -1.0816  0.2994 -1.8773
 3557TIP3    H232087   2.856   2.151   3.961  0.3877 -0.7644  0.3459
 3558TIP3   OH232088   5.511   6.480   1.787  0.1322 -0.1945 -0.1312
 3558TIP3    H132089   5.535   6.466   1.878 -0.1186 -1.8151 -0.2785
 3558TIP3    H232090   5.582   6.533   1.751 -0.5474  1.8326  1.3543
 3559TIP3   OH232091   2.003   3.406   2.566  0.5298  0.3010  0.0796
 3559TIP3    H132092   2.094   3.438   2.563  0.7241 -0.1257  1.1288
 3559TIP3    H232093   2.011   3.314   2.589 -0.1224 -0.0670 -1.1153
 3560TIP3   OH232094   2.693   5.278  16.202 -0.1983  0.2367 -0.4749
 3560TIP3    H132095   2.622   5.336  16.230 -1.1729 -0.8697 -0.5616
 3560TIP3    H232096   2.697   5.288  16.107 -0.4052  0.1206 -0.4948
 3561TIP3   OH232097   1.217   2.612   1.868  0.3430 -0.3454  0.4989
 3561TIP3    H132098   1.171   2.688   1.834  1.1732 -0.1241 -0.1590
 3561TIP3    H232099   1.234   2.632   1.960 -0.6907 -0.3560  0.7046
 3562TIP3   OH232100   2.389   4.401  16.021  0.6269 -0.6680  0.2179
 3562TIP3    H132101   2.485   4.402  16.023  0.6495  1.3314  2.2852
 3562TIP3    H232102   2.366   4.439  15.936  1.6482 -0.8912 -0.1703
 3563TIP3   OH232103   5.808   3.481  15.438 -0.3020 -0.3415  0.1409
 3563TIP3    H132104   5.890   3.433  15.442 -0.3351 -0.3300  1.0383
 3563TIP3    H232105   5.827   3.557  15.382  0.9912  0.9323  2.1863
 3564TIP3   OH232106   2.257   6.363   2.742  0.1024  0.1217 -0.1496
 3564TIP3    H132107   2.180   6.410   2.710  0.3265  0.4978 -0.1463
 3564TIP3    H232108   2.331   6.410   2.704  0.5639  2.5110  3.2072
 3565TIP3   OH232109   6.249   3.433  13.874  0.1878  0.1424  0.0862
 3565TIP3    H132110   6.248   3.419  13.780 -0.1600 -1.0026  0.2404
 3565TIP3    H232111   6.341   3.425  13.899  0.0765 -1.5873  0.0895
 3566TIP3   OH232112   0.155   5.648  13.906  0.0677  0.9759 -0.2139
 3566TIP3    H132113   0.103   5.605  13.975  0.1863  1.9566  0.5126
 3566TIP3    H232114   0.196   5.576  13.858  0.1421  0.2766  0.8702
 3567TIP3   OH232115   6.253   5.793   2.503 -0.0284 -0.6695 -0.1592
 3567TIP3    H132116   6.240   5.711   2.550  0.3717 -0.6405  0.0108
 3567TIP3    H232117   6.319   5.772   2.437  1.4748 -0.0581  1.0767
 3568TIP3   OH232118   1.319   3.897  13.033  0.5606 -0.6005 -0.1971
 3568TIP3    H132119   1.316   3.806  13.004 -0.2726 -0.6655  0.0748
 3568TIP3    H232120   1.350   3.946  12.957 -0.7380 -0.8785 -0.9328
 3569TIP3   OH232121   4.496   0.935  11.634 -0.5423  0.6367  0.9352
 3569TIP3    H132122   4.452   0.984  11.565 -2.1542 -1.0739  0.6598
 3569TIP3    H232123   4.486   0.843  11.608  0.5408  0.0400  2.4664
 3570TIP3   OH232124   3.262   4.515   1.239 -0.1483  0.1786 -0.1359
 3570TIP3    H132125   3.233   4.446   1.298  1.4462 -0.4448 -0.0338
 3570TIP3    H232126   3.351   4.491   1.215 -0.3149  1.0642 -1.8502
 3571TIP3   OH232127   4.228   4.199   2.502 -0.0897 -0.2163  0.0887
 3571TIP3    H132128   4.136   4.175   2.514 -0.0488 -0.4571 -0.0684
 3571TIP3    H232129   4.262   4.132   2.442  0.4875 -0.8285  1.0665
 3572TIP3   OH232130   1.783   3.698   4.229  1.0364  0.6867  0.0058
 3572TIP3    H132131   1.759   3.630   4.166  1.5530  0.5919 -0.0943
 3572TIP3    H232132   1.812   3.650   4.307 -2.1332  0.7605  1.3777
 3573TIP3   OH232133   5.206   6.288  14.412 -0.2984 -0.2066 -0.1005
 3573TIP3    H132134   5.274   6.250  14.467 -1.3555 -1.1293  0.6229
 3573TIP3    H232135   5.245   6.368  14.375  0.4127  0.5245  2.0935
 3574TIP3   OH232136   2.381   0.452  14.726 -0.1946 -0.3798  0.0911
 3574TIP3    H132137   2.383   0.523  14.661  0.0701 -1.2620 -0.8864
 3574TIP3    H232138   2.325   0.385  14.687 -0.7803 -0.5495  1.1858
 3575TIP3   OH232139   1.349   0.346  13.050  0.6804 -0.0781  0.1714
 3575TIP3    H132140   1.381   0.256  13.051 -1.0369 -0.7344  0.0353
 3575TIP3    H232141   1.309   0.358  13.136 -0.4681 -0.0002 -0.3552
 3576TIP3   OH232142   3.526   5.193  17.254  0.1064  0.2365  0.2942
 3576TIP3    H132143   3.450   5.251  17.258 -1.2698 -1.3830 -0.8877
 3576TIP3    H232144   3.564   5.196  17.342 -2.8098 -0.7709  1.7029
 3577TIP3   OH232145   5.191   5.909  17.176 -0.0867  0.2662 -0.3014
 3577TIP3    H132146   5.213   5.867  17.093  0.3173 -2.2944  1.0179
 3577TIP3    H232147   5.118   5.857  17.210  1.0423  0.0131  1.8501
 3578TIP3   OH232148   6.190   4.366  14.739 -0.2743 -0.3955  0.7386
 3578TIP3    H132149   6.098   4.384  14.717  0.6531  1.0649 -2.4336
 3578TIP3    H232150   6.218   4.441  14.791  0.0122  1.1115 -1.4278
 3579TIP3   OH232151   6.435   2.710  15.641 -0.8170 -0.7480 -0.0198
 3579TIP3    H132152   6.448   2.636  15.701 -0.3923 -0.2842  0.4634
 3579TIP3    H232153   6.478   2.784  15.683  0.6290 -0.6900 -1.4795
 3580TIP3   OH232154   2.378   6.169   2.553 -0.7302  0.0138  0.1156
 3580TIP3    H132155   2.471   6.168   2.576 -0.3485  0.5416 -1.2875
 3580TIP3    H232156   2.336   6.216   2.625  0.2080  0.4669  0.3894
 3581TIP3   OH232157   1.072   4.091   3.628  0.6002 -0.0565  0.3915
 3581TIP3    H132158   1.032   4.158   3.573  1.0970 -0.5057 -0.5462
 3581TIP3    H232159   1.132   4.139   3.686 -0.6184  0.5205  1.2108
 3582TIP3   OH232160   0.651   5.752   3.534 -0.2676 -0.2130  0.0178
 3582TIP3    H132161   0.672   5.779   3.624 -2.2869 -0.8810  0.7510
 3582TIP3    H232162   0.736   5.745   3.491  0.6972  1.1900  1.5499
 3583TIP3   OH232163   1.560   1.606   2.374  0.6227  0.0595  0.1898
 3583TIP3    H132164   1.606   1.625   2.293 -0.2513  1.1470 -0.0815
 3583TIP3    H232165   1.468   1.605   2.350  0.4499 -1.8473  0.7697
 3584TIP3   OH232166   3.981   6.074  16.928  0.1100 -0.1407  0.1203
 3584TIP3    H132167   3.976   6.070  17.024 -1.2815  1.1201  0.1453
 3584TIP3    H232168   3.955   6.164  16.907  1.8744  0.0787 -1.3819
 3585TIP3   OH232169   1.936   1.115   0.866  0.0575  0.0307 -0.1506
 3585TIP3    H132170   1.910   1.177   0.934 -0.6943 -1.4270  0.9598
 3585TIP3    H232171   1.861   1.056   0.857  0.7179 -0.6922 -1.1982
 3586TIP3   OH232172   3.592   3.839   2.912  0.1695  0.1477 -0.1896
 3586TIP3    H132173   3.661   3.887   2.866  1.6974  0.7982  2.5468
 3586TIP3    H232174   3.568   3.896   2.985 -1.5101 -1.1726  0.3496
 3587TIP3   OH232175   4.161   5.482   3.058  0.7909  0.0661 -0.1601
 3587TIP3    H132176   4.232   5.540   3.031  1.6509 -0.4018  1.0109
 3587TIP3    H232177   4.195   5.437   3.135 -1.4215  1.1831  1.5847
 3588TIP3   OH232178   1.500   1.763   6.143 -0.1724 -0.0601 -0.3634
 3588TIP3    H132179   1.570   1.697   6.143 -1.6693 -1.7773  1.4314
 3588TIP3    H232180   1.530   1.830   6.204  1.0570  0.6530 -1.6778
 3589TIP3   OH232181   3.266   1.305   1.585 -0.1939  0.4252  0.1587
 3589TIP3    H132182   3.338   1.302   1.648 -0.0657  0.1133 -0.0047
 3589TIP3    H232183   3.288   1.378   1.528 -0.7319  1.2579  0.9796
 3590TIP3   OH232184   2.569   6.192   2.855  0.1759 -0.4764 -0.4384
 3590TIP3    H132185   2.663   6.178   2.845  0.4498  0.2547  0.8437
 3590TIP3    H232186   2.554   6.279   2.819 -0.0122 -0.6078 -0.6750
 3591TIP3   OH232187   5.705   0.849  16.765  0.1052 -0.1716  0.3197
 3591TIP3    H132188   5.681   0.892  16.847 -0.5073  1.4637 -0.6575
 3591TIP3    H232189   5.796   0.876  16.749  0.1748 -0.3684  0.3768
 3592TIP3   OH232190   5.923   5.611  16.239 -0.2273 -0.4660  0.4454
 3592TIP3    H132191   5.958   5.524  16.254 -1.6882 -1.0687  0.5613
 3592TIP3    H232192   5.828   5.599  16.238 -0.5771  1.3792  2.2723
 3593TIP3   OH232193   1.888   5.456   4.168  0.1159 -0.1576 -0.3174
 3593TIP3    H132194   1.796   5.431   4.180 -0.2011  0.3280 -1.5344
 3593TIP3    H232195   1.895   5.542   4.210 -0.7026  1.0339 -2.4405
 3594TIP3   OH232196   0.454   1.732   4.324 -0.0253  0.4877 -0.9263
 3594TIP3    H132197   0.419   1.820   4.343  0.8671  1.2838 -2.7372
 3594TIP3    H232198   0.376   1.677   4.314 -0.5904  0.7448  1.3769
 3595TIP3   OH232199   2.414   3.100   3.232  0.0842  0.2356 -0.0817
 3595TIP3    H132200   2.506   3.114   3.257 -0.8512  3.2168  2.3249
 3595TIP3    H232201   2.375   3.187   3.236 -3.6171 -1.3128  2.2686
 3596TIP3   OH232202   5.004   0.961   3.994 -0.4895  0.3584  0.0192
 3596TIP3    H132203   5.039   1.014   4.066 -1.5942  1.2566 -0.0725
 3596TIP3    H232204   4.966   0.884   4.037  1.3790 -0.5610  0.1307
 3597TIP3   OH232205   0.096   0.063   3.946  0.0485  0.6712 -0.8962
 3597TIP3    H132206   0.068   0.117   4.019 -0.8990  0.4911 -1.1159
 3597TIP3    H232207   0.105  -0.025   3.983 -2.1591  0.2075 -1.3370
 3598TIP3   OH232208   6.072   1.324  13.869  0.2865 -0.3874  0.7421
 3598TIP3    H132209   6.166   1.311  13.856  0.3796 -1.2881  2.1846
 3598TIP3    H232210   6.063   1.357  13.958 -0.7848 -0.6484  0.7535
 3599TIP3   OH232211   1.203   4.057  10.978  0.0271  0.0137 -0.3264
 3599TIP3    H132212   1.158   3.979  10.945  1.0304  0.2858 -2.4822
 3599TIP3    H232213   1.294   4.045  10.951  0.7084  0.8367  1.4255
 3600TIP3   OH232214   2.862   3.489  14.819  0.5238 -0.0041 -0.0875
 3600TIP3    H132215   2.804   3.413  14.810 -0.8824  0.9065  0.7483
 3600TIP3    H232216   2.823   3.555  14.762  0.3594  0.8102  0.9181
 3601TIP3   OH232217   5.100   5.891   4.372  0.2865  0.2368 -0.1952
 3601TIP3    H132218   5.159   5.944   4.425 -0.9830  2.7859 -1.1625
 3601TIP3    H232219   5.021   5.884   4.425  0.8053 -1.7340  0.3911
 3602TIP3   OH232220   0.641   0.274  13.669 -0.6510  0.3659 -0.3442
 3602TIP3    H132221   0.663   0.363  13.696  0.8100  0.0032 -0.2679
 3602TIP3    H232222   0.614   0.230  13.750  0.1896  0.3014 -0.0909
 3603TIP3   OH232223   1.948   3.800   3.884 -0.3378  0.2953  0.0163
 3603TIP3    H132224   2.043   3.786   3.874 -0.4736  0.5398 -2.1160
 3603TIP3    H232225   1.940   3.869   3.949  0.7862 -1.7787  2.5554
 3604TIP3   OH232226   5.509   4.682  14.506  0.2880  0.0459  0.0707
 3604TIP3    H132227   5.448   4.637  14.447  0.8308  1.1741 -1.3912
 3604TIP3    H232228   5.585   4.624  14.509  0.0890 -0.2231 -0.0003
 3605TIP3   OH232229   3.169   5.368  14.275  0.3797 -0.8881  0.2685
 3605TIP3    H132230   3.170   5.383  14.181  0.4886 -1.5497  0.1586
 3605TIP3    H232231   3.109   5.294  14.287  1.9759 -2.1930  0.4990
 3606TIP3   OH232232   2.484   4.060   4.668  0.0027  0.8342 -0.3342
 3606TIP3    H132233   2.456   4.078   4.758 -2.1101  0.7718 -0.9215
 3606TIP3    H232234   2.460   4.139   4.619 -0.0863  0.3638 -1.0758
 3607TIP3   OH232235   1.908   2.118   4.263 -0.2505  0.3543  0.1343
 3607TIP3    H132236   1.842   2.055   4.234 -0.5358  0.6935  0.0309
 3607TIP3    H232237   1.990   2.088   4.224 -0.1216 -0.7152  1.1868
 3608TIP3   OH232238   5.174   0.891   4.959  0.3767  0.0644 -0.0560
 3608TIP3    H132239   5.111   0.921   5.025  1.3854 -0.7938  1.3620
 3608TIP3    H232240   5.120   0.847   4.893 -0.7637  1.8406 -0.3663
 3609TIP3   OH232241   3.269   5.582  15.882 -0.2061 -0.7185  0.0935
 3609TIP3    H132242   3.185   5.569  15.924 -0.6957  0.9653 -0.2801
 3609TIP3    H232243   3.249   5.632  15.803  1.3179  1.6688  1.1085
 3610TIP3   OH232244   3.241   6.571  15.326 -0.6308  0.1556  0.1927
 3610TIP3    H132245   3.239   6.533  15.414  0.9893  1.4899  0.8425
 3610TIP3    H232246   3.211   6.661  15.338 -2.9330 -0.3763 -1.0844
 3611TIP3   OH232247   4.573   4.235   1.496 -0.1360 -0.9577 -0.4365
 3611TIP3    H132248   4.626   4.228   1.576  1.0683 -0.2035 -1.1341
 3611TIP3    H232249   4.483   4.232   1.527  0.1598  3.0090  1.4053
 3612TIP3   OH232250   6.033   6.079   1.517  0.0794  0.1703  0.2572
 3612TIP3    H132251   6.083   6.152   1.481 -1.0451  0.6197 -0.4083
 3612TIP3    H232252   6.054   6.005   1.460 -0.9288  0.6448 -0.7596
 3613TIP3   OH232253   2.116   2.127   5.645  0.3411 -0.2546  0.3739
 3613TIP3    H132254   2.061   2.099   5.572 -1.7206  1.5775  1.1134
 3613TIP3    H232255   2.197   2.156   5.605 -0.2760 -0.4361 -1.0608
 3614TIP3   OH232256   0.929   1.986  14.551 -0.2195 -0.5344  0.0542
 3614TIP3    H132257   0.945   1.987  14.646  0.1970 -1.7223  0.0138
 3614TIP3    H232258   1.008   1.947  14.514 -1.3668 -2.4413 -0.5335
 3615TIP3   OH232259   1.539   6.761  13.373  0.3138  0.5442 -0.0121
 3615TIP3    H132260   1.445   6.778  13.375  0.3714  1.0748 -1.1322
 3615TIP3    H232261   1.549   6.676  13.417 -0.8730 -0.2297 -1.1579
 3616TIP3   OH232262   0.775   4.990  14.122  0.2021 -0.1187 -0.2608
 3616TIP3    H132263   0.850   5.028  14.075 -0.0368 -0.1983 -0.7088
 3616TIP3    H232264   0.756   4.910  14.075  1.7875 -1.7542  1.6546
 3617TIP3   OH232265   1.383   3.478  12.664 -0.7842  0.1736 -0.1188
 3617TIP3    H132266   1.451   3.479  12.732 -0.8057 -0.5343 -0.0763
 3617TIP3    H232267   1.353   3.387  12.662 -1.5323  0.4176 -0.3384
 3618TIP3   OH232268   5.603   0.215   3.091  0.1309  0.2704  0.8294
 3618TIP3    H132269   5.594   0.120   3.090  3.0080 -0.0891 -0.5912
 3618TIP3    H232270   5.580   0.242   3.002  1.1524  0.6592  0.6754
 3619TIP3   OH232271   3.773   4.744  16.500  0.0062  0.5511  0.0176
 3619TIP3    H132272   3.752   4.825  16.453  1.1448 -0.6390 -2.8035
 3619TIP3    H232273   3.827   4.695  16.438 -0.2136 -2.1481  1.8298
 3620TIP3   OH232274   1.076   3.431   0.593 -0.0024  0.6061  0.0423
 3620TIP3    H132275   1.154   3.454   0.542  0.1082 -0.9484 -0.5277
 3620TIP3    H232276   1.008   3.490   0.560  0.3235  0.3239 -1.2018
 3621TIP3   OH232277   4.352   0.236  10.381  0.2727 -0.1163 -0.2104
 3621TIP3    H132278   4.421   0.283  10.429 -1.2491  1.9376  0.1097
 3621TIP3    H232279   4.350   0.278  10.295 -0.3850 -0.3609 -0.3159
 3622TIP3   OH232280   4.439   5.003  13.939  0.2011  0.1577  0.5722
 3622TIP3    H132281   4.391   4.930  13.901  1.1903  1.1166 -2.8924
 3622TIP3    H232282   4.509   5.021  13.877  0.9121  3.0855  2.0269
 3623TIP3   OH232283   1.537   2.082  13.338 -0.5971 -0.0523 -0.7463
 3623TIP3    H132284   1.485   2.079  13.257 -2.0258 -2.1318  0.1679
 3623TIP3    H232285   1.618   2.038  13.315 -1.2815 -1.2817 -0.9060
 3624TIP3   OH232286   1.062   3.314   1.182  0.2299 -0.1339 -0.1903
 3624TIP3    H132287   1.150   3.276   1.177  0.9246  1.2851  0.6976
 3624TIP3    H232288   1.053   3.364   1.100  0.1480 -0.4772 -0.3925
 3625TIP3   OH232289   4.265   5.108   5.566  0.6456  0.0477  0.2587
 3625TIP3    H132290   4.193   5.163   5.597  0.9625  0.7368 -0.1857
 3625TIP3    H232291   4.302   5.070   5.645 -0.1205 -0.2116  0.5034
 3626TIP3   OH232292   2.221   3.853   2.311 -0.8702  0.4054 -0.5704
 3626TIP3    H132293   2.317   3.855   2.308 -0.8434  0.1673  0.0509
 3626TIP3    H232294   2.194   3.917   2.246 -0.2815  1.1393 -0.1026
 3627TIP3   OH232295   0.457   1.164  13.610  0.1270 -0.5901  0.3246
 3627TIP3    H132296   0.468   1.229  13.540 -1.6565 -0.3305  0.2429
 3627TIP3    H232297   0.461   1.214  13.691 -2.0231 -0.1853  0.2416
 3628TIP3   OH232298   6.575   5.543  13.487 -0.1859  0.2163 -0.4153
 3628TIP3    H132299   6.613   5.616  13.535 -1.1906 -1.0212  2.5420
 3628TIP3    H232300   6.629   5.468  13.511 -2.0166 -0.8412  0.6739
 3629TIP3   OH232301   5.214   5.707  12.595 -0.5312  0.0251  0.0121
 3629TIP3    H132302   5.237   5.631  12.541  0.1672  2.2056 -3.0430
 3629TIP3    H232303   5.297   5.755  12.604 -1.0281  0.6326  1.5410
 3630TIP3   OH232304   1.821   3.894  16.357 -0.1731  0.1554 -0.5770
 3630TIP3    H132305   1.781   3.822  16.406  1.0155 -0.2582 -0.1814
 3630TIP3    H232306   1.770   3.971  16.382 -1.1360 -0.4625 -0.6109
 3631TIP3   OH232307   2.474   4.903   1.215 -0.3795 -0.3783  0.0371
 3631TIP3    H132308   2.396   4.903   1.270 -0.1193 -0.2797  0.4082
 3631TIP3    H232309   2.494   4.996   1.201  0.4870 -0.3835  1.1156
 3632TIP3   OH232310   3.157   1.674   5.932 -0.0521 -0.1915 -0.1247
 3632TIP3    H132311   3.154   1.765   5.904  1.9528  0.0237  0.1929
 3632TIP3    H232312   3.124   1.625   5.857 -1.2652  0.7877 -0.2516
 3633TIP3   OH232313   1.058   2.635   2.394 -0.4611 -0.0835 -0.4571
 3633TIP3    H132314   1.067   2.688   2.474 -0.8311  0.7808 -0.9777
 3633TIP3    H232315   1.128   2.570   2.401 -2.4171 -2.1659  2.1617
 3634TIP3   OH232316   4.946   2.414   2.177  0.6124  0.1453 -0.0445
 3634TIP3    H132317   5.024   2.457   2.214 -0.1343  0.0078  1.7937
 3634TIP3    H232318   4.938   2.333   2.227  0.9587 -1.3214 -2.2475
 3635TIP3   OH232319   4.800   3.737   0.106 -0.2139 -0.2291  0.0745
 3635TIP3    H132320   4.757   3.718   0.189  0.5266  0.1527  0.5518
 3635TIP3    H232321   4.786   3.658   0.054 -2.0813  0.1446 -0.0524
 3636TIP3   OH232322   2.011   4.335   1.089  0.6707 -0.1973  0.6802
 3636TIP3    H132323   2.072   4.272   1.051  0.6621  0.2458 -0.0801
 3636TIP3    H232324   1.993   4.300   1.177 -0.0674 -1.7635 -0.0453
 3637TIP3   OH232325   6.496   6.390  14.757 -0.0882  0.2693  0.2198
 3637TIP3    H132326   6.573   6.334  14.767 -1.8078 -2.5129 -1.0329
 3637TIP3    H232327   6.429   6.333  14.719 -2.6925  2.6517  0.8821
 3638TIP3   OH232328   5.762   5.488  14.312 -0.1748 -0.3452 -0.4097
 3638TIP3    H132329   5.756   5.395  14.333  0.0440  0.1776  2.3276
 3638TIP3    H232330   5.788   5.530  14.394  2.4536  1.8589 -2.2033
 3639TIP3   OH232331   4.575   6.659  16.279 -0.4587  0.6816 -0.6689
 3639TIP3    H132332   4.613   6.743  16.306 -0.3617  0.6089 -0.5772
 3639TIP3    H232333   4.482   6.678  16.265 -0.6006  0.6224  0.1521
 3640TIP3   OH232334   0.457   4.174   3.379 -0.0184 -0.2342  0.2330
 3640TIP3    H132335   0.514   4.125   3.321  0.0718 -1.1785  1.0828
 3640TIP3    H232336   0.498   4.260   3.386 -0.0973 -0.0608 -1.1651
 3641TIP3   OH232337   0.403   1.521   2.234  0.5187  0.0359 -0.4677
 3641TIP3    H132338   0.493   1.524   2.200  0.7332  2.0745  0.1573
 3641TIP3    H232339   0.374   1.431   2.218  2.1386 -0.2501 -2.0370
 3642TIP3   OH232340   4.450   0.815   0.638 -0.4723 -0.4296  0.3459
 3642TIP3    H132341   4.427   0.768   0.557  1.1084  1.9589 -1.6258
 3642TIP3    H232342   4.541   0.791   0.654 -0.2155  0.5099  0.3477
 3643TIP3   OH232343   3.767   4.325  13.901 -0.4983 -0.3614  0.0391
 3643TIP3    H132344   3.825   4.395  13.872 -0.5157  0.0659  1.0064
 3643TIP3    H232345   3.757   4.269  13.824  1.1095 -0.3856 -0.2015
 3644TIP3   OH232346   6.764   3.674  15.734  0.2288 -0.1553 -0.8133
 3644TIP3    H132347   6.839   3.685  15.793  0.5681  0.6512 -1.3779
 3644TIP3    H232348   6.728   3.588  15.757  0.6675 -0.0811  0.2037
 3645TIP3   OH232349   2.082   2.633  15.574 -0.5210  0.6744 -0.9523
 3645TIP3    H132350   2.123   2.680  15.647 -2.0222  1.3477 -0.5079
 3645TIP3    H232351   2.042   2.556  15.615  0.6621 -0.2594 -1.4626
 3646TIP3   OH232352   3.953   6.732  16.855  0.0032 -0.2853  0.2900
 3646TIP3    H132353   4.013   6.794  16.814  0.2063 -0.9987 -0.5251
 3646TIP3    H232354   3.869   6.751  16.813 -0.1767  0.1719  0.8456
 3647TIP3   OH232355   3.993   3.515   3.448 -0.4658 -0.0486  0.0799
 3647TIP3    H132356   3.975   3.422   3.463 -0.8289 -0.0484 -0.3129
 3647TIP3    H232357   4.087   3.519   3.430 -0.4630 -0.3547  0.0202
 3648TIP3   OH232358   4.099   2.085  10.559 -0.6773  0.7615  0.1111
 3648TIP3    H132359   4.061   2.057  10.475 -1.9843 -1.6184  1.3766
 3648TIP3    H232360   4.024   2.109  10.612 -0.0056  0.6680  1.1202
 3649TIP3   OH232361   4.870   1.451   4.483 -0.6311  0.6033 -0.6945
 3649TIP3    H132362   4.833   1.382   4.428  1.3143  0.0085 -1.3409
 3649TIP3    H232363   4.814   1.453   4.560 -0.9787 -1.4272 -0.8476
 3650TIP3   OH232364   3.672   0.725   2.502  0.0406 -0.2372  0.7004
 3650TIP3    H132365   3.581   0.706   2.481  0.2697  0.1165 -0.7305
 3650TIP3    H232366   3.716   0.640   2.494  0.2375 -0.0137 -1.0413
 3651TIP3   OH232367   0.100   4.092  11.841 -0.0565 -0.5905  0.4380
 3651TIP3    H132368   0.164   4.159  11.815 -0.4445  0.0771  1.1854
 3651TIP3    H232369   0.016   4.138  11.843 -0.6271 -1.4951 -0.7122
 3652TIP3   OH232370   6.169   2.184   6.195 -0.5164 -0.0477 -0.1938
 3652TIP3    H132371   6.171   2.104   6.247  1.7530  1.3175  2.0716
 3652TIP3    H232372   6.144   2.252   6.258  0.4004  1.4089 -1.3452
 3653TIP3   OH232373   0.299   0.810  12.095  0.1850 -0.4063  0.2744
 3653TIP3    H132374   0.385   0.850  12.109 -0.8353  2.9695 -1.8379
 3653TIP3    H232375   0.296   0.793  12.001 -0.9080 -2.0099  0.5656
 3654TIP3   OH232376   6.571   2.811   5.284  0.9889 -0.2269  0.1939
 3654TIP3    H132377   6.542   2.899   5.304 -0.7166 -0.8928  0.8212
 3654TIP3    H232378   6.608   2.817   5.195  0.3104  0.9727 -0.0225
 3655TIP3   OH232379   1.251   3.185  10.995 -0.0211  0.2529  0.3418
 3655TIP3    H132380   1.337   3.162  10.959  0.5779  0.0243  1.8419
 3655TIP3    H232381   1.197   3.108  10.980 -0.1300  0.5682 -1.0339
 3656TIP3   OH232382   5.001   3.763  17.053  0.1798 -0.0121 -0.0678
 3656TIP3    H132383   5.076   3.812  17.020  0.0225 -0.3713 -0.9706
 3656TIP3    H232384   5.039   3.704  17.119  0.2039  2.1522  1.9832
 3657TIP3   OH232385   2.595   5.576  14.632  0.1588 -0.1857  0.4678
 3657TIP3    H132386   2.592   5.625  14.550  0.2451  2.6917  2.0402
 3657TIP3    H232387   2.666   5.513  14.620  0.6531  0.6712 -1.4028
 3658TIP3   OH232388   2.277   4.268   0.815  0.2555  0.1308 -0.1417
 3658TIP3    H132389   2.222   4.223   0.879 -1.3346  4.0214  1.5074
 3658TIP3    H232390   2.270   4.214   0.736  0.4595 -3.6590  2.1427
 3659TIP3   OH232391   6.543   3.453  12.948 -0.3692  0.7433 -0.0793
 3659TIP3    H132392   6.574   3.457  13.038  0.2119 -0.7868 -0.1852
 3659TIP3    H232393   6.448   3.460  12.955 -0.4114 -0.5477  0.7635
 3660TIP3   OH232394   5.995   6.100   4.442  0.4507 -0.6111 -0.3019
 3660TIP3    H132395   6.003   6.169   4.508  0.1929 -0.4688 -0.4191
 3660TIP3    H232396   6.014   6.144   4.359 -0.2015 -0.5695 -0.4325
 3661TIP3   OH232397   3.818   4.712   5.546  0.0925  0.2025  0.0892
 3661TIP3    H132398   3.857   4.724   5.459 -1.5502  0.7301 -0.6132
 3661TIP3    H232399   3.847   4.625   5.572  1.9713  0.6749 -0.2316
 3662TIP3   OH232400   1.197   6.485   4.890 -0.6581  0.0245 -0.3763
 3662TIP3    H132401   1.175   6.545   4.962 -1.1425  0.0620 -0.5550
 3662TIP3    H232402   1.166   6.529   4.811 -2.3485 -1.0870 -0.3811
 3663TIP3   OH232403   0.328   6.523  15.785  0.5950  0.2944 -0.3213
 3663TIP3    H132404   0.414   6.564  15.792  1.1797 -0.7536 -0.9913
 3663TIP3    H232405   0.346   6.429  15.792 -0.4461  0.0372 -0.8250
 3664TIP3   OH232406   2.370   2.774  13.557  0.1266  0.2916  0.5191
 3664TIP3    H132407   2.344   2.741  13.471  2.0455 -1.2155  0.4306
 3664TIP3    H232408   2.460   2.804  13.545  0.1256  0.8760  1.8066
 3665TIP3   OH232409   6.681   1.159   5.688 -0.2625  0.8547 -0.7143
 3665TIP3    H132410   6.602   1.150   5.636  0.1873  0.3690 -1.3344
 3665TIP3    H232411   6.728   1.233   5.649 -0.0100  0.6021 -0.8982
 3666TIP3   OH232412   4.169   6.478  14.951  0.5249  0.3149 -0.5963
 3666TIP3    H132413   4.180   6.569  14.923 -2.9384  0.8517 -0.6977
 3666TIP3    H232414   4.128   6.435  14.876 -1.7555 -0.1868  0.8564
 3667TIP3   OH232415   3.123   4.209  14.423 -0.4208 -0.4561 -0.0681
 3667TIP3    H132416   3.183   4.196  14.496 -0.2796 -2.3017 -0.4773
 3667TIP3    H232417   3.090   4.299  14.435 -1.3411 -1.0766  2.9593
 3668TIP3   OH232418   1.280   5.672   2.518  0.1740  0.4718 -0.1734
 3668TIP3    H132419   1.353   5.735   2.524 -0.7817  1.6580 -0.5281
 3668TIP3    H232420   1.202   5.727   2.509 -0.5922 -0.7839 -1.6440
 3669TIP3   OH232421   0.668   1.182  14.863 -0.0974  0.5965  0.5334
 3669TIP3    H132422   0.575   1.201  14.868 -0.1128  0.2207  1.8134
 3669TIP3    H232423   0.674   1.087  14.876  0.5183  0.7352  1.3328
 3670TIP3   OH232424   0.291   1.689   5.414 -0.4420  0.0099  0.3928
 3670TIP3    H132425   0.218   1.697   5.474 -0.6988 -0.5265  0.1643
 3670TIP3    H232426   0.341   1.614   5.447  0.6324  1.0323  1.1909
 3671TIP3   OH232427   5.653   1.429  12.335  0.1046 -0.1298  0.3619
 3671TIP3    H132428   5.615   1.516  12.327  0.1924 -0.0777  0.5066
 3671TIP3    H232429   5.578   1.370  12.341  0.0457 -0.0676  0.2262
 3672TIP3   OH232430   2.917   0.701  16.049 -0.4226  0.6304 -0.0364
 3672TIP3    H132431   2.996   0.749  16.073  0.1874 -1.0723  1.6034
 3672TIP3    H232432   2.940   0.658  15.967  0.0161  0.8813 -0.0519
 3673TIP3   OH232433   3.422   2.620   0.498  0.0759  0.2098  0.3996
 3673TIP3    H132434   3.362   2.552   0.528  0.7110  0.3356  2.0631
 3673TIP3    H232435   3.502   2.605   0.547  1.2042  0.4722 -1.2718
 3674TIP3   OH232436   2.219   2.932  11.580  0.7857 -0.4054 -0.5948
 3674TIP3    H132437   2.280   2.931  11.654  1.2264 -0.0320 -0.9493
 3674TIP3    H232438   2.267   2.891  11.509  0.8270  0.3906 -1.0357
 3675TIP3   OH232439   2.498   1.552   4.882  0.3732  0.4070  0.4989
 3675TIP3    H132440   2.573   1.598   4.922  1.0818 -0.1761 -0.1218
 3675TIP3    H232441   2.455   1.508   4.956  0.6267  0.7692  0.8683
 3676TIP3   OH232442   6.497   1.706  13.087 -0.0018 -0.4649 -0.4586
 3676TIP3    H132443   6.452   1.694  13.003 -1.6382  1.1205  0.1362
 3676TIP3    H232444   6.584   1.736  13.063 -1.1324  2.1690 -1.6565
 3677TIP3   OH232445   6.374   3.380  15.973  0.6116  0.0260  0.2799
 3677TIP3    H132446   6.325   3.462  15.972  0.4866 -0.0435  0.5915
 3677TIP3    H232447   6.372   3.352  16.065 -0.4081 -0.9685 -0.0206
 3678TIP3   OH232448   5.587   1.873   2.850  0.0871 -0.1867 -0.3657
 3678TIP3    H132449   5.662   1.898   2.797  0.0091  2.3980  0.6388
 3678TIP3    H232450   5.617   1.879   2.940 -0.6485 -1.6140  0.0159
 3679TIP3   OH232451   3.896   5.252   1.081 -0.2794 -0.0770 -0.3389
 3679TIP3    H132452   3.952   5.324   1.050 -0.3404  0.0654 -0.1230
 3679TIP3    H232453   3.808   5.290   1.083 -0.0394  0.5283  1.8030
 3680TIP3   OH232454   5.449   5.220   0.952  0.1161  0.2912  0.9428
 3680TIP3    H132455   5.411   5.307   0.951  1.8831  1.1411 -1.1644
 3680TIP3    H232456   5.399   5.172   1.018 -3.1288  1.8734 -0.1636
 3681TIP3   OH232457   4.689   5.278   2.643  0.1592  0.5942  0.1273
 3681TIP3    H132458   4.612   5.229   2.670  0.7452 -1.6913 -1.9900
 3681TIP3    H232459   4.669   5.309   2.554  1.8249 -0.5059 -0.6729
 3682TIP3   OH232460   5.251   0.811   3.670  0.0042  0.1323  0.2010
 3682TIP3    H132461   5.163   0.783   3.646 -1.1584 -1.0468  4.7992
 3682TIP3    H232462   5.241   0.902   3.698  0.2819  0.0748  0.4963
 3683TIP3   OH232463   2.890   3.111   2.344 -0.5066  0.4026 -0.2447
 3683TIP3    H132464   2.838   3.031   2.341 -0.4216  0.2271  1.6874
 3683TIP3    H232465   2.954   3.096   2.414  1.4481  1.0511 -1.8049
 3684TIP3   OH232466   0.563   5.483   3.261  0.2913 -1.1034  0.1426
 3684TIP3    H132467   0.527   5.407   3.307  0.3712 -0.6036  1.0599
 3684TIP3    H232468   0.595   5.540   3.331  1.4936 -0.8421 -0.5952
 3685TIP3   OH232469   3.445   2.370   0.268  0.1629  0.3845  0.1127
 3685TIP3    H132470   3.423   2.365   0.361 -1.1222 -1.1364 -0.2158
 3685TIP3    H232471   3.463   2.279   0.244 -0.5187  0.6120 -1.3328
 3686TIP3   OH232472   3.498   1.345  15.840  0.5091 -0.3697 -0.0300
 3686TIP3    H132473   3.548   1.378  15.765  1.2580  2.7355  1.6674
 3686TIP3    H232474   3.407   1.355  15.814  0.7588  0.0307 -0.7929
 3687TIP3   OH232475   0.565   1.991   3.257 -0.2685  0.1840 -0.1114
 3687TIP3    H132476   0.634   2.017   3.319 -1.7467  0.3455  1.5477
 3687TIP3    H232477   0.515   1.924   3.304 -0.8034 -0.4922 -1.5848
 3688TIP3   OH232478   2.481   0.489   3.433  0.3268  0.1296 -0.3287
 3688TIP3    H132479   2.396   0.521   3.405 -0.1060 -0.6506  0.0524
 3688TIP3    H232480   2.461   0.418   3.495  1.2187 -0.8726 -1.1393
 3689TIP3   OH232481   0.298   0.896  16.931  0.0210  0.0654 -0.4767
 3689TIP3    H132482   0.262   0.844  17.002  0.6560  0.6003  0.2529
 3689TIP3    H232483   0.276   0.987  16.954 -1.9200  0.0974 -2.2138
 3690TIP3   OH232484   1.012   3.956   4.676 -0.2786  0.0606  0.7382
 3690TIP3    H132485   0.927   3.990   4.704 -0.0424  1.2102  0.1377
 3690TIP3    H232486   1.008   3.958   4.580  0.5835  0.5771  0.7025
 3691TIP3   OH232487   0.182   2.400  11.142 -0.5884  0.3539 -0.1280
 3691TIP3    H132488   0.160   2.307  11.147 -0.0401  0.2438  0.1918
 3691TIP3    H232489   0.273   2.402  11.115 -0.6056  0.8029 -0.1572
 3692TIP3   OH232490   1.450   2.884  16.163 -0.0629 -0.1917 -0.6380
 3692TIP3    H132491   1.367   2.906  16.121  0.3016 -0.9952 -1.8671
 3692TIP3    H232492   1.434   2.799  16.204 -0.0843  0.0384 -0.1745
 3693TIP3   OH232493   5.619   4.683   0.997  0.2252 -0.1765  0.1988
 3693TIP3    H132494   5.713   4.667   0.993  0.3416  0.0370  1.6801
 3693TIP3    H232495   5.597   4.681   1.090 -1.0576  0.7766 -0.0441
 3694TIP3   OH232496   5.211   5.650   2.835  0.0025  0.0047 -0.0341
 3694TIP3    H132497   5.174   5.672   2.920 -0.5824 -0.2663 -0.2113
 3694TIP3    H232498   5.282   5.713   2.822 -1.4562  1.6453 -0.4118
 3695TIP3   OH232499   6.485   6.651  15.960  0.3477  0.1786 -0.0415
 3695TIP3    H132500   6.531   6.628  16.041 -0.8593 -1.3476  0.2534
 3695TIP3    H232501   6.539   6.614  15.890  1.6095  1.8560 -0.0173
 3696TIP3   OH232502   4.190   1.098  13.928  1.0619  0.0129 -0.2224
 3696TIP3    H132503   4.132   1.029  13.896 -0.1393  0.7282  0.3492
 3696TIP3    H232504   4.137   1.146  13.992  2.0957  1.0495 -0.1157
 3697TIP3   OH232505   4.993   2.102  13.084  0.1131  0.1212  0.3733
 3697TIP3    H132506   5.028   2.184  13.120 -0.4085  0.6828 -0.3523
 3697TIP3    H232507   4.956   2.056  13.159  0.6316  0.4401  0.8277
 3698TIP3   OH232508   6.053   2.662  17.170 -0.1907  0.6126  0.4982
 3698TIP3    H132509   6.003   2.581  17.158 -0.8983  1.3411 -2.2015
 3698TIP3    H232510   5.995   2.719  17.219 -1.4483  0.8773 -1.1983
 3699TIP3   OH232511   1.576   5.376   4.242  0.5346  0.4121 -0.0941
 3699TIP3    H132512   1.538   5.425   4.315  0.4278  1.8476 -1.0529
 3699TIP3    H232513   1.551   5.427   4.165 -0.2882 -1.6475 -1.2472
 3700TIP3   OH232514   2.710   0.100   4.147 -0.0992  0.4074  0.6280
 3700TIP3    H132515   2.737   0.057   4.066 -0.6980  0.8515  0.1802
 3700TIP3    H232516   2.755   0.185   4.145  1.2389 -0.2401  1.6050
 3701TIP3   OH232517   2.544   6.271   2.200  0.4601  0.3134  0.3256
 3701TIP3    H132518   2.606   6.265   2.272  0.8728  2.1083  0.1682
 3701TIP3    H232519   2.506   6.359   2.207 -1.7408 -0.5436  0.1210
 3702TIP3   OH232520   3.129   1.478  15.382 -0.0204 -1.0229  0.1978
 3702TIP3    H132521   3.080   1.398  15.365 -0.1118 -0.7630 -0.8321
 3702TIP3    H232522   3.074   1.548  15.348  0.7916 -0.6794 -0.4611
 3703TIP3   OH232523   2.180   2.660   4.300 -0.2280 -0.2033 -0.0862
 3703TIP3    H132524   2.135   2.736   4.263 -1.2570 -1.2056 -0.9823
 3703TIP3    H232525   2.109   2.601   4.325  0.5528 -0.8874  0.5554
 3704TIP3   OH232526   1.447   3.952  10.981 -0.0493 -0.0583 -0.3523
 3704TIP3    H132527   1.532   3.983  10.950 -0.1327  0.8407  0.2802
 3704TIP3    H232528   1.446   3.858  10.959  0.0778  0.4147 -2.5737
 3705TIP3   OH232529   4.978   2.737  13.626 -0.3696 -0.4185 -0.1372
 3705TIP3    H132530   4.926   2.816  13.608  0.0257 -0.1910 -0.3102
 3705TIP3    H232531   4.974   2.727  13.721 -1.1159 -0.6757 -0.1891
 3706TIP3   OH232532   2.224   6.349  17.086  0.1150  0.2351  0.0747
 3706TIP3    H132533   2.175   6.341  17.004  0.2301 -1.4318  0.1464
 3706TIP3    H232534   2.290   6.416  17.068 -0.6344  0.7598 -0.7963
 3707TIP3   OH232535   5.795   1.176   0.388 -0.0943 -0.1641  0.6390
 3707TIP3    H132536   5.727   1.133   0.439 -1.0062 -0.9346 -1.1529
 3707TIP3    H232537   5.877   1.143   0.424 -0.4753  2.0323  3.9730
 3708TIP3   OH232538   3.314   3.155   5.732 -0.7712  0.1232  0.3485
 3708TIP3    H132539   3.389   3.194   5.688 -1.0452  2.1234  1.5641
 3708TIP3    H232540   3.238   3.195   5.691 -1.2439 -1.7321 -0.7254
 3709TIP3   OH232541   4.632   1.403  16.650 -0.0314  0.1685 -0.6537
 3709TIP3    H132542   4.583   1.327  16.617  1.3161 -1.4446  0.8501
 3709TIP3    H232543   4.574   1.442  16.715 -0.7063  0.4196 -1.3831
 3710TIP3   OH232544   2.361   4.943  15.370 -0.3913 -0.0294  0.0423
 3710TIP3    H132545   2.340   5.002  15.443 -0.1699  0.3077 -0.1669
 3710TIP3    H232546   2.388   5.001  15.299 -3.0440 -0.1426 -1.1980
 3711TIP3   OH232547   0.325   5.133   2.808  0.1343  0.2326 -0.1694
 3711TIP3    H132548   0.268   5.083   2.749 -1.4886  0.1123  1.3808
 3711TIP3    H232549   0.324   5.083   2.890 -0.2692  1.9665  0.9484
 3712TIP3   OH232550   2.721   2.557   3.179 -0.5236 -0.2410 -0.1445
 3712TIP3    H132551   2.809   2.595   3.185 -0.0383 -1.2444 -0.7565
 3712TIP3    H232552   2.664   2.625   3.215  0.5796  0.1066  1.0370
 3713TIP3   OH232553   2.104   5.390   6.436  0.0971 -0.0643  0.1212
 3713TIP3    H132554   2.037   5.397   6.504  0.3561 -1.1032  0.5013
 3713TIP3    H232555   2.080   5.311   6.387  0.7741 -0.1829 -0.0285
 3714TIP3   OH232556   0.591   0.937  13.399  0.3763  0.0577  0.3904
 3714TIP3    H132557   0.520   0.894  13.447 -0.6049 -1.4120 -2.1721
 3714TIP3    H232558   0.671   0.907  13.442 -0.4490 -0.8624  1.3519
 3715TIP3   OH232559   4.333   0.632  13.376  0.1394  0.1954  0.2597
 3715TIP3    H132560   4.257   0.623  13.433  0.7596 -2.5002  0.8095
 3715TIP3    H232561   4.297   0.633  13.287 -0.6117  0.4668  0.5655
 3716TIP3   OH232562   6.418   1.460   0.910 -0.4877 -0.1684 -0.6775
 3716TIP3    H132563   6.406   1.555   0.903  0.1355  0.2276  2.3786
 3716TIP3    H232564   6.358   1.433   0.979 -0.6179 -2.0257 -1.4774
 3717TIP3   OH232565   1.779   3.030  17.110 -0.0212  0.0561 -0.4773
 3717TIP3    H132566   1.871   3.047  17.131 -0.4034  0.8783  0.6672
 3717TIP3    H232567   1.742   3.118  17.097 -1.0899 -0.1171  1.1534
 3718TIP3   OH232568   5.195   2.360   5.038 -0.0830 -0.0597  0.5021
 3718TIP3    H132569   5.265   2.401   5.089 -0.7571  0.9694  0.6303
 3718TIP3    H232570   5.239   2.293   4.986  0.9729  0.4653  0.6984
 3719TIP3   OH232571   5.967   0.416   5.840  0.1098  0.0919 -0.2750
 3719TIP3    H132572   6.009   0.501   5.847  0.6105 -0.1290 -0.6112
 3719TIP3    H232573   5.907   0.413   5.915 -0.2830  0.9392 -0.5422
 3720TIP3   OH232574   5.939   5.873   4.275  0.3880  0.0218 -0.1978
 3720TIP3    H132575   5.867   5.817   4.303 -1.8060  2.9470  0.5694
 3720TIP3    H232576   5.973   5.910   4.357  1.2991  0.3695 -0.7186
 3721TIP3   OH232577   5.662   3.497  12.185  0.1934  0.6205  0.0517
 3721TIP3    H132578   5.691   3.439  12.115  1.4714 -0.5198  1.4514
 3721TIP3    H232579   5.647   3.581  12.142  0.6840 -0.1119 -1.6255
 3722TIP3   OH232580   2.902   3.893  13.057 -0.4451  0.3520 -0.4115
 3722TIP3    H132581   2.838   3.842  13.106  1.2863 -0.8152  0.7452
 3722TIP3    H232582   2.894   3.863  12.967 -1.4491  0.1691 -0.2630
 3723TIP3   OH232583   0.715   5.750   1.285 -0.3663  0.2093 -0.2717
 3723TIP3    H132584   0.721   5.830   1.232  1.1931 -0.6829 -1.5430
 3723TIP3    H232585   0.739   5.778   1.373 -3.5578  1.8490  0.2066
 3724TIP3   OH232586   4.830   6.136   4.780 -0.1634  0.7214  0.4700
 3724TIP3    H132587   4.811   6.123   4.873 -2.3497 -1.9687 -0.2271
 3724TIP3    H232588   4.748   6.171   4.744 -0.2035 -0.5741 -0.7950
 3725TIP3   OH232589   6.007   4.409   1.212  0.9438 -0.5787 -0.1666
 3725TIP3    H132590   6.076   4.350   1.243 -1.5682 -3.5889  0.2252
 3725TIP3    H232591   6.008   4.400   1.117  0.8586 -0.8900 -0.1379
 3726TIP3   OH232592   4.738   1.664   3.166  0.7772 -0.0598  0.2040
 3726TIP3    H132593   4.824   1.666   3.206 -0.2749  0.5664  2.5850
 3726TIP3    H232594   4.713   1.756   3.155 -0.8761 -0.1181  2.6811
 3727TIP3   OH232595   0.018   1.544   2.604  0.6553  0.3539 -0.1317
 3727TIP3    H132596   0.043   1.497   2.684 -0.4481  2.0008  1.2273
 3727TIP3    H232597   0.100   1.549   2.554  1.1068 -1.7690  0.2782
 3728TIP3   OH232598   4.650   6.142  14.885 -0.3569 -0.0924 -0.5904
 3728TIP3    H132599   4.600   6.223  14.889 -0.3732 -0.1382  0.6115
 3728TIP3    H232600   4.640   6.111  14.795 -1.0683  0.7847 -0.8198
 3729TIP3   OH232601   4.833   5.335  12.836 -0.3715  0.0698  0.5322
 3729TIP3    H132602   4.769   5.401  12.861  0.2574  0.6180  0.7266
 3729TIP3    H232603   4.880   5.373  12.762 -2.5998 -1.7668 -2.0328
 3730TIP3   OH232604   5.605   0.924  11.254 -0.1093 -0.7199 -0.7606
 3730TIP3    H132605   5.547   0.849  11.239  0.0928 -1.0332  0.0007
 3730TIP3    H232606   5.616   0.963  11.167  0.0898 -1.8004 -1.2480
 3731TIP3   OH232607   3.918   6.488   5.400 -0.0731 -0.3714  0.7940
 3731TIP3    H132608   3.882   6.576   5.410  0.2159 -0.0408 -0.7420
 3731TIP3    H232609   4.002   6.502   5.356  2.0869 -1.1055  4.3092
 3732TIP3   OH232610   5.021   5.979  16.850  0.0396 -0.3854 -0.4354
 3732TIP3    H132611   5.033   5.884  16.846 -0.1898 -0.4402  0.0358
 3732TIP3    H232612   5.079   6.014  16.783  1.0775 -0.7775  0.2423
 3733TIP3   OH232613   1.076   2.954  13.594  0.1855 -0.5222  0.6234
 3733TIP3    H132614   1.044   2.938  13.683 -0.1267 -0.6867  0.4806
 3733TIP3    H232615   1.008   3.005  13.552  0.4392 -0.2421  0.5480
 3734TIP3   OH232616   5.796   2.648  15.406  0.0802 -0.3664  0.1071
 3734TIP3    H132617   5.828   2.594  15.478 -1.0516 -1.3357 -0.0907
 3734TIP3    H232618   5.767   2.585  15.340  0.0282  0.5039 -0.7238
 3735TIP3   OH232619   1.400   5.936   5.282  0.1768 -0.1890  0.8654
 3735TIP3    H132620   1.409   5.990   5.361  1.2742 -1.7828  1.9103
 3735TIP3    H232621   1.472   5.873   5.289 -0.2383 -0.9168 -0.9884
 3736TIP3   OH232622   0.614   1.703   5.931  0.2953 -0.4478  0.1247
 3736TIP3    H132623   0.651   1.791   5.937  0.0236 -0.3297  0.0961
 3736TIP3    H232624   0.555   1.708   5.856 -1.4406 -0.0173  1.4716
 3737TIP3   OH232625   6.359   2.351  14.036  0.3577  0.5342  0.0557
 3737TIP3    H132626   6.366   2.255  14.035 -0.2873  0.4845 -0.0799
 3737TIP3    H232627   6.322   2.371  14.122  0.3203  0.6540  0.0113
 3738TIP3   OH232628   3.402   5.737  16.169  0.0793  0.1343 -0.1697
 3738TIP3    H132629   3.336   5.806  16.162  0.6670  0.8599  1.0285
 3738TIP3    H232630   3.448   5.756  16.251 -0.0983 -2.0232  0.4838
 3739TIP3   OH232631   4.766   3.920  10.823  0.3238 -0.5857 -0.2878
 3739TIP3    H132632   4.692   3.865  10.795 -1.0875 -0.7557  3.2654
 3739TIP3    H232633   4.728   3.979  10.888  2.9994  0.6068  0.2946
 3740TIP3   OH232634   0.844   5.114  11.801  0.1705  0.0857  0.0567
 3740TIP3    H132635   0.808   5.091  11.715  4.0336  0.3292 -1.7946
 3740TIP3    H232636   0.851   5.209  11.801 -0.2789  0.1356  0.9068
 3741TIP3   OH232637   2.142   5.467   4.810 -0.1379 -0.0662  0.0612
 3741TIP3    H132638   2.119   5.538   4.751  1.7251  1.6059  1.2150
 3741TIP3    H232639   2.148   5.390   4.754  0.0410  1.1292 -1.6405
 3742TIP3   OH232640   3.899   2.484  14.979 -0.7733  0.3971 -0.2082
 3742TIP3    H132641   3.972   2.528  15.024  0.5167 -0.2518 -1.5717
 3742TIP3    H232642   3.845   2.450  15.050  1.0905 -0.4274  0.8980
 3743TIP3   OH232643   5.977   2.322   2.741 -0.1454 -0.3143  0.2785
 3743TIP3    H132644   6.034   2.305   2.816 -0.2358 -0.7393  0.2555
 3743TIP3    H232645   6.019   2.395   2.695  0.4703 -0.7183  0.1772
 3744TIP3   OH232646   0.862   0.724   0.544  0.9847 -0.0640 -0.7402
 3744TIP3    H132647   0.882   0.771   0.625  0.7005  1.3913 -1.4684
 3744TIP3    H232648   0.844   0.794   0.481 -1.2594 -1.1703 -1.4215
 3745TIP3   OH232649   5.188   6.690  12.059 -0.4206 -0.5507 -0.1052
 3745TIP3    H132650   5.159   6.764  12.111 -0.0081  1.3245 -2.3577
 3745TIP3    H232651   5.115   6.672  12.000  0.9677  0.9550 -2.4456
 3746TIP3   OH232652   0.425   4.582   3.127  0.5421 -0.0667 -0.0002
 3746TIP3    H132653   0.387   4.599   3.040 -1.0501 -1.5489  0.3517
 3746TIP3    H232654   0.391   4.653   3.182 -0.1697 -0.2937 -0.1339
 3747TIP3   OH232655   1.438   2.941  14.180 -0.0857  0.0356  0.1620
 3747TIP3    H132656   1.409   2.941  14.272 -0.8494 -3.8138  0.0892
 3747TIP3    H232657   1.361   2.968  14.131  0.1358  1.4767  0.5465
 3748TIP3   OH232658   3.909   4.212   5.951 -0.1944 -0.1623 -0.0451
 3748TIP3    H132659   3.817   4.184   5.945 -0.4348  0.8544 -1.5479
 3748TIP3    H232660   3.950   4.176   5.873  0.9123 -1.2661  1.0037
 3749TIP3   OH232661   3.195   4.676  14.175 -0.1989  0.2196 -0.0616
 3749TIP3    H132662   3.105   4.693  14.200 -0.5939 -1.3310 -0.3613
 3749TIP3    H232663   3.215   4.590  14.211  0.9732  0.2877 -0.4977
 3750TIP3   OH232664   2.812   0.970   0.578 -1.0010  0.1072 -0.6213
 3750TIP3    H132665   2.755   0.937   0.648 -1.3471  0.4872 -0.7263
 3750TIP3    H232666   2.758   1.031   0.529 -0.4466  0.6108 -0.6110
 3751TIP3   OH232667   0.217   1.929  13.707 -0.2829  0.3299 -0.0123
 3751TIP3    H132668   0.247   1.972  13.787  2.7818 -2.8964  0.8358
 3751TIP3    H232669   0.270   1.968  13.637 -2.4307  2.6082 -0.5193
 3752TIP3   OH232670   5.904   3.257   2.586  0.0898 -0.6166 -0.1883
 3752TIP3    H132671   5.929   3.188   2.525 -0.3458  0.5791 -1.7916
 3752TIP3    H232672   5.808   3.260   2.581  0.1326  0.5030 -0.6237
 3753TIP3   OH232673   3.489   4.356  13.240 -0.4935 -0.1222 -0.1602
 3753TIP3    H132674   3.488   4.344  13.335 -0.7622  1.1516  0.0065
 3753TIP3    H232675   3.475   4.267  13.205  2.3588 -1.1048  0.9118
 3754TIP3   OH232676   4.163   5.514  14.578  0.4667 -0.2148 -0.1536
 3754TIP3    H132677   4.144   5.422  14.563  0.8194 -0.5713  1.3635
 3754TIP3    H232678   4.254   5.515  14.608  0.2097  0.5009  0.6680
 3755TIP3   OH232679   2.566   2.043   2.397  0.6169 -0.3474  0.1720
 3755TIP3    H132680   2.564   2.138   2.399  0.6972 -0.3605  0.9515
 3755TIP3    H232681   2.542   2.020   2.307 -1.2658  0.3530  0.4711
 3756TIP3   OH232682   3.288   5.796   1.068  0.0874 -0.1509 -0.3490
 3756TIP3    H132683   3.194   5.798   1.088  0.1171 -2.0415  0.2028
 3756TIP3    H232684   3.330   5.837   1.143 -0.1988 -1.1714  0.3888
 3757TIP3   OH232685   2.825   1.610  15.323  0.4640 -0.1888  0.3639
 3757TIP3    H132686   2.837   1.696  15.282 -1.4190  0.4111  0.9925
 3757TIP3    H232687   2.765   1.564  15.264 -0.5406 -0.1174  1.3102
 3758TIP3   OH232688   5.253   1.436   1.199  0.5131  0.0857  0.0367
 3758TIP3    H132689   5.161   1.459   1.213 -0.1109 -1.6268 -0.9290
 3758TIP3    H232690   5.302   1.504   1.244 -1.1516  2.8793 -2.0394
 3759TIP3   OH232691   3.708   3.907  16.494 -0.0966 -0.8839 -0.2020
 3759TIP3    H132692   3.647   3.957  16.439 -0.8782 -1.7685 -0.1774
 3759TIP3    H232693   3.684   3.816  16.477 -0.6313 -1.1712  1.8980
 3760TIP3   OH232694   3.632   1.055  15.503 -0.2790  0.6378  0.3129
 3760TIP3    H132695   3.605   0.997  15.575 -0.4090 -0.9270 -0.9420
 3760TIP3    H232696   3.685   1.123  15.546 -0.1004 -0.4093  1.8437
 3761TIP3   OH232697   5.632   4.890  14.338  0.0810 -0.1720 -0.0689
 3761TIP3    H132698   5.707   4.835  14.313 -0.1877 -0.6491  0.1552
 3761TIP3    H232699   5.611   4.862  14.427 -0.7322 -0.4658 -0.3446
 3762TIP3   OH232700   4.316   4.932   0.190 -0.2479  0.0981 -0.0806
 3762TIP3    H132701   4.266   4.918   0.110 -0.6461  0.0531  0.1749
 3762TIP3    H232702   4.367   5.011   0.173 -2.8305  2.0794  0.8141
 3763TIP3   OH232703   6.684   4.683  11.889  0.2751 -0.1643 -0.6862
 3763TIP3    H132704   6.638   4.763  11.915 -0.7355 -0.6786 -0.8348
 3763TIP3    H232705   6.621   4.637  11.833  0.6569 -1.3004 -0.1961
 3764TIP3   OH232706   3.194   1.037  15.812  0.2659  0.2359 -0.4078
 3764TIP3    H132707   3.122   1.088  15.849  0.7051  0.9670 -0.5318
 3764TIP3    H232708   3.152   0.976  15.752 -0.3317 -0.0007  0.2306
 3765TIP3   OH232709   6.043   4.802  15.127 -0.3347  0.0899 -0.1957
 3765TIP3    H132710   6.101   4.727  15.134 -1.3115 -0.7616 -0.9211
 3765TIP3    H232711   6.101   4.877  15.115  0.6066 -0.6946 -0.6483
 3766TIP3   OH232712   2.334   3.937  11.499 -0.0096  0.2152 -0.3321
 3766TIP3    H132713   2.404   4.001  11.487  1.4921 -0.7375  2.5372
 3766TIP3    H232714   2.363   3.860  11.450 -1.3500  1.2340 -2.9516
 3767TIP3   OH232715   1.525   3.820   2.291  0.4984 -0.0504 -0.0122
 3767TIP3    H132716   1.542   3.874   2.368  1.0080 -0.5931  0.2713
 3767TIP3    H232717   1.431   3.805   2.292  0.7293 -1.8136  1.7542
 3768TIP3   OH232718   0.183   5.938   6.300  0.5978 -0.1379 -0.2534
 3768TIP3    H132719   0.189   5.965   6.392  1.2982  0.6756 -0.5227
 3768TIP3    H232720   0.247   5.868   6.291  2.1825  1.2731 -0.6060
 3769TIP3   OH232721   1.630   6.104  16.445 -0.0595 -0.5700  0.5328
 3769TIP3    H132722   1.584   6.020  16.446 -1.1023 -0.0208  0.4302
 3769TIP3    H232723   1.627   6.133  16.354  1.5160 -1.0542  0.3082
 3770TIP3   OH232724   3.485   0.041  15.663  0.1935  0.2845 -0.3666
 3770TIP3    H132725   3.554   0.074  15.720  2.6693 -1.0328 -2.3979
 3770TIP3    H232726   3.458  -0.042  15.703  2.1343 -0.7879 -1.1475
 3771TIP3   OH232727   1.812   1.176  16.460  0.4966  0.1308  0.0738
 3771TIP3    H132728   1.795   1.267  16.485  0.4777  0.3163 -0.6046
 3771TIP3    H232729   1.735   1.150  16.409 -0.4232 -0.9047  1.8873
 3772TIP3   OH232730   4.709   0.284   1.560  0.2126  0.0836  0.2839
 3772TIP3    H132731   4.657   0.363   1.547 -0.3480 -0.0685  1.4498
 3772TIP3    H232732   4.670   0.220   1.500 -0.7240  0.0832  0.8653
 3773TIP3   OH232733   0.832   2.125   5.705 -0.7375  0.2426  0.1208
 3773TIP3    H132734   0.916   2.093   5.736 -0.5352 -0.7854 -1.3953
 3773TIP3    H232735   0.835   2.219   5.719  0.1850  0.0696  1.1639
 3774TIP3   OH232736   5.672   1.604  15.919  0.7236  0.4247  0.4517
 3774TIP3    H132737   5.704   1.691  15.944  1.6591  0.7436 -1.6342
 3774TIP3    H232738   5.581   1.602  15.948  0.4899  2.3725 -0.0434
 3775TIP3   OH232739   0.866   0.080  10.672 -0.3236  0.5159 -0.2244
 3775TIP3    H132740   0.771   0.088  10.671 -0.5890 -1.4169  1.6267
 3775TIP3    H232741   0.884   0.020  10.744  2.3985  1.7286  0.2280
 3776TIP3   OH232742   6.457   2.606  13.792 -0.1714 -0.0889 -0.1913
 3776TIP3    H132743   6.504   2.529  13.825 -0.2573 -1.2193 -2.4756
 3776TIP3    H232744   6.525   2.659  13.751 -0.6300 -1.2236 -2.5876
 3777TIP3   OH232745   0.661   4.402  11.915 -0.3217  0.1025  0.5550
 3777TIP3    H132746   0.721   4.328  11.920  0.6784  0.6859 -1.5926
 3777TIP3    H232747   0.699   4.460  11.849 -2.0174  1.6761  0.8548
 3778TIP3   OH232748   5.988   4.004   2.460 -0.0195 -0.8501 -0.0888
 3778TIP3    H132749   5.960   4.030   2.373  1.5572  0.8301 -0.1501
 3778TIP3    H232750   5.906   3.989   2.508 -0.9136 -1.0314 -1.6051
 3779TIP3   OH232751   2.011   6.622  14.992 -0.0911  0.2478  0.2211
 3779TIP3    H132752   2.006   6.713  14.963  1.5731  0.8290  1.5435
 3779TIP3    H232753   2.019   6.628  15.088 -2.0738 -1.4178  0.5549
 3780TIP3   OH232754   5.248   3.925   3.364  0.2358 -0.3380  0.3749
 3780TIP3    H132755   5.310   3.860   3.395  2.7451 -0.2647 -3.7539
 3780TIP3    H232756   5.215   3.890   3.281 -0.6700  2.2779 -0.4903
 3781TIP3   OH232757   3.921   2.294  15.456 -0.0116  0.0487  0.1142
 3781TIP3    H132758   3.917   2.343  15.538 -0.9575 -2.2672  1.5641
 3781TIP3    H232759   3.996   2.331  15.409  0.2791  1.7437  1.7963
 3782TIP3   OH232760   1.612   0.334   5.904  0.3362 -0.2390 -0.6355
 3782TIP3    H132761   1.586   0.296   5.987  1.5236 -0.7894 -0.4876
 3782TIP3    H232762   1.530   0.344   5.855 -0.4979  0.9150  0.9030
 3783TIP3   OH232763   2.472   0.899   1.638  0.1404  0.0119 -0.2509
 3783TIP3    H132764   2.462   0.965   1.706 -1.4147  1.5896 -1.8757
 3783TIP3    H232765   2.393   0.909   1.584  1.3410 -1.0976 -2.3262
 3784TIP3   OH232766   5.130   0.373   1.255 -0.0483 -0.1583 -0.1083
 3784TIP3    H132767   5.208   0.427   1.257 -0.4475  0.4387 -0.3008
 3784TIP3    H232768   5.162   0.284   1.243  0.8180 -0.4424  3.4051
 3785TIP3   OH232769   0.636   5.180  17.296 -0.3365  0.7630 -0.4028
 3785TIP3    H132770   0.575   5.113  17.265  0.7275 -0.4752  0.1193
 3785TIP3    H232771   0.579   5.250  17.329 -1.4683  0.8365 -2.3783
 3786TIP3   OH232772   1.106   3.934   2.167  0.5559 -0.3202  0.2049
 3786TIP3    H132773   1.147   4.014   2.198 -0.6726  0.8208 -1.0127
 3786TIP3    H232774   1.022   3.931   2.213  0.3475 -0.6039 -0.1871
 3787TIP3   OH232775   1.988   3.462  16.150 -0.3133 -0.1125  0.4480
 3787TIP3    H132776   1.957   3.394  16.089  5.2362 -1.8803 -0.9408
 3787TIP3    H232777   1.960   3.544  16.110 -2.4618 -1.3812 -0.8499
 3788TIP3   OH232778   2.084   1.922   0.057 -0.1081 -0.3544 -0.2146
 3788TIP3    H132779   2.084   1.848   0.117  2.5822  0.3663  0.8155
 3788TIP3    H232780   2.017   1.901  -0.008  0.1527 -3.3833  0.3908
 3789TIP3   OH232781   2.712   3.044   6.234  0.6122  0.8100  0.6286
 3789TIP3    H132782   2.745   2.958   6.206 -0.6797  0.5406 -0.1987
 3789TIP3    H232783   2.788   3.102   6.230  1.2741 -0.0655  0.1237
 3790TIP3   OH232784   3.335   2.726  14.059  0.0714 -0.0117 -0.1337
 3790TIP3    H132785   3.271   2.673  14.011 -0.8318  2.2946 -1.6337
 3790TIP3    H232786   3.420   2.689  14.034 -0.5322 -2.1395  0.6765
 3791TIP3   OH232787   5.696   0.368  11.343  0.0492 -0.4473  0.1238
 3791TIP3    H132788   5.628   0.319  11.297  0.9023 -0.7250 -0.8910
 3791TIP3    H232789   5.778   0.338  11.303  0.7569  0.0736  1.1306
 3792TIP3   OH232790   3.759   1.885  12.160  0.1117  0.0588  0.0914
 3792TIP3    H132791   3.791   1.875  12.071 -0.1131 -0.5406  0.0759
 3792TIP3    H232792   3.802   1.964  12.192  2.7810 -1.4658  0.5695
 3793TIP3   OH232793   5.986   6.405   4.407 -0.1512 -0.2350 -0.3064
 3793TIP3    H132794   6.077   6.403   4.437  0.0691 -1.2249 -0.9961
 3793TIP3    H232795   5.993   6.412   4.312 -0.7985 -0.2295 -0.3533
 3794TIP3   OH232796   1.242   4.577  13.159 -0.1778  0.3322 -0.2848
 3794TIP3    H132797   1.305   4.643  13.131 -0.3793 -0.1084 -1.8927
 3794TIP3    H232798   1.254   4.504  13.097 -1.3346 -0.3067  0.2025
 3795TIP3   OH232799   5.592   6.765   0.143 -0.2428  0.2933 -0.3554
 3795TIP3    H132800   5.642   6.836   0.103 -0.7567  1.5874  1.1807
 3795TIP3    H232801   5.622   6.763   0.234 -1.3792 -0.4072  0.0196
 3796TIP3   OH232802   3.883   6.678  11.866 -0.4656 -0.5133  0.3794
 3796TIP3    H132803   3.835   6.647  11.789 -0.3121 -0.0426  0.0841
 3796TIP3    H232804   3.872   6.773  11.863  2.4770 -0.1083 -1.0787
 3797TIP3   OH232805   3.045   5.156  13.648 -0.1156  0.2545 -0.0323
 3797TIP3    H132806   3.076   5.071  13.617 -2.2459 -0.7696  0.4219
 3797TIP3    H232807   3.036   5.208  13.569  0.8745 -0.0548 -0.3617
 3798TIP3   OH232808   0.008   3.343  13.350  0.0872  0.1799 -0.2401
 3798TIP3    H132809   0.006   3.408  13.280  0.8520  2.0821  1.3937
 3798TIP3    H232810  -0.083   3.334  13.378  0.1901  2.5206  1.1318
 3799TIP3   OH232811   4.245   4.819   5.693  0.2907 -0.1113 -0.0348
 3799TIP3    H132812   4.267   4.742   5.746 -1.0667  0.7138  1.8320
 3799TIP3    H232813   4.304   4.887   5.725 -1.5509  0.8092  1.6359
 3800TIP3   OH232814   2.723   0.592   5.978 -0.5753  0.2146 -0.1089
 3800TIP3    H132815   2.748   0.500   5.972 -0.0870  0.3267  0.1271
 3800TIP3    H232816   2.801   0.636   6.014 -0.5062  0.8446 -0.9969
 3801TIP3   OH232817   6.661   5.574   1.929  0.1667  0.5086  0.1104
 3801TIP3    H132818   6.611   5.652   1.905 -2.5014 -1.1329 -0.0969
 3801TIP3    H232819   6.636   5.557   2.019  0.1808 -0.4484 -0.0568
 3802TIP3   OH232820   6.511   1.832  17.086  0.6387 -0.1625 -0.2350
 3802TIP3    H132821   6.475   1.805  17.171  0.5376  2.4884  0.6385
 3802TIP3    H232822   6.487   1.760  17.027  0.2052 -1.8228  1.8219
 3803TIP3   OH232823   2.528   1.137  16.650  0.4451 -0.1722 -0.0992
 3803TIP3    H132824   2.459   1.158  16.587  0.4747 -0.3835 -0.2013
 3803TIP3    H232825   2.610   1.153  16.602  0.4737 -1.3823 -0.4674
 3804TIP3   OH232826   6.113   3.154   4.654 -0.4646 -0.2189  0.2545
 3804TIP3    H132827   6.187   3.104   4.622 -0.4294  0.1001 -0.1683
 3804TIP3    H232828   6.109   3.134   4.748  0.5942  0.3021  0.4316
 3805TIP3   OH232829   0.748   2.529  10.498 -0.4973  0.4757 -0.2533
 3805TIP3    H132830   0.798   2.600  10.538  0.4403  0.3439 -1.1620
 3805TIP3    H232831   0.792   2.449  10.528 -0.7321  0.3248 -0.3072
 3806TIP3   OH232832   0.690   1.958  10.890  0.0944  0.0278 -0.0640
 3806TIP3    H132833   0.632   1.931  10.962  1.0897  1.6070  1.4179
 3806TIP3    H232834   0.767   1.903  10.900 -0.5666 -1.1621 -1.2279
 3807TIP3   OH232835   4.291   1.005  15.780 -0.3089  0.5551 -0.3603
 3807TIP3    H132836   4.242   1.074  15.736 -0.3306  1.0011  0.3422
 3807TIP3    H232837   4.314   1.042  15.865 -0.5216 -0.3878  0.1282
 3808TIP3   OH232838   2.052   1.361   5.688 -0.5736 -0.2673 -0.0256
 3808TIP3    H132839   2.019   1.274   5.665  0.4842 -0.3289 -1.4989
 3808TIP3    H232840   2.077   1.353   5.780 -0.6840 -1.4625 -0.0762
 3809TIP3   OH232841   0.244   5.383  17.028  0.3937  0.4368 -0.0762
 3809TIP3    H132842   0.289   5.353  16.949  0.5957 -0.8090  0.4894
 3809TIP3    H232843   0.170   5.323  17.039  0.6502  0.2798  0.9467
 3810TIP3   OH232844   2.386   4.701  14.691  0.2481  0.1193  0.4692
 3810TIP3    H132845   2.377   4.784  14.644  1.0722 -0.2130 -0.2959
 3810TIP3    H232846   2.298   4.662  14.687  0.1295  0.4376 -0.1391
 3811TIP3   OH232847   4.545   1.114   0.940  0.0203 -0.2060 -0.3329
 3811TIP3    H132848   4.465   1.098   0.891  0.2939  0.1693 -0.9016
 3811TIP3    H232849   4.517   1.117   1.032 -0.9743  2.0538 -0.6426
 3812TIP3   OH232850   2.358   4.267   0.218  0.2641 -0.0689  0.0512
 3812TIP3    H132851   2.297   4.267   0.144  0.9730  1.0722 -0.5699
 3812TIP3    H232852   2.329   4.341   0.272  0.6633  0.0520  0.1033
 3813TIP3   OH232853   2.420   0.157   1.945  0.2891  0.0323 -0.4801
 3813TIP3    H132854   2.448   0.247   1.927  2.5192 -0.6317 -0.6323
 3813TIP3    H232855   2.368   0.163   2.025 -0.1492  1.5183 -0.8383
 3814TIP3   OH232856   5.825   1.664  14.200 -0.3648 -0.3209  0.3618
 3814TIP3    H132857   5.771   1.720  14.145 -0.0702 -0.4237 -0.0336
 3814TIP3    H232858   5.854   1.722  14.271 -0.8666 -0.2277  0.5013
 3815TIP3   OH232859   5.932   6.572   2.036  0.4768 -0.2672 -0.0918
 3815TIP3    H132860   5.893   6.516   2.103  1.0679  0.0782  0.5494
 3815TIP3    H232861   6.026   6.552   2.039  1.1569  2.5161  1.9607
 3816TIP3   OH232862   1.717   6.028  14.934  0.5682  0.7229  0.3654
 3816TIP3    H132863   1.654   6.083  14.980  0.8012  1.7824 -0.5508
 3816TIP3    H232864   1.663   5.968  14.883  0.3148  0.3781  1.0208
 3817TIP3   OH232865   0.029   3.151   3.712 -0.2266  0.1119  0.3172
 3817TIP3    H132866  -0.012   3.067   3.734 -0.1797  0.2628  1.0076
 3817TIP3    H232867  -0.041   3.215   3.719  0.0014  0.2988  1.0115
 3818TIP3   OH232868   3.405   4.641   4.388  0.4531  0.6570  0.5758
 3818TIP3    H132869   3.349   4.707   4.429 -1.5414 -1.5567  1.6701
 3818TIP3    H232870   3.344   4.579   4.348  2.1797 -0.9645  0.3007
 3819TIP3   OH232871   6.336   2.380   0.733 -0.1742  0.5722 -0.2163
 3819TIP3    H132872   6.286   2.299   0.725 -0.3650  0.6454  0.1861
 3819TIP3    H232873   6.362   2.401   0.644 -1.0534  0.6531 -0.4653
 3820TIP3   OH232874   5.179   4.866   5.440 -0.0328  0.3182  0.2056
 3820TIP3    H132875   5.113   4.808   5.402 -1.0436  1.1344  0.6708
 3820TIP3    H232876   5.198   4.929   5.370  1.5439 -0.9024 -0.5306
 3821TIP3   OH232877   2.865   4.702  15.352 -0.4708  0.0911 -0.3532
 3821TIP3    H132878   2.911   4.714  15.268  0.4540  1.1919  0.2815
 3821TIP3    H232879   2.829   4.614  15.347 -0.1337  0.0083 -1.7739
 3822TIP3   OH232880   6.205   2.421   1.411  0.6014 -0.4089 -0.1915
 3822TIP3    H132881   6.222   2.399   1.502  1.8466  0.8393 -0.0988
 3822TIP3    H232882   6.111   2.438   1.408  0.5538 -0.4220  0.8689
 3823TIP3   OH232883   5.261   3.854   1.972  0.0483 -0.5419 -0.0390
 3823TIP3    H132884   5.203   3.790   1.932  0.0372 -0.6867  0.2068
 3823TIP3    H232885   5.342   3.849   1.921 -0.0553 -0.5398 -0.2045
 3824TIP3   OH232886   3.213   5.589  16.407  0.3081  0.5174 -0.0485
 3824TIP3    H132887   3.195   5.582  16.501  0.6268  1.6041  0.1084
 3824TIP3    H232888   3.167   5.668  16.380  0.6849  0.5225 -0.6954
 3825TIP3   OH232889   4.750   2.155   5.678  0.4029  0.4822 -0.1783
 3825TIP3    H132890   4.734   2.238   5.633 -2.4665  0.5164  0.6700
 3825TIP3    H232891   4.668   2.138   5.725  1.2191 -2.4123  0.3760
 3826TIP3   OH232892   5.412   4.702   2.024  0.3113  0.2739 -0.1520
 3826TIP3    H132893   5.341   4.716   2.086  1.3294 -0.4352  1.2470
 3826TIP3    H232894   5.394   4.762   1.952 -2.0900 -0.4360 -0.2153
 3827TIP3   OH232895   3.484   4.059   6.417 -0.2481 -0.4944  0.3184
 3827TIP3    H132896   3.443   4.144   6.401 -0.1133  0.0332  2.4738
 3827TIP3    H232897   3.495   4.055   6.512  0.4706 -2.6017  0.2026
 3828TIP3   OH232898   1.236   3.963  17.066  0.9004  0.0611  0.3017
 3828TIP3    H132899   1.173   3.905  17.024  1.3689 -1.9075  2.1436
 3828TIP3    H232900   1.316   3.912  17.071  2.6611  2.3903 -1.6799
 3829TIP3   OH232901   2.000   4.572  12.575  0.1562  0.6457 -0.2216
 3829TIP3    H132902   1.910   4.564  12.607  0.5331 -0.3885  0.6263
 3829TIP3    H232903   2.040   4.638  12.633  0.4401 -0.2070  0.5742
 3830TIP3   OH232904   3.170   2.542  14.586  0.1493 -0.0766  0.1512
 3830TIP3    H132905   3.211   2.626  14.607 -2.2475  1.3007 -0.3058
 3830TIP3    H232906   3.201   2.521  14.498  0.9687  0.1805  0.3699
 3831TIP3   OH232907   6.223   1.939   6.366 -0.0262  0.1526  0.5260
 3831TIP3    H132908   6.306   1.939   6.414  0.1211  2.0469  0.3564
 3831TIP3    H232909   6.158   1.907   6.429  0.5041  0.6081  1.3162
 3832TIP3   OH232910   6.243   1.495   4.996  0.4766  0.4536 -0.0680
 3832TIP3    H132911   6.239   1.448   4.912 -0.7011 -0.3081  0.4011
 3832TIP3    H232912   6.194   1.576   4.980 -0.4525 -0.0659  0.1119
 3833TIP3   OH232913   5.958   6.333   6.260 -0.1990 -0.5265 -0.0590
 3833TIP3    H132914   5.995   6.387   6.330 -0.0706 -3.2846  2.1613
 3833TIP3    H232915   5.882   6.382   6.230 -1.2644  0.0805  3.2211
 3834TIP3   OH232916   1.912   6.404   6.050 -0.4734  0.0390 -0.1171
 3834TIP3    H132917   1.925   6.333   6.113 -1.2781  0.0982  0.1322
 3834TIP3    H232918   1.987   6.399   5.992 -0.3003 -0.7436  0.1627
 3835TIP3   OH232919   6.089   3.901  13.159 -0.2119  0.1600 -0.0425
 3835TIP3    H132920   6.175   3.858  13.151 -0.7701 -1.0258  0.0785
 3835TIP3    H232921   6.052   3.896  13.070 -0.0265  0.9807 -0.1746
 3836TIP3   OH232922   0.417   0.390   2.896 -0.3420  0.6230 -0.1573
 3836TIP3    H132923   0.322   0.392   2.890 -0.6570 -0.2333  2.9456
 3836TIP3    H232924   0.444   0.318   2.839 -1.6949 -0.0330  0.0020
 3837TIP3   OH232925   1.233   5.016  16.343 -0.0022 -0.0872  0.1302
 3837TIP3    H132926   1.325   5.001  16.320 -0.0953  0.0049 -0.2937
 3837TIP3    H232927   1.233   5.104  16.382  0.0258  0.0726 -0.2246
 3838TIP3   OH232928   4.662   1.095   2.165 -0.1322  0.2952 -0.2969
 3838TIP3    H132929   4.684   1.046   2.245 -0.3770 -1.5550 -1.3139
 3838TIP3    H232930   4.715   1.054   2.096  0.5988  2.3177 -1.0056
 3839TIP3   OH232931   3.512   1.838   5.507 -0.5673  0.0461 -0.0886
 3839TIP3    H132932   3.541   1.862   5.418 -1.0523  1.3188  0.0735
 3839TIP3    H232933   3.419   1.859   5.508 -0.5219  0.2410  0.7889
 3840TIP3   OH232934   3.196   0.379  14.717 -0.1814 -0.1975  0.2203
 3840TIP3    H132935   3.197   0.288  14.746  1.2763 -0.4121 -0.4145
 3840TIP3    H232936   3.266   0.384  14.652 -1.2669  1.0208 -0.9069
 3841TIP3   OH232937   2.397   3.385   1.359 -0.3787  0.2428 -0.0449
 3841TIP3    H132938   2.316   3.406   1.311  0.5563  1.4752 -1.1632
 3841TIP3    H232939   2.449   3.333   1.297 -0.1532 -0.2493  0.5416
 3842TIP3   OH232940   4.940   5.252   0.778 -0.0537  0.3703 -1.0368
 3842TIP3    H132941   5.022   5.232   0.733 -0.4101  0.1599 -1.6022
 3842TIP3    H232942   4.948   5.344   0.802  0.6134  0.1796 -0.5170
 3843TIP3   OH232943   0.183   2.878   0.419  0.0407  0.1480  1.0362
 3843TIP3    H132944   0.208   2.938   0.349 -0.0558  1.8976  2.4373
 3843TIP3    H232945   0.189   2.791   0.379  2.6230  0.8601 -0.3922
 3844TIP3   OH232946   4.336   3.184   2.347  0.4812 -0.0123  0.5107
 3844TIP3    H132947   4.383   3.197   2.264  1.5381 -1.2548  0.8757
 3844TIP3    H232948   4.345   3.268   2.393 -1.7005  1.3328 -1.3444
 3845TIP3   OH232949   4.949   2.216   4.686 -0.3306 -0.1713 -0.2502
 3845TIP3    H132950   5.033   2.226   4.641 -0.5177 -0.7582 -0.7360
 3845TIP3    H232951   4.973   2.193   4.776  0.0434  0.9779 -0.0370
 3846TIP3   OH232952   1.976   6.505   3.191  0.2125 -0.5739 -0.5715
 3846TIP3    H132953   1.972   6.448   3.268  0.3854 -0.4092 -0.4423
 3846TIP3    H232954   1.964   6.445   3.117 -1.4464 -0.5476 -0.3644
 3847TIP3   OH232955   1.781   4.894   1.719 -0.3144 -0.1393 -0.0200
 3847TIP3    H132956   1.856   4.930   1.672  0.0795  0.2723  0.8900
 3847TIP3    H232957   1.777   4.946   1.800  0.1759 -2.0174  1.2684
 3848TIP3   OH232958   6.218   3.188  11.739 -0.5302 -0.4907 -0.7705
 3848TIP3    H132959   6.301   3.142  11.750 -1.4834 -2.0246  0.2891
 3848TIP3    H232960   6.229   3.237  11.658  1.7319  0.0816 -0.1919
 3849TIP3   OH232961   0.722   3.458  13.160 -0.1836  0.3429  0.8187
 3849TIP3    H132962   0.744   3.548  13.183 -0.9371  0.7600 -0.0516
 3849TIP3    H232963   0.643   3.439  13.211 -1.2300  0.9016 -0.5435
 3850TIP3   OH232964   3.243   1.559  11.465 -0.5941 -0.2389 -0.0390
 3850TIP3    H132965   3.249   1.650  11.438  1.8602  0.6569  3.0437
 3850TIP3    H232966   3.151   1.548  11.491 -0.7192  1.6632  0.4474
 3851TIP3   OH232967   4.566   1.053   5.861 -0.0959 -0.2169 -0.0911
 3851TIP3    H132968   4.588   1.076   5.951  2.5349 -3.4411  0.2865
 3851TIP3    H232969   4.645   1.070   5.811 -0.2225 -1.9505 -0.9718
 3852TIP3   OH232970   6.466   1.718  13.453 -0.4235 -0.0696  0.4423
 3852TIP3    H132971   6.526   1.779  13.412 -1.4304  0.8491  0.2975
 3852TIP3    H232972   6.438   1.762  13.533 -0.0315 -0.9799  1.0942
 3853TIP3   OH232973   6.593   6.137   3.297  0.0582 -0.5777 -0.3962
 3853TIP3    H132974   6.609   6.056   3.344  2.4267  0.6330  1.1237
 3853TIP3    H232975   6.673   6.151   3.246 -0.4893  0.5498 -0.9852
 3854TIP3   OH232976   2.804   5.870  13.643 -0.3663 -0.1246 -0.0295
 3854TIP3    H132977   2.796   5.956  13.683 -0.2685 -0.0416 -0.1865
 3854TIP3    H232978   2.854   5.818  13.706  0.5351  0.2520 -0.4157
 3855TIP3   OH232979   4.133   2.071  12.493  0.4986  0.6249 -0.7158
 3855TIP3    H132980   4.136   2.129  12.569 -0.2750 -0.5804  0.2775
 3855TIP3    H232981   4.224   2.043  12.481  1.2385  3.3804 -2.3520
 3856TIP3   OH232982   1.135   5.164   0.714 -0.2062  0.0652 -0.4421
 3856TIP3    H132983   1.106   5.085   0.669 -0.4489  0.2282 -0.5753
 3856TIP3    H232984   1.130   5.233   0.647  1.2572 -0.0453 -0.6991
 3857TIP3   OH232985   1.653   2.233  12.822 -0.5751  0.0001  0.3984
 3857TIP3    H132986   1.585   2.282  12.868 -0.7334  0.1948 -0.0332
 3857TIP3    H232987   1.642   2.257  12.730 -1.0205 -1.2917  0.0923
 3858TIP3   OH232988   6.739   6.034  15.715 -0.1421  0.0468 -1.0304
 3858TIP3    H132989   6.714   5.958  15.768  0.6295 -0.3784 -1.2553
 3858TIP3    H232990   6.707   6.109  15.765  0.3553 -0.3557 -0.0682
 3859TIP3   OH232991   1.272   0.965   0.595 -0.2537 -0.5211 -0.2937
 3859TIP3    H132992   1.285   0.914   0.515 -0.7496 -0.6712 -0.2787
 3859TIP3    H232993   1.200   0.921   0.640 -1.2322  0.6734 -0.6641
 3860TIP3   OH232994   2.490   2.635   2.547 -0.2376  0.6762  0.2369
 3860TIP3    H132995   2.568   2.622   2.493  0.4372  1.1806  1.0656
 3860TIP3    H232996   2.432   2.563   2.523  0.8321 -0.2091  0.2095
 3861TIP3   OH232997   6.642   6.384   3.513 -0.1349 -0.4486  0.1825
 3861TIP3    H132998   6.717   6.442   3.524  1.0966 -1.3887 -2.3955
 3861TIP3    H232999   6.637   6.368   3.419 -1.4925 -3.1345  0.5950
 3862TIP3   OH233000   5.443   5.520  14.631  0.0734 -0.2440 -0.7384
 3862TIP3    H133001   5.399   5.537  14.547 -0.9991 -0.4286 -0.2322
 3862TIP3    H233002   5.386   5.561  14.696  0.5936 -0.6092 -0.0490
 3863TIP3   OH233003   6.274   0.422  17.172 -0.3366 -0.1651  0.0293
 3863TIP3    H133004   6.232   0.405  17.087  1.5250 -0.0215 -0.9657
 3863TIP3    H233005   6.281   0.336  17.213 -1.0991 -0.2595 -0.0232
 3864TIP3   OH233006   0.075   4.755   4.559  0.6713 -0.0067 -0.1719
 3864TIP3    H133007   0.122   4.835   4.584 -1.1832  0.2840  2.9017
 3864TIP3    H233008   0.061   4.764   4.464  1.9233  2.5022 -0.2092
 3865TIP3   OH233009   1.315   4.948   0.989 -0.0226 -1.2076  0.3237
 3865TIP3    H133010   1.363   4.892   0.929  1.3727 -0.3927  0.6534
 3865TIP3    H233011   1.338   5.038   0.963 -1.7473 -0.7576  0.1794
 3866TIP3   OH233012   6.543   5.985   2.353  0.1795 -0.4192 -0.0047
 3866TIP3    H133013   6.519   5.974   2.445  0.1639  1.1209  0.1990
 3866TIP3    H233014   6.524   5.900   2.313  1.3496 -1.5404  1.6476
 3867TIP3   OH233015   5.197   0.470  10.944 -0.2683  0.5583 -0.2066
 3867TIP3    H133016   5.287   0.440  10.950 -0.8779 -1.2522  0.6989
 3867TIP3    H233017   5.150   0.395  10.906 -1.6577  0.8286  0.9200
 3868TIP3   OH233018   5.190   3.009   1.335  0.0151  0.4006  0.2284
 3868TIP3    H133019   5.204   2.929   1.387  0.1454  0.3668  0.1421
 3868TIP3    H233020   5.160   2.977   1.250 -3.4272  0.5222  1.2284
 3869TIP3   OH233021   0.626   2.723  15.383 -0.4765  0.3304 -0.1630
 3869TIP3    H133022   0.718   2.723  15.355 -0.9273 -1.4208 -1.8091
 3869TIP3    H233023   0.619   2.648  15.443 -0.3684  1.8574  1.8810
 3870TIP3   OH233024   4.239   4.651  11.147 -0.2287 -0.1972 -0.1967
 3870TIP3    H133025   4.255   4.597  11.070  1.9515  1.4073 -0.9752
 3870TIP3    H233026   4.211   4.736  11.112 -0.3068  0.2267  0.8419
 3871TIP3   OH233027   4.131   3.335   4.230  0.3621 -0.5636 -0.5294
 3871TIP3    H133028   4.199   3.402   4.236  0.8714 -1.1548  0.8605
 3871TIP3    H233029   4.150   3.288   4.149 -1.3575  2.3268 -2.8142
 3872TIP3   OH233030   3.046   4.891   1.240 -0.7022 -0.1929  0.4972
 3872TIP3    H133031   3.015   4.876   1.330  0.8520  0.5905  1.2047
 3872TIP3    H233032   3.046   4.986   1.231 -3.1756 -0.2688 -1.2400
 3873TIP3   OH233033   6.346   6.405  11.581  0.2268  0.1617 -0.0903
 3873TIP3    H133034   6.287   6.333  11.556 -0.4125 -0.0356  1.8763
 3873TIP3    H233035   6.428   6.385  11.534  0.8773 -3.2141  2.1269
 3874TIP3   OH233036   1.409   5.343  11.536  0.0461 -0.0815  0.4334
 3874TIP3    H133037   1.500   5.338  11.505 -0.0721  0.5996 -0.0418
 3874TIP3    H233038   1.371   5.260  11.508  0.7421 -0.7548  1.4031
 3875TIP3   OH233039   0.466   2.115  13.456 -0.0392 -0.3007  0.7412
 3875TIP3    H133040   0.392   2.159  13.498 -0.4156  0.5956 -0.8103
 3875TIP3    H233041   0.542   2.144  13.506 -0.4812  0.6790  0.8669
 3876TIP3   OH233042   2.738   3.113  15.258  0.3605 -0.2168 -0.4087
 3876TIP3    H133043   2.702   3.121  15.170 -1.3674  2.2863  0.4266
 3876TIP3    H233044   2.812   3.173  15.260  0.8381 -0.7949 -0.3279
 3877TIP3   OH233045   4.199   1.858  12.096 -0.5599  0.2018 -0.1445
 3877TIP3    H133046   4.159   1.884  12.179  0.0255 -0.6903  0.4366
 3877TIP3    H233047   4.204   1.762  12.101  2.3179  0.2863  0.1511
 3878TIP3   OH233048   3.968   0.017   2.560  0.8126 -0.1097 -0.1694
 3878TIP3    H133049   3.981   0.111   2.544  0.2465 -0.1356 -0.8263
 3878TIP3    H233050   3.980   0.007   2.655  1.2836  0.5555 -0.1524
 3879TIP3   OH233051   5.370   2.165  14.144  0.2041  0.8931 -0.2285
 3879TIP3    H133052   5.344   2.101  14.210  0.1173 -0.7720 -1.7888
 3879TIP3    H233053   5.295   2.171  14.085  1.7692 -1.0238 -2.6055
 3880TIP3   OH233054   4.665   2.630   6.562 -0.5768 -0.8808 -0.4738
 3880TIP3    H133055   4.712   2.553   6.528 -1.0644 -1.8163  0.8771
 3880TIP3    H233056   4.734   2.686   6.597 -0.3827 -2.1953  1.3943
 3881TIP3   OH233057   3.462   1.875   4.930 -0.5349  0.3789 -0.4672
 3881TIP3    H133058   3.454   1.946   4.866  1.2698  0.7216 -0.3574
 3881TIP3    H233059   3.533   1.820   4.897  0.9837  0.9951  1.5828
 3882TIP3   OH233060   4.021   0.931  13.788  0.4709  0.0911  0.0125
 3882TIP3    H133061   4.014   0.960  13.697  1.4999 -2.4249 -0.9480
 3882TIP3    H233062   3.930   0.915  13.814 -0.0335  2.8130  0.2167
 3883TIP3   OH233063   3.420   2.705  12.125 -0.4746 -0.3644  0.0923
 3883TIP3    H133064   3.335   2.726  12.164 -0.5648  1.2849 -0.9047
 3883TIP3    H233065   3.418   2.610  12.114 -2.7881 -0.2390 -1.1713
 3884TIP3   OH233066   4.619   2.778  13.138  0.7766  0.5428 -0.5864
 3884TIP3    H133067   4.524   2.783  13.122  0.7034  0.5617 -0.1714
 3884TIP3    H233068   4.626   2.775  13.233  1.0031 -2.9943 -0.5850
 3885TIP3   OH233069   6.465   2.049   2.927 -0.0255  0.2289  0.2675
 3885TIP3    H133070   6.506   2.136   2.926  1.4684 -0.4059  1.4557
 3885TIP3    H233071   6.388   2.058   2.872  1.4408  1.6535 -1.6773
 3886TIP3   OH233072   0.554   0.704  11.987  0.5015  0.2401  0.2333
 3886TIP3    H133073   0.498   0.627  12.004 -0.5795  0.3359 -2.4416
 3886TIP3    H233074   0.573   0.699  11.894  1.1626  2.7498  0.1777
 3887TIP3   OH233075   1.327   5.214   0.914  0.0780 -0.2244 -0.7083
 3887TIP3    H133076   1.257   5.202   0.850 -0.3216 -2.0705  0.0196
 3887TIP3    H233077   1.401   5.246   0.863 -0.7926  0.1286 -1.7741
 3888TIP3   OH233078   2.272   4.649   1.929  0.5261 -0.1471  0.7412
 3888TIP3    H133079   2.187   4.671   1.890  1.1391 -1.3486 -1.4341
 3888TIP3    H233080   2.253   4.574   1.986 -0.2305  1.0959  2.2245
 3889TIP3   OH233081   1.976   1.434  15.387 -0.3060  0.1321 -0.5175
 3889TIP3    H133082   1.896   1.418  15.337 -0.4958 -1.2232  0.1711
 3889TIP3    H233083   2.023   1.351  15.383  1.1032  0.9273 -0.9459
 3890TIP3   OH233084   5.022   0.908  12.049  0.0746  0.6790 -0.5716
 3890TIP3    H133085   5.031   0.844  12.119 -0.3677 -0.7022 -1.7314
 3890TIP3    H233086   5.016   0.993  12.094  0.8316 -0.0610  0.9868
 3891TIP3   OH233087   6.116   5.396  11.326  0.4126  0.2626 -0.6920
 3891TIP3    H133088   6.169   5.463  11.369  0.1935 -0.1561  0.2614
 3891TIP3    H233089   6.027   5.431  11.329  0.2564 -0.1688  0.0460
 3892TIP3   OH233090   4.365   6.370  14.307 -0.4294 -0.3015  0.2256
 3892TIP3    H133091   4.459   6.378  14.327  0.3459  4.4582 -3.4265
 3892TIP3    H233092   4.359   6.292  14.252  2.3000  1.0579 -2.3457
 3893TIP3   OH233093   3.040   2.947  16.751 -0.0757  0.2066 -0.2304
 3893TIP3    H133094   3.075   2.900  16.675 -0.3427 -1.8672  0.8526
 3893TIP3    H233095   2.960   2.988  16.720 -1.5784 -2.7006 -0.5708
 3894TIP3   OH233096   4.295   6.099   0.970  0.0033 -0.0237 -0.6372
 3894TIP3    H133097   4.349   6.055   0.903 -0.7675 -0.4017 -1.0307
 3894TIP3    H233098   4.341   6.082   1.052  0.7517  0.0968 -1.0206
 3895TIP3   OH233099   4.043   4.721   0.319 -0.2919  0.1305 -0.1986
 3895TIP3    H133100   4.007   4.659   0.255  0.1976 -0.9959  0.5799
 3895TIP3    H233101   4.060   4.800   0.269  0.2767 -0.7885 -1.5178
 3896TIP3   OH233102   6.032   1.153  10.834  0.0720  0.2773 -0.2839
 3896TIP3    H133103   6.051   1.208  10.910  0.3487 -0.0402 -0.1207
 3896TIP3    H233104   5.937   1.158  10.824 -0.6221 -2.9222  2.6244
 3897TIP3   OH233105   0.428   4.457   1.298 -0.0130  0.4716  0.0961
 3897TIP3    H133106   0.433   4.404   1.378  2.0032 -0.9311 -0.8719
 3897TIP3    H233107   0.477   4.537   1.320  0.3453  0.1886  0.3540
 3898TIP3   OH233108   4.543   0.372  13.760  1.3931 -0.7740  0.2199
 3898TIP3    H133109   4.458   0.416  13.766  1.2476 -0.5937 -2.2157
 3898TIP3    H233110   4.583   0.387  13.846 -0.6683 -0.1538  1.1502
 3899TIP3   OH233111   2.849   0.829  17.209  0.1726  0.0662  0.3026
 3899TIP3    H133112   2.762   0.788  17.204  0.4711 -0.4101 -1.3526
 3899TIP3    H233113   2.834   0.919  17.181  0.3339 -0.2516 -0.8693
 3900TIP3   OH233114   5.269   3.187  14.377 -0.4705 -0.1569  0.3396
 3900TIP3    H133115   5.265   3.099  14.338 -2.0313 -0.4281  1.0606
 3900TIP3    H233116   5.242   3.245  14.306 -0.9471 -0.4116  0.3107
 3901TIP3   OH233117   2.814   0.855   1.411  0.1696 -0.7632  0.3022
 3901TIP3    H133118   2.762   0.798   1.467 -1.6799 -0.2136 -0.7421
 3901TIP3    H233119   2.785   0.944   1.434 -0.2019 -0.5042 -1.0659
 3902TIP3   OH233120   1.806   1.877  13.624  0.5944  0.5287  0.3276
 3902TIP3    H133121   1.769   1.873  13.713 -0.8471 -0.9266 -0.2916
 3902TIP3    H233122   1.739   1.837  13.568  2.1249 -0.0171 -1.2123
 3903TIP3   OH233123   3.488   3.708  11.579 -0.1925 -0.3263  0.0517
 3903TIP3    H133124   3.509   3.770  11.509 -0.4838 -0.0569  0.2005
 3903TIP3    H233125   3.405   3.669  11.552 -0.0635 -0.5770  0.0124
 3904TIP3   OH233126   3.827   3.029   3.145 -0.5277 -0.7439 -0.1773
 3904TIP3    H133127   3.799   3.120   3.132  1.8255 -0.0213 -0.7333
 3904TIP3    H233128   3.834   2.993   3.056  1.2120 -0.5387 -0.1639
 3905TIP3   OH233129   1.857   4.536  11.994  0.3263 -0.0965 -0.3795
 3905TIP3    H133130   1.812   4.472  11.938 -1.3994  1.1822 -0.5199
 3905TIP3    H233131   1.905   4.592  11.933  1.0205 -0.6150 -0.3245
 3906TIP3   OH233132   3.235   0.526   1.304  0.0972  0.2578 -0.3901
 3906TIP3    H133133   3.212   0.434   1.319 -1.4349  0.6155 -0.4185
 3906TIP3    H233134   3.193   0.573   1.376  0.1325  1.0306 -0.8678
 3907TIP3   OH233135   1.109   1.850  13.672  0.4827 -0.1946  0.3169
 3907TIP3    H133136   1.132   1.776  13.728  0.7403 -0.3271  0.0412
 3907TIP3    H233137   1.106   1.812  13.584 -1.1148 -0.2676  0.3614
 3908TIP3   OH233138   2.849   3.261   6.086  0.1946  0.0555 -0.1271
 3908TIP3    H133139   2.892   3.177   6.068  0.2775 -0.0415  0.4960
 3908TIP3    H233140   2.772   3.262   6.030  0.0728 -0.5357  0.0330
 3909TIP3   OH233141   2.145   2.929  12.970 -0.0182 -0.0675 -0.2184
 3909TIP3    H133142   2.079   2.883  13.022  0.5826 -1.4166 -0.6173
 3909TIP3    H233143   2.228   2.903  13.009  0.3934 -0.3129 -1.2506
 3910TIP3   OH233144   1.962   4.690  14.918 -0.0402  0.1967 -0.0083
 3910TIP3    H133145   1.900   4.704  14.846  0.2914  2.6818  0.1157
 3910TIP3    H233146   1.908   4.662  14.991 -0.4218 -2.1216 -1.0765
 3911TIP3   OH233147   5.159   3.188  14.859  0.5328  0.3903 -0.4286
 3911TIP3    H133148   5.153   3.278  14.892  0.5535  0.3497 -0.3117
 3911TIP3    H233149   5.239   3.154  14.899 -0.3489 -0.2293  0.8875
 3912TIP3   OH233150   0.778   2.113  11.442 -0.4148 -0.0256  0.1059
 3912TIP3    H133151   0.709   2.095  11.378  0.5336  2.7840 -1.8486
 3912TIP3    H233152   0.749   2.192  11.487  1.1411  0.7670 -0.2291
 3913TIP3   OH233153   6.587   0.622   3.564 -0.3399  0.1699 -0.2355
 3913TIP3    H133154   6.609   0.590   3.477 -0.3100 -1.0928  0.2111
 3913TIP3    H233155   6.523   0.691   3.549 -1.7063 -1.2378 -1.2089
 3914TIP3   OH233156   2.511   0.430   5.743  0.0777 -0.7092  0.0395
 3914TIP3    H133157   2.489   0.509   5.791  0.8592 -0.9604  0.8235
 3914TIP3    H233158   2.597   0.448   5.705  0.6089 -1.4683  0.8690
 3915TIP3   OH233159   4.343   5.409  12.982  0.2777  0.2478 -0.0895
 3915TIP3    H133160   4.277   5.355  13.025  0.5181  0.8259  1.0802
 3915TIP3    H233161   4.349   5.375  12.893 -3.6482  1.9094 -1.2358
 3916TIP3   OH233162   0.178   1.161   0.655 -0.5720  0.2145 -0.4380
 3916TIP3    H133163   0.200   1.218   0.729  0.4222 -0.8619  0.1191
 3916TIP3    H233164   0.228   1.197   0.581 -0.8890  0.7721 -0.3884
 3917TIP3   OH233165   3.707   0.580   1.418  0.4381  0.2530  0.0765
 3917TIP3    H133166   3.773   0.529   1.464 -0.8008 -0.9229  0.6305
 3917TIP3    H233167   3.655   0.621   1.487  0.0350  0.4203 -0.3164
 3918TIP3   OH233168   1.800   0.336   1.823 -0.4653  0.0134  0.1368
 3918TIP3    H133169   1.768   0.327   1.733  2.0235  1.0631 -0.9481
 3918TIP3    H233170   1.842   0.422   1.825 -0.8240  0.2047  2.4726
 3919TIP3   OH233171   2.519   3.913   0.824  0.0074  0.1356 -0.2026
 3919TIP3    H133172   2.461   3.911   0.748  1.3436  1.7252 -1.3466
 3919TIP3    H233173   2.560   3.827   0.826  0.3123  0.2254 -1.6242
 3920TIP3   OH233174   3.886   4.443   5.653  0.3607 -0.3633 -0.2416
 3920TIP3    H133175   3.973   4.402   5.653 -0.0786 -1.3428 -1.2271
 3920TIP3    H233176   3.825   4.370   5.644 -0.6158  0.2665  1.0011
 3921TIP3   OH233177   4.362   0.946  13.054 -0.3637 -0.3616  0.8170
 3921TIP3    H133178   4.401   1.013  12.997  0.9145  0.9065  3.0526
 3921TIP3    H233179   4.319   0.996  13.124 -1.5047 -1.8642  1.2431
 3922TIP3   OH233180   3.773   3.087   5.687  0.4385 -0.1751 -0.1099
 3922TIP3    H133181   3.736   2.999   5.696  1.0887 -0.4388  0.0248
 3922TIP3    H233182   3.834   3.079   5.613 -0.2612  0.4282 -0.7752
 3923TIP3   OH233183   3.392   0.776  12.927 -0.1954 -0.1360  0.8261
 3923TIP3    H133184   3.336   0.843  12.886 -1.5702 -0.9872  1.2254
 3923TIP3    H233185   3.462   0.826  12.968  0.0111  0.9019 -0.6747
 3924TIP3   OH233186   5.597   1.858  13.504  0.0205  0.6254 -0.0961
 3924TIP3    H133187   5.636   1.903  13.429 -0.0853 -0.9411 -1.1454
 3924TIP3    H233188   5.517   1.906  13.522  1.2019  2.4472  0.5674
 3925TIP3   OH233189   2.875   0.429  15.016  0.2025  0.6603  0.1032
 3925TIP3    H133190   2.836   0.342  15.005  0.9865  0.4312 -0.9646
 3925TIP3    H233191   2.842   0.479  14.941  1.3162  0.6877 -0.3875
 3926TIP3   OH233192   1.065   3.431  16.585 -0.5540 -0.1525 -0.4261
 3926TIP3    H133193   0.979   3.401  16.556 -0.6649 -1.0503  0.7444
 3926TIP3    H233194   1.118   3.352  16.588 -0.4001 -0.0287  1.2235
 3927TIP3   OH233195   3.973   3.229   3.460 -0.2527  0.3646 -0.3304
 3927TIP3    H133196   3.879   3.213   3.456 -0.2294  0.5397 -2.2263
 3927TIP3    H233197   4.013   3.146   3.434  0.1511  0.1426  0.9385
 3928TIP3   OH233198   3.742   0.019  16.690  0.2138  0.1091 -0.0657
 3928TIP3    H133199   3.691   0.071  16.628  1.1395  0.2713 -0.7179
 3928TIP3    H233200   3.783  -0.048  16.635 -0.4241 -0.8980  0.6607
 3929TIP3   OH233201   1.547   0.081   4.475 -0.1438  0.0748 -0.0209
 3929TIP3    H133202   1.507   0.168   4.482  0.0080  0.0902  0.7653
 3929TIP3    H233203   1.640   0.096   4.490  0.3371  0.1468 -2.6257
 3930TIP3   OH233204   5.678   3.470  16.652 -0.3804 -0.4313  0.0661
 3930TIP3    H133205   5.677   3.431  16.565  0.4501 -1.3046  0.4229
 3930TIP3    H233206   5.761   3.440  16.690 -0.6414  0.0992  1.0758
 3931TIP3   OH233207   6.157   4.499  16.229 -0.1105  0.2221 -0.1570
 3931TIP3    H133208   6.107   4.461  16.157 -0.6437  0.3583  0.1371
 3931TIP3    H233209   6.148   4.437  16.301  1.5120 -0.5656 -0.5989
 3932TIP3   OH233210   6.767   2.764  16.124 -0.0952 -0.2979  0.4636
 3932TIP3    H133211   6.722   2.816  16.190  1.2286  0.6286  0.6590
 3932TIP3    H233212   6.860   2.775  16.143  0.2900 -0.6977 -1.0428
 3933TIP3   OH233213   3.614   2.463  10.508  0.5558  0.2898 -0.2802
 3933TIP3    H133214   3.573   2.381  10.538  1.4823  0.5136  1.8288
 3933TIP3    H233215   3.545   2.508  10.460 -0.2826 -1.2758 -0.6348
 3934TIP3   OH233216   5.859   6.313   5.467 -0.4043  0.2513 -0.3221
 3934TIP3    H133217   5.911   6.369   5.525 -0.3379 -0.5743  0.4474
 3934TIP3    H233218   5.828   6.242   5.524 -1.8110  0.3608 -0.9166
 3935TIP3   OH233219   1.293   5.448  13.584  0.3354  0.2119  0.4894
 3935TIP3    H133220   1.368   5.497  13.618 -0.1156  0.0681  1.7504
 3935TIP3    H233221   1.308   5.358  13.614  0.4553 -0.1486 -0.6190
 3936TIP3   OH233222   5.895   5.000   5.741 -0.9984 -0.7237 -0.3522
 3936TIP3    H133223   5.840   4.999   5.819 -1.2395 -1.1241 -0.5221
 3936TIP3    H233224   5.981   4.971   5.771 -1.6369 -3.0783 -0.6188
 3937TIP3   OH233225   5.608   1.130  12.644 -0.0982  0.1213 -0.2858
 3937TIP3    H133226   5.660   1.054  12.671 -0.7880  0.2191  1.4818
 3937TIP3    H233227   5.542   1.139  12.713 -1.2603  1.1519 -1.4793
 3938TIP3   OH233228   5.056   4.203   4.913  0.3162  0.1201 -0.5973
 3938TIP3    H133229   5.062   4.277   4.852  1.1713  0.2712 -0.3443
 3938TIP3    H233230   5.131   4.215   4.972 -0.0889 -0.4206  0.0367
 3939TIP3   OH233231   5.901   2.321   6.403 -0.1680  0.1550 -0.4611
 3939TIP3    H133232   5.865   2.279   6.325 -0.1071 -1.1703  0.2147
 3939TIP3    H233233   5.942   2.251   6.453  0.7486  1.1526  0.2607
 3940TIP3   OH233234   4.606   0.084   1.416 -0.1682 -0.2497 -0.5832
 3940TIP3    H133235   4.625  -0.007   1.395  1.0398 -0.0402 -0.4435
 3940TIP3    H233236   4.525   0.103   1.369 -0.6071 -1.4820 -0.3466
 3941TIP3   OH233237   6.267   0.649  13.835 -0.8653 -0.5034  0.1845
 3941TIP3    H133238   6.272   0.554  13.826  0.0379 -0.3114 -2.0898
 3941TIP3    H233239   6.220   0.663  13.917 -1.6042 -2.9087  0.2560
 3942TIP3   OH233240   2.811   2.714   1.559 -0.1879 -0.2080  0.3049
 3942TIP3    H133241   2.829   2.799   1.518  0.8284 -0.2635  0.6006
 3942TIP3    H233242   2.747   2.673   1.501 -0.2734  0.5257 -0.1449
 3943TIP3   OH233243   0.454   5.679   2.261  0.3704  0.1710  0.2513
 3943TIP3    H133244   0.417   5.668   2.349 -0.8817  2.4629  0.0734
 3943TIP3    H233245   0.386   5.725   2.212  1.2619 -0.5835 -1.7862
 3944TIP3   OH233246   3.161   0.449  13.091  0.1928 -0.1693 -0.1940
 3944TIP3    H133247   3.066   0.459  13.102 -0.1235  0.7972 -2.9285
 3944TIP3    H233248   3.198   0.526  13.133 -0.1061 -0.9562  1.6128
 3945TIP3   OH233249   2.565   4.674   0.856 -0.6587  0.4411  0.3370
 3945TIP3    H133250   2.547   4.585   0.826 -1.8857  0.9751 -0.6365
 3945TIP3    H233251   2.510   4.684   0.935 -2.2645  1.0162 -0.8031
 3946TIP3   OH233252   5.913   1.934   3.372  0.2265  0.2469  0.2632
 3946TIP3    H133253   5.962   1.935   3.290 -1.2459  1.2246 -0.6589
 3946TIP3    H233254   5.830   1.978   3.351 -1.0100 -1.2209  1.7797
 3947TIP3   OH233255   0.201   5.152  11.195 -0.1349  0.0380  1.0645
 3947TIP3    H133256   0.231   5.233  11.153 -0.2825 -0.4149  0.0416
 3947TIP3    H233257   0.153   5.182  11.272 -0.0239  0.9221  0.8099
 3948TIP3   OH233258   3.824   1.292   6.218  0.3767 -0.1526  0.4253
 3948TIP3    H133259   3.891   1.344   6.263  1.7189 -1.2327 -0.2577
 3948TIP3    H233260   3.798   1.225   6.282  1.0417 -0.6399  0.1943
 3949TIP3   OH233261   5.850   4.398   5.083 -0.2244  0.3714  0.4648
 3949TIP3    H133262   5.864   4.493   5.077 -1.5206  0.5182 -3.0820
 3949TIP3    H233263   5.777   4.389   5.144 -1.8934  2.0069 -1.1518
 3950TIP3   OH233264   1.512   5.750   1.814 -0.3194  0.3959  0.0080
 3950TIP3    H133265   1.524   5.749   1.719 -0.8409  1.5995 -0.0807
 3950TIP3    H233266   1.567   5.678   1.845  1.5681  1.3201 -1.0055
 3951TIP3   OH233267   3.508   1.652   5.877 -0.2320 -0.1896  0.1877
 3951TIP3    H133268   3.422   1.611   5.867  0.1334 -0.9562  0.1003
 3951TIP3    H233269   3.563   1.608   5.812  0.4107 -0.2349  0.7558
 3952TIP3   OH233270   1.090   1.655   0.869  0.2132  0.7027  0.1623
 3952TIP3    H133271   1.012   1.706   0.848  1.1802  1.7061 -1.1054
 3952TIP3    H233272   1.144   1.714   0.921 -0.8590 -0.7856  3.2586
 3953TIP3   OH233273   4.947   5.741   0.678 -0.0032  0.1438  0.7234
 3953TIP3    H133274   4.931   5.666   0.620  2.4311 -0.1433  0.3414
 3953TIP3    H233275   4.903   5.717   0.760 -1.0778 -0.7147 -0.0699
 3954TIP3   OH233276   3.580   1.641  12.422 -0.1325 -0.1907 -0.1922
 3954TIP3    H133277   3.667   1.674  12.400 -0.8377  0.9181 -1.4853
 3954TIP3    H233278   3.549   1.699  12.491 -1.4491  2.1683 -2.5982
 3955TIP3   OH233279   5.266   0.773  14.866  0.1162 -0.2824 -0.3697
 3955TIP3    H133280   5.360   0.775  14.885 -0.0183 -0.8848  0.4190
 3955TIP3    H233281   5.239   0.865  14.868  0.3482 -0.2194  1.2689
 3956TIP3   OH233282   0.510   1.601  14.460 -0.2984  0.1849 -0.8911
 3956TIP3    H133283   0.490   1.545  14.385 -0.7933 -1.0120  0.0975
 3956TIP3    H233284   0.440   1.583  14.522 -0.1520  1.5082 -0.3050
 3957TIP3   OH233285   0.436   1.512  13.160  0.2663 -0.3553  0.1561
 3957TIP3    H133286   0.459   1.463  13.082  2.2423  2.1048 -0.9421
 3957TIP3    H233287   0.366   1.571  13.132  1.7573  1.3520 -0.2070
 3958TIP3   OH233288   0.644   0.069  11.629  0.5018 -0.1582 -0.8595
 3958TIP3    H133289   0.637   0.008  11.702 -1.0880 -0.3927 -1.1763
 3958TIP3    H233290   0.668   0.015  11.554 -1.5717 -0.5758 -1.2895
 3959TIP3   OH233291   1.298   1.323  16.161 -0.1946 -0.3561  0.0489
 3959TIP3    H133292   1.367   1.261  16.187  2.5923  1.6721 -1.9298
 3959TIP3    H233293   1.219   1.269  16.155  1.1984 -2.8679  2.2458
 3960TIP3   OH233294   1.056   0.704  15.667 -0.1755 -0.4828 -0.1185
 3960TIP3    H133295   1.109   0.625  15.662 -0.7792 -0.9090  0.0708
 3960TIP3    H233296   1.103   0.761  15.727 -0.4279 -1.2553  0.8454
 3961TIP3   OH233297   2.554   0.242  10.890  0.3174  0.3624 -0.4445
 3961TIP3    H133298   2.489   0.302  10.855  0.1514  0.0973 -0.6001
 3961TIP3    H233299   2.636   0.292  10.891  0.2806  0.4374 -1.0229
 3962TIP3   OH233300   5.386   1.782  15.608 -0.3070  0.2552  0.2546
 3962TIP3    H133301   5.454   1.734  15.561 -0.6609  0.2330 -0.2508
 3962TIP3    H233302   5.425   1.867  15.627 -0.4472  0.6060 -0.8974
 3963TIP3   OH233303   1.650   5.276   2.673 -0.2055  0.2003  0.3752
 3963TIP3    H133304   1.567   5.230   2.687  0.0622 -0.4207 -0.0225
 3963TIP3    H233305   1.626   5.355   2.625 -0.8389  1.1736  2.2015
 3964TIP3   OH233306   0.618   0.809   2.076 -0.0147 -0.0660 -0.4829
 3964TIP3    H133307   0.662   0.893   2.061 -1.2693  0.3384 -2.0718
 3964TIP3    H233308   0.534   0.817   2.032 -0.4006 -1.9704 -0.1810
 3965TIP3   OH233309   5.031   0.117  15.823 -0.3665  0.3351 -0.6593
 3965TIP3    H133310   4.966   0.096  15.757 -2.5866  1.1007  1.1463
 3965TIP3    H233311   5.066   0.032  15.850 -0.6472 -0.1012 -1.6314
 3966TIP3   OH233312   3.522   3.456   3.154  0.0359  0.0279 -0.0281
 3966TIP3    H133313   3.550   3.534   3.202 -1.5445  0.3008  0.5310
 3966TIP3    H233314   3.494   3.488   3.069 -2.0441  0.3658  0.7178
 3967TIP3   OH233315   4.009   0.894  13.418 -0.0335 -0.6238 -0.2933
 3967TIP3    H133316   4.087   0.932  13.376 -0.3497 -0.0514 -0.3668
 3967TIP3    H233317   4.036   0.805  13.441 -0.0103 -1.1689 -2.2206
 3968TIP3   OH233318   3.998   5.394   2.044 -0.0308  0.4380 -0.4738
 3968TIP3    H133319   3.959   5.478   2.021  1.9212  1.4688 -0.2074
 3968TIP3    H233320   3.957   5.371   2.128 -0.1295  1.4301 -0.2403
 3969TIP3   OH233321   2.288   1.698  15.271  1.0530  0.0432 -0.4177
 3969TIP3    H133322   2.356   1.692  15.338 -1.9500  0.9038  2.9756
 3969TIP3    H233323   2.267   1.607  15.250  0.3635 -0.3359  1.7384
 3970TIP3   OH233324   1.709   6.629  14.840 -0.2785 -0.4311 -0.3513
 3970TIP3    H133325   1.709   6.605  14.933  0.0214 -0.8273 -0.4526
 3970TIP3    H233326   1.673   6.552  14.795 -0.4215 -0.2415 -0.5636
 3971TIP3   OH233327   6.636   0.054   5.041 -0.7737  0.0066 -0.1427
 3971TIP3    H133328   6.554   0.030   4.998 -0.9226  2.3487 -1.3434
 3971TIP3    H233329   6.697  -0.017   5.019 -1.9967 -0.8967 -0.7151
 3972TIP3   OH233330   1.909   4.675   5.347 -0.4849  0.2433  0.9854
 3972TIP3    H133331   1.935   4.711   5.432  1.7664 -3.3214  2.0089
 3972TIP3    H233332   1.919   4.581   5.356 -0.1929 -0.3506 -3.2222
 3973TIP3   OH233333   5.148   2.621   2.252  0.0284  0.0268  0.0256
 3973TIP3    H133334   5.210   2.631   2.179 -2.0438  0.7280 -1.7592
 3973TIP3    H233335   5.102   2.705   2.255 -1.7445 -0.9143  0.3520
 3974TIP3   OH233336   5.195   1.964   5.198 -0.4127  0.2602  0.0383
 3974TIP3    H133337   5.262   2.029   5.177 -0.4611  0.3984  0.3057
 3974TIP3    H233338   5.227   1.923   5.278 -0.1588 -0.3568 -0.3734
 3975TIP3   OH233339   6.190   0.506  15.566  0.2024  0.3141 -0.3740
 3975TIP3    H133340   6.228   0.482  15.650 -1.2127 -0.9812 -0.0535
 3975TIP3    H233341   6.146   0.589  15.583  0.7908  0.5850 -0.1254
 3976TIP3   OH233342   2.407   4.894   2.044 -0.4453  0.1355 -0.2472
 3976TIP3    H133343   2.426   4.916   1.952 -2.3781  1.8553 -0.3030
 3976TIP3    H233344   2.361   4.810   2.039 -0.9516  0.4349 -0.9281
 3977TIP3   OH233345   3.916   4.649  12.793  0.3384  0.2388 -0.3425
 3977TIP3    H133346   3.908   4.557  12.821 -1.4867  0.3606 -0.3274
 3977TIP3    H233347   3.880   4.699  12.866  1.0025  0.9702 -0.4990
 3978TIP3   OH233348   2.470   5.196   0.545  0.1791 -0.5525 -0.8964
 3978TIP3    H133349   2.466   5.113   0.592 -0.0751 -1.1967 -2.0036
 3978TIP3    H233350   2.421   5.257   0.599  0.3579 -1.1268 -0.0710
 3979TIP3   OH233351   3.258   1.459   5.046  0.3911  0.6241 -0.4402
 3979TIP3    H133352   3.237   1.390   4.983  1.0452  1.1904 -1.2832
 3979TIP3    H233353   3.225   1.424   5.130 -1.1875  0.1984 -1.1896
 3980TIP3   OH233354   2.975   1.982  11.774  0.8707 -0.1423 -0.5567
 3980TIP3    H133355   3.003   2.052  11.715  0.0209 -0.8516 -1.8207
 3980TIP3    H233356   2.974   2.024  11.861  1.3425  1.1337 -1.1424
 3981TIP3   OH233357   6.653   4.699   3.499  0.3729  0.4580  0.1118
 3981TIP3    H133358   6.665   4.692   3.594  0.5065  0.4806  0.0976
 3981TIP3    H233359   6.742   4.695   3.464  0.6470  3.5610  0.1623
 3982TIP3   OH233360   4.209   5.224  14.511  0.1907 -0.4135 -0.6756
 3982TIP3    H133361   4.128   5.215  14.461  0.0259 -0.6166 -0.3708
 3982TIP3    H233362   4.271   5.167  14.466 -0.4722 -2.0824  0.4419
 3983TIP3   OH233363   6.489   3.551   3.560  0.5247 -0.3872  0.4141
 3983TIP3    H133364   6.555   3.602   3.512 -0.2731 -0.2240 -0.5477
 3983TIP3    H233365   6.406   3.580   3.523 -0.0962 -0.6123  1.5948
 3984TIP3   OH233366   6.296   0.018   4.325  0.1820 -0.4304  0.4054
 3984TIP3    H133367   6.337  -0.052   4.276  1.6705 -0.8322  2.1114
 3984TIP3    H233368   6.214  -0.020   4.358  1.9463 -2.2109  3.0921
 3985TIP3   OH233369   2.725   2.320   6.355  0.0756 -0.0525 -0.5663
 3985TIP3    H133370   2.662   2.303   6.425 -2.1884  0.0136 -2.4506
 3985TIP3    H233371   2.747   2.412   6.363 -1.0705  0.2415 -0.5855
 3986TIP3   OH233372   0.760   5.811  10.517  0.3971 -0.7919  0.8905
 3986TIP3    H133373   0.732   5.725  10.487 -0.0424 -0.8077  1.3170
 3986TIP3    H233374   0.852   5.801  10.540  0.2118 -1.2914  1.4389
 3987TIP3   OH233375   2.483   0.235   1.484  0.1905 -0.4481  0.1228
 3987TIP3    H133376   2.579   0.239   1.489  0.4869 -0.0684 -3.2052
 3987TIP3    H233377   2.465   0.213   1.392 -2.9398 -0.0923  0.5440
 3988TIP3   OH233378   2.892   2.768  13.645  0.5411  0.4990  0.3895
 3988TIP3    H133379   2.977   2.807  13.625 -0.1649  2.1852  0.5511
 3988TIP3    H233380   2.850   2.756  13.559  0.9957 -0.5065  0.2964
 3989TIP3   OH233381   1.982   2.106  11.294 -0.2843  0.4766  0.6412
 3989TIP3    H133382   2.059   2.160  11.280 -0.3387  0.3834 -0.0488
 3989TIP3    H233383   2.007   2.046  11.364 -0.3319  1.5956  1.6399
 3990TIP3   OH233384   3.554   4.318   2.148 -0.7405 -0.1137 -0.0286
 3990TIP3    H133385   3.518   4.406   2.160  0.3535  0.4871 -0.8859
 3990TIP3    H233386   3.509   4.264   2.212 -1.1703  1.1597  0.7735
 3991TIP3   OH233387   4.134   2.449   4.233 -0.2034  0.5944 -0.2308
 3991TIP3    H133388   4.087   2.407   4.161  1.4977 -0.4996 -0.7735
 3991TIP3    H233389   4.199   2.384   4.259 -0.3554  1.2303  1.8855
 3992TIP3   OH233390   4.359   4.738   0.685  0.1998  0.2559 -0.4027
 3992TIP3    H133391   4.297   4.672   0.652 -0.3193  0.5035  0.0673
 3992TIP3    H233392   4.356   4.808   0.620 -0.0119  0.2654 -0.3838
 3993TIP3   OH233393   6.038   2.316   3.422 -0.5280  0.6527 -0.0667
 3993TIP3    H133394   6.020   2.239   3.368 -1.2670 -0.8853  2.2050
 3993TIP3    H233395   6.117   2.354   3.385  0.3669 -1.7164 -0.7720
 3994TIP3   OH233396   3.484   1.853  12.197 -0.3980  0.4338 -0.1634
 3994TIP3    H133397   3.508   1.913  12.267 -0.8246  1.1177 -0.5993
 3994TIP3    H233398   3.564   1.843  12.146  0.2025 -0.8322  0.9438
 3995TIP3   OH233399   2.123   3.338   3.998 -0.2745 -0.0835 -0.7062
 3995TIP3    H133400   2.084   3.418   4.033 -0.8710  0.1849 -1.9207
 3995TIP3    H233401   2.212   3.338   4.032 -0.8516  0.0562  0.9247
 3996TIP3   OH233402   6.169   5.973   1.246  0.4681  0.3650 -0.0988
 3996TIP3    H133403   6.152   5.896   1.301  0.8147  0.9398  0.8505
 3996TIP3    H233404   6.138   5.949   1.159 -0.8756 -0.2780  0.5399
 3997TIP3   OH233405   2.427   4.463  16.804 -0.4527 -0.0780 -0.0811
 3997TIP3    H133406   2.410   4.371  16.824  0.8945 -0.5874 -1.1195
 3997TIP3    H233407   2.374   4.512  16.867 -0.0208 -1.5644  1.5009
 3998TIP3   OH233408   1.369   2.213  12.757 -0.5317 -0.1224  0.2944
 3998TIP3    H133409   1.340   2.244  12.671  0.4999  0.8794  0.2710
 3998TIP3    H233410   1.358   2.118  12.754 -0.1876 -0.1472 -1.0883
 3999TIP3   OH233411   5.274   4.276   2.135 -0.3053  0.4109 -0.1763
 3999TIP3    H133412   5.201   4.214   2.141 -0.1920  0.3196  0.3070
 3999TIP3    H233413   5.237   4.354   2.094 -0.4638  0.0434 -0.7365
 4000TIP3   OH233414   1.066   5.922   4.517 -0.2433  0.3000 -0.1347
 4000TIP3    H133415   1.080   5.932   4.611 -0.1352 -0.1236 -0.1019
 4000TIP3    H233416   1.129   5.855   4.491 -0.7032 -0.0374 -0.3914
 4001TIP3   OH233417   1.432   2.659   1.681  0.6129 -0.5860  0.2033
 4001TIP3    H133418   1.358   2.630   1.735 -0.7492  1.0630 -0.6588
 4001TIP3    H233419   1.462   2.739   1.723 -0.4216  0.6794 -1.3451
 4002TIP3   OH233420   1.323   3.335  14.279 -0.2517  0.9227  0.1545
 4002TIP3    H133421   1.232   3.309  14.286  0.0721  0.1861  3.0823
 4002TIP3    H233422   1.342   3.378  14.362  2.3304  0.0283  0.1311
 4003TIP3   OH233423   2.946   5.701  14.698 -0.3166  0.3972 -0.1296
 4003TIP3    H133424   2.861   5.692  14.740 -0.0947 -3.1097 -0.1957
 4003TIP3    H233425   2.989   5.772  14.747 -2.2493  0.4456  1.6516
 4004TIP3   OH233426   6.267   3.648  10.694  0.0629  0.2074  0.1184
 4004TIP3    H133427   6.222   3.731  10.711  0.1661 -0.0637  1.9125
 4004TIP3    H233428   6.360   3.670  10.697  0.0897  0.3156 -1.1094
 4005TIP3   OH233429   1.419   4.982   3.599 -0.7711  0.0179  0.2667
 4005TIP3    H133430   1.474   5.054   3.631 -1.2773  0.1639  0.8221
 4005TIP3    H233431   1.403   5.004   3.507  0.6014 -0.3413 -0.0866
 4006TIP3   OH233432   5.408   0.027   3.711  0.6313  0.5120 -0.4658
 4006TIP3    H133433   5.457  -0.012   3.638 -1.8930  0.5345 -2.2804
 4006TIP3    H233434   5.339  -0.037   3.730 -0.6925  1.9343 -0.3097
 4007TIP3   OH233435   5.813   0.747   2.923 -0.3236  0.2332  0.3265
 4007TIP3    H133436   5.862   0.827   2.907 -0.2236 -0.0386 -0.8340
 4007TIP3    H233437   5.855   0.707   2.999  1.7166 -0.3190 -1.0000
 4008TIP3   OH233438   4.000   4.365   3.382  0.2383  0.6136 -0.2821
 4008TIP3    H133439   3.923   4.398   3.335  0.7476  1.0036 -0.8593
 4008TIP3    H233440   3.965   4.333   3.465 -0.2460  3.1504  0.5981
 4009TIP3   OH233441   1.453   2.833  10.447 -0.6865 -0.0942  0.1007
 4009TIP3    H133442   1.442   2.928  10.454  3.9995  0.6531  0.2396
 4009TIP3    H233443   1.484   2.807  10.534  0.7866 -1.1918 -0.7125
 4010TIP3   OH233444   2.332   6.211   5.285 -0.2416  0.1893 -0.3759
 4010TIP3    H133445   2.238   6.228   5.275 -0.2732 -0.0984 -0.5752
 4010TIP3    H233446   2.340   6.116   5.274  0.0979  0.2377 -0.5481
 4011TIP3   OH233447   2.792   2.385   1.780  0.0125 -0.5109  0.4091
 4011TIP3    H133448   2.877   2.345   1.761  0.7807  0.4969  1.6055
 4011TIP3    H233449   2.729   2.325   1.741  1.3086 -0.5265 -1.8290
 4012TIP3   OH233450   2.893   4.942  14.419 -0.6093 -0.2829 -0.1831
 4012TIP3    H133451   2.877   5.014  14.480  0.8547  0.5435 -0.7371
 4012TIP3    H233452   2.824   4.878  14.439 -0.6964  0.3501  1.7107
 4013TIP3   OH233453   6.635   4.011   4.103 -0.8486 -0.1317  0.0056
 4013TIP3    H133454   6.653   3.942   4.167 -0.6352  0.7139  0.8882
 4013TIP3    H233455   6.546   3.993   4.073 -0.7053 -0.9353  0.0306
 4014TIP3   OH233456   2.004   0.023  16.912  0.0552  0.2088 -0.8281
 4014TIP3    H133457   2.094   0.012  16.944 -0.8049  0.0525  1.7086
 4014TIP3    H233458   1.958   0.067  16.983 -2.4910 -1.9321 -0.9950
 4015TIP3   OH233459   5.328   5.998  11.683 -0.2789  0.1463  0.4816
 4015TIP3    H133460   5.411   5.993  11.731 -0.0967 -1.8317  0.0252
 4015TIP3    H233461   5.329   5.922  11.625 -2.4453  0.0305  0.5179
 4016TIP3   OH233462   4.457   4.595   1.752  0.5680  0.2290  0.0693
 4016TIP3    H133463   4.512   4.661   1.795  3.4399 -1.2837 -1.0191
 4016TIP3    H233464   4.403   4.559   1.822  1.7998  0.9989  1.4716
 4017TIP3   OH233465   3.456   5.940   3.768  0.1768  0.6873 -0.2933
 4017TIP3    H133466   3.460   6.020   3.820 -0.0146  0.3196  0.3003
 4017TIP3    H233467   3.536   5.893   3.791  0.2359  0.6572 -0.5589
 4018TIP3   OH233468   3.598   1.283  12.111  0.6083  1.1722 -0.4743
 4018TIP3    H133469   3.523   1.273  12.053 -0.3294 -0.3295  0.9052
 4018TIP3    H233470   3.563   1.325  12.189  0.5742 -1.7564  1.2038
 4019TIP3   OH233471   6.298   3.740  13.163 -0.0348  0.0972 -0.0358
 4019TIP3    H133472   6.269   3.731  13.072 -1.8378  1.5472  0.3234
 4019TIP3    H233473   6.389   3.767  13.157  1.0817 -3.4082 -1.2799
 4020TIP3   OH233474   0.052   4.199   1.034 -0.2046 -0.0054 -0.3441
 4020TIP3    H133475   0.116   4.256   0.991  0.3734 -0.1359  0.3275
 4020TIP3    H233476   0.071   4.208   1.127 -0.0587 -1.3389 -0.2249
 4021TIP3   OH233477   5.191   0.101   1.219  0.9863  0.2927  0.4947
 4021TIP3    H133478   5.142   0.061   1.148  0.7011  0.9349  0.3225
 4021TIP3    H233479   5.275   0.055   1.219  0.3247 -0.9687  0.9390
 4022TIP3   OH233480   6.127   6.223  17.153  0.0104  0.0272 -0.1679
 4022TIP3    H133481   6.179   6.175  17.088 -0.9225  0.8193 -1.5605
 4022TIP3    H233482   6.068   6.277  17.100 -0.4689  1.0460  1.3676
 4023TIP3   OH233483   5.614   6.308  15.103  0.5305  0.1788 -0.4967
 4023TIP3    H133484   5.526   6.275  15.090 -0.9223  2.7715  1.6622
 4023TIP3    H233485   5.642   6.270  15.187  0.0075  1.9245  0.5318
 4024TIP3   OH233486   1.165   0.378   4.641  0.0733 -0.0074 -0.7866
 4024TIP3    H133487   1.169   0.469   4.670  1.2120 -0.3561  0.2372
 4024TIP3    H233488   1.083   0.344   4.678 -0.7585  0.7773 -1.8254
 4025TIP3   OH233489   4.803   0.089   4.715 -0.4811 -1.1332 -0.2537
 4025TIP3    H133490   4.788  -0.005   4.702 -0.0587 -1.1342 -0.7826
 4025TIP3    H233491   4.805   0.125   4.626 -0.8993 -0.5822 -0.0412
 4026TIP3   OH233492   5.010   4.653  12.154  0.3151  0.3897 -0.1262
 4026TIP3    H133493   5.079   4.680  12.215 -0.6992  0.7383  0.9064
 4026TIP3    H233494   4.990   4.732  12.104  0.2605  0.4483 -0.0126
 4027TIP3   OH233495   6.405   2.843   3.242 -0.1164 -0.1266 -0.3005
 4027TIP3    H133496   6.441   2.794   3.168  1.7329 -0.9626  1.0937
 4027TIP3    H233497   6.423   2.935   3.221  0.2155 -0.3401 -0.9831
 4028TIP3   OH233498   2.276   3.528   4.901 -0.3107  0.1903  0.4013
 4028TIP3    H133499   2.317   3.571   4.976  0.3914 -0.1462  0.2156
 4028TIP3    H233500   2.194   3.493   4.936 -0.4001  0.7751  0.8012
 4029TIP3   OH233501   2.683   3.931  17.110 -0.0088 -0.3484  0.4188
 4029TIP3    H133502   2.593   3.943  17.079  0.1503 -2.0922 -0.8663
 4029TIP3    H233503   2.675   3.870  17.183 -0.1636  2.2155  2.7125
 4030TIP3   OH233504   0.544   2.806   1.839 -0.2338 -0.2641 -0.0803
 4030TIP3    H133505   0.464   2.848   1.872  0.4028  1.3185 -0.4759
 4030TIP3    H233506   0.601   2.800   1.916 -0.7224 -1.4359  0.2122
 4031TIP3   OH233507   1.740   2.051   1.445 -0.1059  0.2238  0.0249
 4031TIP3    H133508   1.678   2.011   1.505 -0.2668  0.3481 -0.0600
 4031TIP3    H233509   1.813   1.989   1.442 -0.5137 -0.2448 -0.3868
 4032TIP3   OH233510   1.741   1.455   4.012  0.1526 -0.2267 -0.1092
 4032TIP3    H133511   1.692   1.414   4.083  0.6421 -1.0634 -0.2408
 4032TIP3    H233512   1.828   1.416   4.017 -0.0780 -1.0403 -1.7659
 4033TIP3   OH233513   6.092   1.379  16.855  0.6065  0.4580  0.1352
 4033TIP3    H133514   6.116   1.393  16.946 -1.5267  0.5581  0.7297
 4033TIP3    H233515   6.113   1.462  16.811  2.5974  0.0686  0.2669
 4034TIP3   OH233516   1.942   1.711  12.224  0.0951 -0.3998 -0.0555
 4034TIP3    H133517   1.921   1.799  12.193  1.2527  0.4439  1.4575
 4034TIP3    H233518   1.875   1.692  12.290 -0.2970 -0.7661 -0.5516
 4035TIP3   OH233519   2.194   5.381  14.387  0.7184  0.6374 -0.6594
 4035TIP3    H133520   2.106   5.414  14.366 -0.2323 -0.1230  1.6952
 4035TIP3    H233521   2.238   5.456  14.427 -0.2422  0.1304  1.5444
 4036TIP3   OH233522   4.023   0.985  15.355  0.6240  0.2988 -0.2402
 4036TIP3    H133523   4.060   0.898  15.376 -0.9005 -0.2468  0.3034
 4036TIP3    H233524   4.082   1.020  15.289  1.9592 -0.6462  0.3845
 4037TIP3   OH233525   1.838   0.618   4.459 -0.6814  0.2791 -0.2861
 4037TIP3    H133526   1.865   0.706   4.430  4.7913 -0.7707  0.6535
 4037TIP3    H233527   1.807   0.631   4.548  2.4830  1.1703  0.8161
 4038TIP3   OH233528   6.526   3.007  11.592 -0.3366  0.5896 -0.1640
 4038TIP3    H133529   6.608   2.960  11.599 -1.8895 -2.4450 -0.5589
 4038TIP3    H233530   6.549   3.090  11.550  2.5203  0.0302  0.1243
 4039TIP3   OH233531   0.986   1.021  13.617  0.1935 -0.8662 -0.4083
 4039TIP3    H133532   1.049   1.020  13.545  0.3117 -0.7333 -0.3078
 4039TIP3    H233533   0.922   1.089  13.592 -0.6935 -1.9465 -1.1681
 4040TIP3   OH233534   0.560   1.568  17.344 -0.3124  0.3719  0.1343
 4040TIP3    H133535   0.486   1.619  17.378 -0.6646 -0.4331  0.5864
 4040TIP3    H233536   0.520   1.504  17.285  0.2909  1.8436 -2.0234
 4041TIP3   OH233537   6.574   5.561   3.711  0.3838 -0.3212  0.0803
 4041TIP3    H133538   6.586   5.651   3.743  0.2171 -0.8058  1.5814
 4041TIP3    H233539   6.652   5.515   3.740 -1.0033 -1.4358  2.3321
 4042TIP3   OH233540   3.922   1.929   0.729  0.5195 -0.4437  0.3965
 4042TIP3    H133541   3.942   1.958   0.640 -0.6101  0.1255  0.3193
 4042TIP3    H233542   4.004   1.945   0.777  1.4506 -1.6299 -0.7164
 4043TIP3   OH233543   2.742   2.579  11.174  0.1110 -0.0922 -0.4233
 4043TIP3    H133544   2.677   2.616  11.234  1.3447 -2.2837  2.4853
 4043TIP3    H233545   2.826   2.599  11.215  1.2605  0.9203 -3.0576
 4044TIP3   OH233546   6.765   0.854  15.453 -0.1969  0.4395  0.2591
 4044TIP3    H133547   6.681   0.877  15.494 -0.3582  0.6423 -0.1807
 4044TIP3    H233548   6.830   0.907  15.500 -0.3720  0.6252  0.2931
 4045TIP3   OH233549   6.773   1.005   1.656 -0.0671 -0.0266 -0.0229
 4045TIP3    H133550   6.794   0.935   1.718  0.3606  0.9838  1.0065
 4045TIP3    H233551   6.685   0.984   1.626  0.2974 -1.3574 -0.2395
 4046TIP3   OH233552   0.911   1.288   0.290 -0.1281  0.0088  0.2532
 4046TIP3    H133553   0.923   1.343   0.212  0.7448 -0.5095  0.0115
 4046TIP3    H233554   0.823   1.253   0.282 -0.3622  0.6469 -0.0516
 4047TIP3   OH233555   0.307   6.611  14.547  0.1455  0.3201  0.0158
 4047TIP3    H133556   0.238   6.672  14.571 -0.1376  0.5138 -1.2056
 4047TIP3    H233557   0.352   6.591  14.629  0.2721  2.1983  0.4413
 4048TIP3   OH233558   5.128   4.951   3.750 -0.4161  0.9089 -0.5220
 4048TIP3    H133559   5.084   4.898   3.816 -1.1499  2.0190 -0.0906
 4048TIP3    H233560   5.145   4.891   3.678 -3.4962  0.5740 -1.1020
 4049TIP3   OH233561   3.408   2.554   3.286  0.0273 -0.0993 -0.2229
 4049TIP3    H133562   3.351   2.568   3.362 -2.7835  2.3862 -2.5441
 4049TIP3    H233563   3.481   2.614   3.300 -0.7214  0.7155  0.3457
 4050TIP3   OH233564   0.149   6.121  15.218  0.1432  0.0586  0.3509
 4050TIP3    H133565   0.223   6.124  15.158 -0.1007 -0.9225 -0.0259
 4050TIP3    H233566   0.072   6.117  15.161 -0.1457  0.0961  0.7326
 4051TIP3   OH233567   5.209   1.109  12.179 -0.2478  0.3573  0.3172
 4051TIP3    H133568   5.253   1.186  12.145 -0.2681  0.2223 -0.0131
 4051TIP3    H233569   5.125   1.142  12.211 -0.3200  0.4487  0.0382
 4052TIP3   OH233570   5.764   0.162  13.177  0.4005 -0.5943 -0.0072
 4052TIP3    H133571   5.717   0.159  13.094  1.4062  0.1133 -0.6215
 4052TIP3    H233572   5.856   0.163  13.153  0.7463 -1.8531  1.1796
 4053TIP3   OH233573   3.936   5.385   3.814 -0.3935 -0.2321 -0.1885
 4053TIP3    H133574   3.923   5.399   3.908  0.3922  1.4194 -0.2768
 4053TIP3    H233575   3.988   5.305   3.808 -2.6229 -1.8065  0.6167
 4054TIP3   OH233576   3.083   2.254  12.693  0.4737  0.4240 -0.1729
 4054TIP3    H133577   3.084   2.323  12.759 -0.0214 -0.7417  1.0968
 4054TIP3    H233578   3.148   2.191  12.724  0.1537 -0.1959 -0.7393
 4055TIP3   OH233579   0.039   6.166   3.536 -0.2972  0.0301  0.3458
 4055TIP3    H133580   0.050   6.193   3.627 -2.0124 -1.3022  1.0095
 4055TIP3    H233581  -0.056   6.162   3.523 -0.1253 -2.0777 -0.7344
 4056TIP3   OH233582   1.672   3.590  13.504 -0.2069 -0.3467  0.0577
 4056TIP3    H133583   1.595   3.567  13.451 -1.4235 -0.8627  1.9421
 4056TIP3    H233584   1.635   3.631  13.583  1.2884 -2.3344  1.9032
 4057TIP3   OH233585   1.194   3.490  11.357  0.0935 -0.9506  0.1906
 4057TIP3    H133586   1.239   3.440  11.288  1.6265 -1.2336  1.3334
 4057TIP3    H233587   1.191   3.580  11.323  0.1543 -1.2174 -0.5445
 4058TIP3   OH233588   3.011   3.010   6.260  0.0032 -0.4474 -1.3880
 4058TIP3    H133589   3.050   2.928   6.289  1.0241  0.4835 -0.0009
 4058TIP3    H233590   3.081   3.074   6.265 -1.5878  1.3012  1.2561
 4059TIP3   OH233591   0.989   1.181   3.982  0.3875 -0.3194 -0.2661
 4059TIP3    H133592   0.941   1.107   3.944  0.5451 -0.8271  0.4868
 4059TIP3    H233593   1.073   1.181   3.935 -0.2722  0.4911 -1.4933
 4060TIP3   OH233594   0.082   2.082   4.835  0.2032  0.4790 -0.5472
 4060TIP3    H133595   0.174   2.061   4.850  0.1415  0.0024 -0.8156
 4060TIP3    H233596   0.077   2.177   4.844  0.6766  0.4820 -0.3057
 4061TIP3   OH233597   3.431   1.755   0.548 -0.4769 -0.0686  0.1240
 4061TIP3    H133598   3.504   1.762   0.486 -0.6030  1.8199  0.1233
 4061TIP3    H233599   3.369   1.823   0.520  0.0519  1.7906  3.0546
 4062TIP3   OH233600   1.693   5.431   3.601 -0.1853  0.5379 -0.3710
 4062TIP3    H133601   1.782   5.435   3.637 -0.1314 -2.9682  0.2061
 4062TIP3    H233602   1.704   5.455   3.509  1.2245  0.9193 -0.1320
 4063TIP3   OH233603   1.862   5.283  14.864 -0.0221  0.6612  0.2399
 4063TIP3    H133604   1.887   5.191  14.853 -0.8350  0.3799  0.6369
 4063TIP3    H233605   1.803   5.300  14.790 -1.3328  0.3087  1.1747
 4064TIP3   OH233606   1.812   0.227  14.941 -0.3894 -0.1096  0.0651
 4064TIP3    H133607   1.729   0.205  14.897  0.1182  0.4306 -1.2029
 4064TIP3    H233608   1.791   0.223  15.034 -1.6342 -0.7995 -0.2186
 4065TIP3   OH233609   3.112   4.251   3.748  0.7964 -0.2465 -0.3140
 4065TIP3    H133610   3.098   4.216   3.836 -0.5755  1.2941  0.1382
 4065TIP3    H233611   3.052   4.201   3.692  1.0768 -0.6829 -0.2207
 4066TIP3   OH233612   6.354   1.374  12.270 -0.1668  0.3009  0.2674
 4066TIP3    H133613   6.283   1.398  12.330 -0.4016 -0.7611  0.4305
 4066TIP3    H233614   6.357   1.279  12.273 -0.9512  0.1403 -2.3042
 4067TIP3   OH233615   0.173   0.428   2.087  0.2984  0.4792  0.8454
 4067TIP3    H133616   0.192   0.499   2.149  0.1114  0.2304  1.1899
 4067TIP3    H233617   0.115   0.370   2.134  1.1160 -0.3456  0.8699
 4068TIP3   OH233618   5.289   5.106  12.213 -0.2447 -0.5957  0.2249
 4068TIP3    H133619   5.229   5.172  12.176 -1.2663 -1.1111  0.9149
 4068TIP3    H233620   5.355   5.093  12.145 -1.4586 -0.7191 -0.9617
 4069TIP3   OH233621   3.375   3.540   1.318 -0.7247  0.1701 -0.3958
 4069TIP3    H133622   3.425   3.531   1.399  0.0196 -0.8954 -0.9499
 4069TIP3    H233623   3.291   3.577   1.346 -0.7767 -0.8823  0.9759
 4070TIP3   OH233624   3.355   5.259   0.876  0.7215 -0.1016 -0.2164
 4070TIP3    H133625   3.331   5.250   0.784 -0.4293 -0.4885  0.1051
 4070TIP3    H233626   3.280   5.303   0.916  0.5505 -1.2760  0.8063
 4071TIP3   OH233627   3.988   6.044  14.017 -0.4230 -0.0641 -0.1629
 4071TIP3    H133628   3.941   6.028  13.935 -0.8013 -0.5286  0.1419
 4071TIP3    H233629   3.936   5.999  14.084 -2.2485  3.2755  0.9599
 4072TIP3   OH233630   6.167   1.690   2.684 -0.6356 -0.5984 -0.2172
 4072TIP3    H133631   6.104   1.664   2.618 -0.8032 -1.3427  0.2211
 4072TIP3    H233632   6.251   1.690   2.638 -0.6736 -1.6457 -0.3082
 4073TIP3   OH233633   0.163   2.662   1.539  0.7329 -0.0757  0.3917
 4073TIP3    H133634   0.175   2.570   1.561  1.6010  0.0366  0.4472
 4073TIP3    H233635   0.236   2.706   1.584  0.1772  0.6665  0.5811
 4074TIP3   OH233636   4.340   4.015   5.141  0.0902  0.0831 -0.1621
 4074TIP3    H133637   4.260   4.057   5.172 -1.6201 -1.3237 -2.3972
 4074TIP3    H233638   4.405   4.086   5.137 -1.4626  1.5786  0.2158
 4075TIP3   OH233639   2.011   4.237  12.569 -0.5470  0.6079 -0.6608
 4075TIP3    H133640   1.917   4.227  12.558 -0.6553  1.5044 -0.6685
 4075TIP3    H233641   2.032   4.319  12.523  0.2816  0.2748 -0.9004
 4076TIP3   OH233642   4.660   3.873  16.364  0.1307 -0.4684 -0.4344
 4076TIP3    H133643   4.736   3.930  16.374 -0.6122  0.8870 -2.0556
 4076TIP3    H233644   4.603   3.896  16.438 -0.6005  1.6958 -1.5881
 4077TIP3   OH233645   6.525   3.938  17.217  0.2411 -0.1243 -0.5175
 4077TIP3    H133646   6.454   3.919  17.278  0.9959 -0.9483  0.1249
 4077TIP3    H233647   6.547   3.853  17.178  3.2365 -0.6258  1.9159
 4078TIP3   OH233648   4.451   0.887   1.149  0.6729 -0.6468 -0.5952
 4078TIP3    H133649   4.512   0.841   1.091  1.4446 -0.1817 -0.1745
 4078TIP3    H233650   4.506   0.918   1.221  0.0978  0.5662 -0.6547
 4079TIP3   OH233651   5.568   5.818   3.006  0.7875  0.4119 -0.9424
 4079TIP3    H133652   5.525   5.759   3.068  1.5030 -1.7551 -2.3611
 4079TIP3    H233653   5.501   5.837   2.941  0.9546 -0.0883 -1.2710
 4080TIP3   OH233654   3.320   0.629  13.196  0.2269  0.3480  0.1715
 4080TIP3    H133655   3.413   0.635  13.176  0.3491 -0.5288  0.4445
 4080TIP3    H233656   3.287   0.718  13.182  1.0497  0.6111 -0.1684
 4081TIP3   OH233657   3.972   5.877  16.738  0.2875  0.3367  0.2553
 4081TIP3    H133658   3.996   5.797  16.785 -1.7568  0.1566  1.0792
 4081TIP3    H233659   3.961   5.942  16.807 -2.1195  0.2357  0.0523
 4082TIP3   OH233660   6.496   3.394  13.409  0.7777  0.6268 -0.3995
 4082TIP3    H133661   6.418   3.343  13.427 -0.0047  1.6955 -0.6848
 4082TIP3    H233662   6.479   3.480  13.447  1.3859  1.1938 -1.3409
 4083TIP3   OH233663   5.088   2.249  14.574  0.2286 -0.1405 -0.0015
 4083TIP3    H133664   5.109   2.321  14.633 -0.1884  0.0794 -0.1141
 4083TIP3    H233665   5.162   2.246  14.512  0.1927  0.2661 -0.0649
 4084TIP3   OH233666   1.533   5.172   5.041 -0.0760 -0.0071  0.8719
 4084TIP3    H133667   1.564   5.091   5.082 -1.1133 -0.7279  0.2758
 4084TIP3    H233668   1.488   5.143   4.962 -1.8575  1.0260  1.4583
 4085TIP3   OH233669   4.580   3.505   4.300  0.2542  0.3416 -0.3563
 4085TIP3    H133670   4.655   3.473   4.249  0.5020  1.5967 -0.8293
 4085TIP3    H233671   4.557   3.432   4.357  0.9156 -0.5801 -1.2293
 4086TIP3   OH233672   2.910   6.686   4.913  0.0034 -0.7270  0.6499
 4086TIP3    H133673   2.858   6.707   4.991  1.3595  0.6200  1.2440
 4086TIP3    H233674   2.926   6.770   4.871 -0.0190 -1.3521 -0.6507
 4087TIP3   OH233675   4.234   1.417  10.886 -0.2132 -0.3149  0.0520
 4087TIP3    H133676   4.285   1.498  10.879 -2.2408  0.9376 -1.4031
 4087TIP3    H233677   4.285   1.353  10.836  0.4162  0.6546 -0.5931
 4088TIP3   OH233678   4.566   4.774  16.786 -0.2673  0.3337 -0.1810
 4088TIP3    H133679   4.645   4.729  16.756 -0.0738  0.6117 -0.0961
 4088TIP3    H233680   4.494   4.715  16.762 -0.0767  0.3253 -0.7497
 4089TIP3   OH233681   1.344   2.555  16.196  0.5928 -0.4639  0.0274
 4089TIP3    H133682   1.344   2.590  16.107  2.8328 -2.1251 -0.7464
 4089TIP3    H233683   1.261   2.510  16.205  1.3711 -2.6167 -2.3381
 4090TIP3   OH233684   2.110   6.356   1.596  1.1233  0.3168  0.3825
 4090TIP3    H133685   2.032   6.301   1.608  1.9667 -0.8798  0.5163
 4090TIP3    H233686   2.104   6.420   1.667  0.2938  0.2093  0.4233
 4091TIP3   OH233687   0.107   2.039   4.079 -0.2344 -0.0542  0.1645
 4091TIP3    H133688   0.044   2.045   4.007  0.0688  0.9101 -0.0481
 4091TIP3    H233689   0.157   2.121   4.073  1.4986 -1.0729 -0.1078
 4092TIP3   OH233690   1.359   6.530  16.389 -0.1650  0.0421 -0.1936
 4092TIP3    H133691   1.424   6.554  16.455 -1.0933  1.0350  0.4083
 4092TIP3    H233692   1.325   6.445  16.418 -1.5378  1.0865  1.4349
 4093TIP3   OH233693   4.430   4.963  13.293  0.3043  0.0076 -0.5334
 4093TIP3    H133694   4.412   4.976  13.386 -0.6685  1.3421 -0.8819
 4093TIP3    H233695   4.470   5.045  13.265  0.1301 -0.1992 -1.4042
 4094TIP3   OH233696   1.075   2.384   1.729  0.5913  0.2074 -0.4999
 4094TIP3    H133697   1.004   2.374   1.793  0.2889  2.2458 -0.4556
 4094TIP3    H233698   1.119   2.465   1.755  1.6179  0.0940 -1.7980
 4095TIP3   OH233699   0.426   0.058  14.317 -0.8919 -0.5783  0.2226
 4095TIP3    H133700   0.397  -0.016  14.265  0.0058 -1.3589  0.8066
 4095TIP3    H233701   0.515   0.036  14.344 -0.6281  0.6831  0.4628
 4096TIP3   OH233702   2.023   5.727   0.740  0.3571 -0.1959  0.0335
 4096TIP3    H133703   2.088   5.661   0.718  0.2402 -0.1115 -0.6031
 4096TIP3    H233704   1.939   5.680   0.734  0.1604  0.2805 -1.7176
 4097TIP3   OH233705   3.872   3.333   2.413  0.3582 -0.5867 -0.0500
 4097TIP3    H133706   3.911   3.259   2.367 -0.8706 -0.4904 -1.3291
 4097TIP3    H233707   3.945   3.392   2.430  1.1614 -1.5468 -0.0858
 4098TIP3   OH233708   1.958   5.494  14.305 -0.0809 -0.0743  0.1294
 4098TIP3    H133709   1.949   5.549  14.383  0.4944  0.4614 -0.1762
 4098TIP3    H233710   1.891   5.526  14.245  1.0449  1.1662 -0.5389
 4099TIP3   OH233711   2.762   6.557   6.033  0.1295  0.6488  0.0690
 4099TIP3    H133712   2.832   6.616   6.062  1.5641 -1.1842  0.6107
 4099TIP3    H233713   2.809   6.481   5.999 -1.6209  0.4372 -2.0338
 4100TIP3   OH233714   1.874   0.801  16.991 -0.2597 -0.0737 -0.0298
 4100TIP3    H133715   1.849   0.815  17.082 -0.6256  0.0295 -0.1465
 4100TIP3    H233716   1.822   0.865  16.941  0.6422  0.5327 -0.2245
 4101TIP3   OH233717   4.815   5.389  14.519 -0.4920  0.4710  0.2906
 4101TIP3    H133718   4.849   5.367  14.606  1.6582  0.4661 -0.5008
 4101TIP3    H233719   4.818   5.306  14.471 -0.5794  0.7157 -0.1414
 4102TIP3   OH233720   3.470   4.143  13.759  0.2029  0.2544  0.0557
 4102TIP3    H133721   3.435   4.191  13.685 -0.9675 -1.0568 -0.2791
 4102TIP3    H233722   3.394   4.102  13.800  1.1552 -1.6411  0.0632
 4103TIP3   OH233723   6.366   4.687   0.432  0.2924  0.1224 -0.5368
 4103TIP3    H133724   6.285   4.659   0.389 -1.6923  1.3439  2.0861
 4103TIP3    H233725   6.416   4.606   0.445 -0.8668 -0.7813 -1.5072
 4104TIP3   OH233726   4.435   6.490  17.277  0.4001 -0.0264 -0.4066
 4104TIP3    H133727   4.380   6.414  17.260  0.8879 -0.8397  1.4070
 4104TIP3    H233728   4.383   6.545  17.336  1.5432 -0.9661  1.6057
 4105TIP3   OH233729   0.366   6.361   1.514  0.7886 -0.3861 -0.0513
 4105TIP3    H133730   0.286   6.312   1.496 -0.1868  0.9182  0.6085
 4105TIP3    H233731   0.395   6.328   1.599 -0.4762  0.9176  0.9157
 4106TIP3   OH233732   4.262   1.862   1.982  0.5521 -0.0185  0.0230
 4106TIP3    H133733   4.203   1.787   1.973  0.9336 -0.4757  1.1855
 4106TIP3    H233734   4.350   1.825   1.977  0.8054  0.7614 -2.5251
 4107TIP3   OH233735   0.452   6.283  15.547  0.5895 -0.0226  0.0910
 4107TIP3    H133736   0.399   6.218  15.592  0.7510  1.0998  1.9968
 4107TIP3    H233737   0.392   6.356  15.532  1.3956  1.0866  1.8843
 4108TIP3   OH233738   5.465   2.129   5.471  0.5339  0.3970  0.4495
 4108TIP3    H133739   5.459   2.218   5.506  2.8173  2.2088 -3.0740
 4108TIP3    H233740   5.550   2.097   5.502  1.5155  1.1146 -1.3239
 4109TIP3   OH233741   2.775   5.718   2.824  0.3035  0.4751  0.2541
 4109TIP3    H133742   2.745   5.695   2.912  0.9586  1.5166  0.7751
 4109TIP3    H233743   2.833   5.646   2.799 -0.6226 -0.2972  0.2665
 4110TIP3   OH233744   3.765   2.759   4.891 -1.0373 -0.0353 -0.6793
 4110TIP3    H133745   3.798   2.680   4.848  1.1619  0.2596  0.3521
 4110TIP3    H233746   3.820   2.830   4.858 -1.7215  0.7668 -0.1364
 4111TIP3   OH233747   5.969   5.357  15.784 -0.2314 -0.9763 -0.2634
 4111TIP3    H133748   5.954   5.294  15.713  0.8127 -1.0291 -0.4471
 4111TIP3    H233749   6.050   5.401  15.760 -1.0086  0.5416 -0.1989
 4112TIP3   OH233750   0.909   4.478   2.307 -0.6099 -0.2831 -0.3684
 4112TIP3    H133751   0.955   4.436   2.234  1.1052  1.4324 -0.3548
 4112TIP3    H233752   0.955   4.561   2.320 -0.5422 -0.6715  2.9163
 4113TIP3   OH233753   3.257   0.736  15.995  0.1048 -0.8068  0.0372
 4113TIP3    H133754   3.203   0.706  15.923 -0.6240 -0.6424  0.5042
 4113TIP3    H233755   3.288   0.655  16.037  1.0026 -0.9059 -0.7923
 4114TIP3   OH233756   0.745   4.573  14.650  0.1414  0.2991  0.4411
 4114TIP3    H133757   0.759   4.654  14.601 -1.9008  0.4248 -0.0263
 4114TIP3    H233758   0.804   4.580  14.724  1.1810  1.4666 -0.4438
 4115TIP3   OH233759   1.473   1.960   5.533  0.3851 -0.2929 -0.4901
 4115TIP3    H133760   1.404   1.897   5.551 -3.6165  4.0243  1.1815
 4115TIP3    H233761   1.540   1.942   5.599 -0.1218 -3.1705 -0.6423
 4116TIP3   OH233762   2.248   5.713  17.181  0.0877 -0.0009  0.1636
 4116TIP3    H133763   2.194   5.727  17.102  0.9322  3.0059  0.0060
 4116TIP3    H233764   2.202   5.761  17.250  1.4837  0.8585  0.5164
 4117TIP3   OH233765   3.936   0.675  10.843 -0.2513 -0.6551 -0.0555
 4117TIP3    H133766   3.869   0.634  10.787 -0.0727  0.6358 -1.2708
 4117TIP3    H233767   3.986   0.730  10.783  0.1102  0.5947  1.3490
 4118TIP3   OH233768   3.765   1.451   1.726 -0.1117 -0.4302 -0.2904
 4118TIP3    H133769   3.834   1.385   1.740  1.4390  0.9653 -1.0582
 4118TIP3    H233770   3.691   1.420   1.779  1.2666 -1.7198  0.9722
 4119TIP3   OH233771   0.018   2.789   1.341  0.1784  0.8947 -0.0962
 4119TIP3    H133772   0.033   2.716   1.402 -0.7756  1.5145  0.9188
 4119TIP3    H233773   0.098   2.841   1.347 -0.3433  1.5799  1.5768
 4120TIP3   OH233774   4.062   4.979   5.821 -0.8247 -0.1923  0.7719
 4120TIP3    H133775   3.991   5.002   5.761 -0.3467  0.6637  0.5299
 4120TIP3    H233776   4.109   4.908   5.777 -1.0777 -0.2510  0.5929
 4121TIP3   OH233777   0.635   4.881   0.290 -0.3412  0.2676 -0.5724
 4121TIP3    H133778   0.676   4.936   0.224  2.6116 -1.4053 -0.3367
 4121TIP3    H233779   0.594   4.810   0.241  1.5808 -0.8046 -0.7338
 4122TIP3   OH233780   6.690   0.859   4.500 -0.2467 -0.5064  0.0814
 4122TIP3    H133781   6.737   0.931   4.457 -1.6959  0.0761 -0.5798
 4122TIP3    H233782   6.630   0.826   4.433  0.2469 -2.2417  0.4236
 4123TIP3   OH233783   5.305   1.552  14.292 -0.4908 -0.2880 -0.0675
 4123TIP3    H133784   5.285   1.461  14.271 -1.9040 -0.1867  0.7047
 4123TIP3    H233785   5.299   1.556  14.387 -0.0320  0.5316 -0.0678
 4124TIP3   OH233786   3.144   5.307   5.037  0.5397  0.0850  0.3744
 4124TIP3    H133787   3.176   5.266   5.118 -0.3509  0.5829  1.0019
 4124TIP3    H233788   3.069   5.253   5.010  0.3499  0.3676  0.3241
 4125TIP3   OH233789   3.324   6.564   1.659 -0.4632 -0.4721 -0.1712
 4125TIP3    H133790   3.231   6.557   1.680 -0.5935 -0.3447 -0.6891
 4125TIP3    H233791   3.330   6.543   1.566  0.3031 -2.5939  0.3057
 4126TIP3   OH233792   1.536   1.184  15.232  0.2257  0.1071  0.6067
 4126TIP3    H133793   1.627   1.172  15.208 -0.3496 -0.2658 -1.6254
 4126TIP3    H233794   1.534   1.176  15.327  2.4951  0.1145  0.6915
 4127TIP3   OH233795   0.696   4.958   5.361 -0.2187 -0.8049  0.1165
 4127TIP3    H133796   0.642   4.951   5.283  0.6962 -1.1991 -0.4985
 4127TIP3    H233797   0.674   4.881   5.413  0.5072 -1.5298 -0.6294
 4128TIP3   OH233798   2.472   3.329  14.976  0.5760  0.2728 -0.4502
 4128TIP3    H133799   2.496   3.240  15.002 -0.9721 -0.0225  0.0924
 4128TIP3    H233800   2.505   3.338  14.887  2.8871  0.0364  0.3053
 4129TIP3   OH233801   2.703   0.573  16.445  0.6928  0.2505 -0.1871
 4129TIP3    H133802   2.763   0.544  16.376  0.4784 -0.4737 -0.0787
 4129TIP3    H233803   2.719   0.667  16.453  1.9063  0.0593 -0.0845
 4130TIP3   OH233804   1.865   4.344  13.369 -0.2344  0.0386 -0.2249
 4130TIP3    H133805   1.803   4.343  13.296  0.2128  1.3886 -0.6598
 4130TIP3    H233806   1.947   4.376  13.330  0.9652 -2.3386  0.1745
 4131TIP3   OH233807   4.254   2.571   3.920  0.0323 -0.1751  0.3897
 4131TIP3    H133808   4.305   2.549   3.842 -1.0888 -1.5793  0.0115
 4131TIP3    H233809   4.248   2.489   3.969 -2.1020 -0.1459  0.2609
 4132TIP3   OH233810   6.583   3.339   0.022  0.4667 -0.0969 -0.2257
 4132TIP3    H133811   6.538   3.306   0.100  0.6226  1.6795  0.6580
 4132TIP3    H233812   6.559   3.431   0.018 -0.1023 -0.2927 -2.7054
 4133TIP3   OH233813   5.745   1.329   5.247 -0.0158 -0.4007  0.0135
 4133TIP3    H133814   5.720   1.291   5.163  0.6440  0.7915 -0.7679
 4133TIP3    H233815   5.665   1.369   5.281 -0.4286 -1.4234  0.2696
 4134TIP3   OH233816   0.626   4.697   4.352 -0.2632 -0.4716  0.3179
 4134TIP3    H133817   0.628   4.781   4.307  0.8364  0.1105  1.4006
 4134TIP3    H233818   0.583   4.638   4.290 -1.3291  0.9401 -0.3428
 4135TIP3   OH233819   0.310   5.431   4.678 -0.1036  0.1273  0.0397
 4135TIP3    H133820   0.256   5.506   4.655  1.1094  1.1820  0.5306
 4135TIP3    H233821   0.369   5.463   4.746  0.6692 -1.1709  0.0168
 4136TIP3   OH233822   2.477   6.221   6.810  0.1697 -0.2725  0.8206
 4136TIP3    H133823   2.547   6.256   6.864  0.0256  0.7013  0.3844
 4136TIP3    H233824   2.466   6.285   6.739 -1.2261 -0.3519  0.9397
 4137TIP3   OH233825   0.539   2.549  13.693 -0.3037  0.4157 -0.3368
 4137TIP3    H133826   0.630   2.548  13.723 -1.0391  1.1914  2.1620
 4137TIP3    H233827   0.487   2.548  13.773 -2.5071  0.8499 -1.6723
 4138TIP3   OH233828   0.096   2.912  17.215 -0.0160 -0.1739 -0.7134
 4138TIP3    H133829   0.184   2.950  17.218  0.1791 -0.6563  0.0695
 4138TIP3    H233830   0.038   2.985  17.235  0.3786 -0.3320  1.1698
 4139TIP3   OH233831   0.918   5.965   2.087 -0.1902 -0.5136 -0.5504
 4139TIP3    H133832   0.994   6.019   2.067  0.4688 -0.9292  0.7574
 4139TIP3    H233833   0.843   6.021   2.065  0.4808  0.2110 -1.0459
 4140TIP3   OH233834   2.101   3.906   1.689 -0.2038  0.4915 -0.5792
 4140TIP3    H133835   2.194   3.918   1.707  0.1432  0.4794 -2.1888
 4140TIP3    H233836   2.074   3.832   1.743  1.4077 -1.2993 -2.1056
 4141TIP3   OH233837   6.087   6.541  16.546 -0.4050 -0.2226 -0.3078
 4141TIP3    H133838   6.030   6.609  16.509 -0.9703 -0.2657  0.4588
 4141TIP3    H233839   6.171   6.553  16.502 -0.6485  0.6398 -0.5545
 4142TIP3   OH233840   2.369   4.770  16.202 -0.0984 -0.2229 -0.2038
 4142TIP3    H133841   2.336   4.801  16.117 -0.5774  0.1146  0.1006
 4142TIP3    H233842   2.434   4.704  16.179 -2.1586 -2.1515 -0.8276
 4143TIP3   OH233843   4.324   6.299   3.228 -0.1763  0.1658  0.1791
 4143TIP3    H133844   4.262   6.339   3.167  1.3541  1.9058 -0.3194
 4143TIP3    H233845   4.342   6.367   3.293  2.0580  0.1593 -0.3444
 4144TIP3   OH233846   5.260   5.034   4.207 -0.0491 -0.0654  0.5595
 4144TIP3    H133847   5.211   5.033   4.124  2.7289  0.8255 -1.2474
 4144TIP3    H233848   5.325   4.964   4.197 -0.1291 -0.4395  2.3587
 4145TIP3   OH233849   2.862   4.605  14.829  0.1913 -0.1071 -0.2022
 4145TIP3    H133850   2.899   4.524  14.794 -1.1122 -1.3988  1.2578
 4145TIP3    H233851   2.769   4.586  14.839 -0.2687  1.8308 -0.4521
 4146TIP3   OH233852   1.293   2.425   2.476  0.0502 -0.2771  0.2986
 4146TIP3    H133853   1.365   2.429   2.412 -0.4549 -0.8142 -0.3091
 4146TIP3    H233854   1.239   2.352   2.446  0.4175 -1.2808  1.9900
 4147TIP3   OH233855   1.337   1.532   4.230  0.1353  0.2359 -0.0327
 4147TIP3    H133856   1.425   1.500   4.247 -0.0515  0.0944  0.7429
 4147TIP3    H233857   1.287   1.453   4.207  0.2929  0.3685 -0.8301
 4148TIP3   OH233858   0.663   2.236   2.794 -0.1843 -0.3110 -0.3922
 4148TIP3    H133859   0.601   2.170   2.764 -0.8476  0.0038  0.2471
 4148TIP3    H233860   0.690   2.206   2.881 -0.6691  0.3593  0.0039
 4149TIP3   OH233861   5.922   6.133  16.067  0.6520  0.2224 -0.0235
 4149TIP3    H133862   5.891   6.073  16.135  1.0004  1.8142  1.5970
 4149TIP3    H233863   5.957   6.075  15.999 -1.9565 -1.5153 -0.0446
 4150TIP3   OH233864   4.165   5.979  16.277 -0.0644  0.5466  0.2630
 4150TIP3    H133865   4.211   5.933  16.348 -0.5984  1.3874  1.1719
 4150TIP3    H233866   4.078   5.939  16.276  0.3920 -0.4728 -0.9106
 4151TIP3   OH233867   6.622   0.153   5.778 -0.3039  0.4716  0.0554
 4151TIP3    H133868   6.684   0.191   5.716 -0.8965  1.4285  0.0349
 4151TIP3    H233869   6.676   0.125   5.851  0.1489  1.4918  0.1299
 4152TIP3   OH233870   6.237   1.538   4.492  0.0490  0.1387  0.3023
 4152TIP3    H133871   6.228   1.611   4.553 -0.2059  0.3691 -0.0140
 4152TIP3    H233872   6.327   1.545   4.460  0.2033 -0.0177  0.6949
 4153TIP3   OH233873   6.455   4.595  16.643 -0.2127  0.0724 -0.4358
 4153TIP3    H133874   6.480   4.670  16.589  1.3073 -0.0219  0.0981
 4153TIP3    H233875   6.404   4.633  16.715 -1.1582  0.3386 -1.2262
 4154TIP3   OH233876   1.405   3.361  15.577 -0.0849 -0.0920  0.8597
 4154TIP3    H133877   1.433   3.275  15.609 -0.7602 -0.1627  1.2940
 4154TIP3    H233878   1.397   3.414  15.655  1.2064  0.6547  0.5146
 4155TIP3   OH233879   3.737   6.741   3.171  0.5181 -1.0415 -0.6160
 4155TIP3    H133880   3.705   6.825   3.203  0.5471 -1.4843  0.6695
 4155TIP3    H233881   3.832   6.749   3.173  0.5374 -1.3390  0.2461
 4156TIP3   OH233882   5.910   3.807   3.620 -0.1475  0.1033 -0.2356
 4156TIP3    H133883   5.989   3.861   3.633 -0.6855  0.9525 -0.4020
 4156TIP3    H233884   5.890   3.817   3.527 -1.1560  0.9218  0.0434
 4157TIP3   OH233885   3.062   2.090  11.252 -0.5654 -0.2292 -0.0494
 4157TIP3    H133886   3.024   2.177  11.248  0.5399  0.2872  0.3774
 4157TIP3    H233887   3.133   2.092  11.188 -1.2574 -1.2045 -0.8926
 4158TIP3   OH233888   1.107   6.149  15.780 -0.2662 -0.4587  0.4725
 4158TIP3    H133889   1.028   6.135  15.727 -0.1476  0.2724  0.0869
 4158TIP3    H233890   1.179   6.126  15.721 -0.2045 -1.5224  0.9598
 4159TIP3   OH233891   4.890   1.348   3.387 -0.8561 -0.1729  0.0692
 4159TIP3    H133892   4.944   1.337   3.465 -1.1960  1.9306  0.6565
 4159TIP3    H233893   4.945   1.398   3.326 -0.7679 -1.3863 -0.9063
 4160TIP3   OH233894   1.524   3.412   5.290 -0.4991  0.1074  0.3896
 4160TIP3    H133895   1.598   3.366   5.332 -0.8412  1.4063  2.5917
 4160TIP3    H233896   1.454   3.347   5.288  0.4850 -0.9729 -1.2316
 4161TIP3   OH233897   3.935   2.616   5.179  0.5476  0.3765  0.3209
 4161TIP3    H133898   3.894   2.664   5.251  1.7185 -0.0370  1.2988
 4161TIP3    H233899   3.866   2.559   5.145 -0.0295  0.6145  1.0752
 4162TIP3   OH233900   1.085   4.351   1.611  0.0205  0.2971  0.7450
 4162TIP3    H133901   1.015   4.296   1.645  0.5466 -1.2480 -0.5623
 4162TIP3    H233902   1.165   4.317   1.651  0.2902  0.4407  0.3432
 4163TIP3   OH233903   0.020   4.538   3.169  0.5674  0.6559  0.4018
 4163TIP3    H133904   0.092   4.540   3.105 -0.1951  1.2281 -0.4517
 4163TIP3    H233905   0.063   4.555   3.253  1.5687  0.0002  0.0429
 4164TIP3   OH233906   5.073   0.252   0.941 -0.2042 -0.3710 -0.1849
 4164TIP3    H133907   5.158   0.214   0.919 -0.0817 -0.2770  0.1132
 4164TIP3    H233908   5.051   0.212   1.025 -0.0406  0.2641  0.1670
 4165TIP3   OH233909   6.041   0.544  12.428  0.0452 -0.3799 -0.5480
 4165TIP3    H133910   5.985   0.619  12.408 -0.9484 -1.0132 -0.2078
 4165TIP3    H233911   5.986   0.486  12.479  0.9732 -1.1053 -0.3458
 4166TIP3   OH233912   4.467   6.317   0.668 -0.4130  0.4013  0.6155
 4166TIP3    H133913   4.508   6.242   0.625 -1.5187 -0.5926  1.2474
 4166TIP3    H233914   4.530   6.345   0.735  2.3064  3.2350 -2.6925
 4167TIP3   OH233915   5.406   2.593  14.413 -0.6127 -0.0244 -0.3913
 4167TIP3    H133916   5.486   2.555  14.451 -0.0499  1.0684 -0.4513
 4167TIP3    H233917   5.383   2.533  14.342  0.2712 -0.2591 -0.4957
 4168TIP3   OH233918   1.866   3.632   3.205  0.1079 -0.4303 -0.0032
 4168TIP3    H133919   1.806   3.658   3.275  1.4870  1.1792  0.6648
 4168TIP3    H233920   1.919   3.562   3.244  0.3719 -0.0636  0.2961
 4169TIP3   OH233921   3.847   6.253  15.312 -0.6417 -0.0753 -0.0029
 4169TIP3    H133922   3.820   6.218  15.228  0.6441  0.7255 -0.7849
 4169TIP3    H233923   3.893   6.180  15.355 -1.2241 -0.4571 -0.0232
 4170TIP3   OH233924   1.935   4.786  14.531 -0.0909  0.2971  0.1283
 4170TIP3    H133925   2.013   4.735  14.508  0.7160 -0.0375  3.1480
 4170TIP3    H233926   1.883   4.726  14.585 -2.0076  0.8424 -1.0249
 4171TIP3   OH233927   1.884   0.215   5.093 -0.0664  0.0998  0.4979
 4171TIP3    H133928   1.850   0.289   5.042 -1.4860 -0.2173  0.9404
 4171TIP3    H233929   1.920   0.254   5.172 -0.6947  0.3292  0.6721
 4172TIP3   OH233930   4.021   1.631  14.626  0.2931  0.1488  0.1779
 4172TIP3    H133931   3.938   1.667  14.594  0.0888 -0.2540  0.2457
 4172TIP3    H233932   4.032   1.669  14.713  0.2505  0.3117  0.1129
 4173TIP3   OH233933   4.245   2.647  15.922 -0.2319 -0.0022  0.0591
 4173TIP3    H133934   4.186   2.719  15.901 -0.1723  0.4002  1.2155
 4173TIP3    H233935   4.189   2.569  15.923 -0.9740  0.4939  2.0620
 4174TIP3   OH233936   0.395   4.197  11.332 -0.1401  0.2928  0.4176
 4174TIP3    H133937   0.351   4.205  11.247 -0.4303  0.5987  0.5949
 4174TIP3    H233938   0.477   4.150  11.312 -0.8879 -0.9761  0.2099
 4175TIP3   OH233939   3.029   4.329  11.658  0.3801  0.1617  0.3147
 4175TIP3    H133940   3.115   4.363  11.632  0.7628 -1.7076 -1.0707
 4175TIP3    H233941   2.967   4.375  11.601  0.7835 -0.5780 -0.7651
 4176TIP3   OH233942   1.131   4.018  16.338 -0.5866 -1.0277  0.3647
 4176TIP3    H133943   1.130   4.112  16.356 -1.2671 -1.3746  2.5187
 4176TIP3    H233944   1.215   4.002  16.297  0.1349  0.3441  1.2168
 4177TIP3   OH233945   6.401   0.328   5.596 -0.2255 -0.3911  0.3173
 4177TIP3    H133946   6.317   0.371   5.611  0.0441 -0.5092  2.6547
 4177TIP3    H233947   6.465   0.399   5.608  0.0416 -0.4858 -0.5483
 4178TIP3   OH233948   5.435   0.574  12.835 -0.5292 -0.6279  0.4853
 4178TIP3    H133949   5.370   0.536  12.895 -0.3406 -0.3631  0.8635
 4178TIP3    H233950   5.517   0.570  12.883 -0.0261 -2.0187 -0.4338
 4179TIP3   OH233951   1.901   2.760  13.928  0.6439 -0.2331 -0.0430
 4179TIP3    H133952   1.967   2.828  13.918  0.5363 -0.1433 -0.1502
 4179TIP3    H233953   1.830   2.802  13.977  0.5127 -0.2211 -0.2401
 4180TIP3   OH233954   0.466   4.302  16.948  0.4455  0.5156  0.1413
 4180TIP3    H133955   0.494   4.212  16.932  1.0414  0.8983 -1.1454
 4180TIP3    H233956   0.547   4.349  16.968  0.1334  0.7597  0.8380
 4181TIP3   OH233957   2.369   2.284   0.948  0.0811 -0.0185 -0.2357
 4181TIP3    H133958   2.316   2.210   0.919  1.6724 -1.7351  1.0075
 4181TIP3    H233959   2.382   2.337   0.868 -2.1846 -0.3078 -0.8648
 4182TIP3   OH233960   1.425   1.143  14.491  0.0542 -0.2569  0.3017
 4182TIP3    H133961   1.494   1.076  14.492  1.7733  1.3976  1.4750
 4182TIP3    H233962   1.448   1.200  14.417  1.1910  1.4015  1.8342
 4183TIP3   OH233963   2.598   4.444  15.115 -0.1679  1.1685  0.0764
 4183TIP3    H133964   2.620   4.536  15.106  0.6879  1.1311  1.5570
 4183TIP3    H233965   2.678   4.397  15.090 -1.3594  0.6561 -3.2872
 4184TIP3   OH233966   2.474   6.323   4.983  0.5865  0.0784  0.3766
 4184TIP3    H133967   2.409   6.300   5.048  0.5575 -0.5149  0.1371
 4184TIP3    H233968   2.426   6.328   4.900  0.6595  0.6386  0.3588
 4185TIP3   OH233969   1.185   0.166   3.046 -0.2565 -0.3520  0.6306
 4185TIP3    H133970   1.248   0.232   3.076  1.2579 -0.2746 -2.3617
 4185TIP3    H233971   1.099   0.205   3.065  0.5782  1.0587  1.7758
 4186TIP3   OH233972   0.256   4.137  16.022 -0.4913 -0.0229 -0.6034
 4186TIP3    H133973   0.297   4.093  16.096  0.5122  0.0539 -1.1018
 4186TIP3    H233974   0.179   4.181  16.060  0.0192  0.0322  0.3957
 4187TIP3   OH233975   4.071   2.585  13.452 -0.0931  0.3249  0.4718
 4187TIP3    H133976   4.148   2.542  13.489  0.9200  1.2980 -0.4363
 4187TIP3    H233977   4.106   2.645  13.387 -1.7109 -0.1612 -0.9269
 4188TIP3   OH233978   5.693   5.453  16.373  0.3273  0.2597  0.3716
 4188TIP3    H133979   5.692   5.433  16.466  0.3536  0.3439  0.3908
 4188TIP3    H233980   5.659   5.374  16.331  2.3319 -0.6322  0.3001
 4189TIP3   OH233981   6.373   1.291   2.010 -0.4639  0.5186 -0.0589
 4189TIP3    H133982   6.433   1.360   2.039  0.3301 -0.1192 -0.1611
 4189TIP3    H233983   6.375   1.296   1.915 -0.0405  0.0525 -0.0769
 4190TIP3   OH233984   2.687   0.892   3.727 -0.4181 -0.0068  0.1345
 4190TIP3    H133985   2.672   0.813   3.780 -0.8754  0.2336  0.3647
 4190TIP3    H233986   2.600   0.920   3.700 -0.1799 -0.1983 -0.8623
 4191TIP3   OH233987   0.442   4.191   0.685 -0.5743 -0.2904 -0.5391
 4191TIP3    H133988   0.361   4.151   0.716 -0.4245 -1.5378 -1.6529
 4191TIP3    H233989   0.486   4.222   0.764 -2.7266  1.6310 -0.0065
 4192TIP3   OH233990   2.887   4.249   5.662  0.0956 -0.2147  0.4606
 4192TIP3    H133991   2.852   4.171   5.621  1.7319 -1.0456  0.5810
 4192TIP3    H233992   2.953   4.282   5.601 -0.6878  1.2041  0.3205
 4193TIP3   OH233993   1.322   5.527  13.316  0.0032  0.0607 -0.2479
 4193TIP3    H133994   1.348   5.449  13.268 -1.7810 -0.1890 -0.8787
 4193TIP3    H233995   1.310   5.498  13.406 -0.3581 -0.3292 -0.4203
 4194TIP3   OH233996   1.885   1.667  13.340  0.7621  0.0260  0.2986
 4194TIP3    H133997   1.813   1.681  13.402  1.1498 -0.2660  0.8279
 4194TIP3    H233998   1.845   1.677  13.254 -0.0632 -0.8201  0.5656
 4195TIP3   OH233999   5.668   5.236   2.286 -0.3195  0.5727 -0.1491
 4195TIP3    H134000   5.672   5.161   2.226 -0.2551  1.0056 -0.6893
 4195TIP3    H234001   5.746   5.288   2.265 -1.8131  2.2854 -1.7704
 4196TIP3   OH234002   6.241   0.463  11.083  0.2071  0.2692  0.2831
 4196TIP3    H134003   6.194   0.405  11.024  0.4827  2.2475 -2.0551
 4196TIP3    H234004   6.322   0.417  11.103 -0.0616 -0.6213 -0.6038
 4197TIP3   OH234005   5.636   6.159  16.126 -1.1385 -0.6065 -0.3147
 4197TIP3    H134006   5.669   6.236  16.080  0.6119 -0.1862  1.4753
 4197TIP3    H234007   5.715   6.108  16.145 -1.8081 -0.9696  1.7397
 4198TIP3   OH234008   5.160   0.072   4.137  0.2928  0.3860 -0.4166
 4198TIP3    H134009   5.184   0.019   4.061  0.3171 -0.3987  0.1261
 4198TIP3    H234010   5.228   0.054   4.202  0.0643  0.7461 -0.0693
 4199TIP3   OH234011   6.536   3.643  16.925 -0.2973 -0.4439 -0.0684
 4199TIP3    H134012   6.503   3.657  16.836  0.1182 -0.3034 -0.2029
 4199TIP3    H234013   6.493   3.563  16.955 -1.4705  0.2356  0.1050
 4200TIP3   OH234014   6.702   4.414   2.590  0.5950 -0.1436  1.0076
 4200TIP3    H134015   6.710   4.322   2.566 -0.2560  0.0676 -0.2149
 4200TIP3    H234016   6.618   4.441   2.554  1.0244  1.2204  0.9594
 4201TIP3   OH234017   3.449   1.764  10.743 -0.3079 -0.9733  0.4212
 4201TIP3    H134018   3.415   1.676  10.755 -0.2310 -1.0413  0.1529
 4201TIP3    H234019   3.519   1.772  10.808  0.6239 -1.6087 -0.4646
 4202TIP3   OH234020   5.538   4.956   4.984  0.4047 -0.2658  0.1233
 4202TIP3    H134021   5.616   4.960   5.039  0.5430  0.0119 -0.0927
 4202TIP3    H234022   5.482   5.028   5.017  0.0919 -0.6725  0.4990
 4203TIP3   OH234023   6.058   0.837  12.628  0.1339  0.1770 -0.7410
 4203TIP3    H134024   5.996   0.900  12.666  1.5730  0.7777  0.7342
 4203TIP3    H234025   6.031   0.829  12.537 -1.9986  0.5343 -0.1951
 4204TIP3   OH234026   4.409   5.717   1.115  0.0958 -0.2574  0.0299
 4204TIP3    H134027   4.327   5.739   1.072  0.0832 -0.0737  0.1455
 4204TIP3    H234028   4.437   5.635   1.074  0.9581  0.7913 -1.5475
 4205TIP3   OH234029   3.804   3.798  13.396  0.0405 -0.4659  0.3794
 4205TIP3    H134030   3.762   3.725  13.350  0.7637  0.6381 -2.1895
 4205TIP3    H234031   3.884   3.759  13.433 -0.3340 -1.2951  0.3460
 4206TIP3   OH234032   3.098   0.882  13.576  0.2171 -0.0705 -0.3817
 4206TIP3    H134033   3.125   0.942  13.646 -0.9238 -1.4554  1.3440
 4206TIP3    H234034   3.141   0.915  13.498  3.0383  0.5302  1.2864
 4207TIP3   OH234035   3.303   2.604   1.391  0.1284  0.0304  0.4043
 4207TIP3    H134036   3.317   2.557   1.473  0.2566 -0.0783  0.3213
 4207TIP3    H234037   3.229   2.558   1.350 -0.2066  0.3423  0.6481
 4208TIP3   OH234038   3.036   0.617  16.588  0.1807  0.3299 -0.5198
 4208TIP3    H134039   2.977   0.585  16.657  0.1419  0.5125 -0.4672
 4208TIP3    H234040   3.000   0.581  16.507  1.2415 -1.3784 -0.2805
 4209TIP3   OH234041   4.660   0.795   2.613 -0.3343  0.1846 -0.1513
 4209TIP3    H134042   4.620   0.862   2.667 -0.0539  1.5926 -1.6260
 4209TIP3    H234043   4.690   0.728   2.675 -1.0948  1.1545  1.2970
 4210TIP3   OH234044   6.728   5.324   5.623  0.5432 -0.6161 -0.0393
 4210TIP3    H134045   6.725   5.242   5.674 -0.8466  0.5435  1.8802
 4210TIP3    H234046   6.818   5.353   5.631  0.7785 -1.3844  0.2244
 4211TIP3   OH234047   6.065   0.025   1.595  0.2002  0.0424  0.0780
 4211TIP3    H134048   5.991  -0.015   1.548  0.7680 -0.4450 -0.4181
 4211TIP3    H234049   6.132  -0.043   1.594  1.7286  1.4648 -2.0020
 4212TIP3   OH234050   4.665   5.537   4.878 -0.2863 -0.2163 -0.1365
 4212TIP3    H134051   4.702   5.608   4.931 -0.7208 -1.6371  2.2182
 4212TIP3    H234052   4.628   5.581   4.802  0.1175  2.0081  0.8637
 4213TIP3   OH234053   1.505   0.381   2.361  0.2666  0.1512 -0.1527
 4213TIP3    H134054   1.521   0.391   2.455 -1.3082  2.1081 -0.0158
 4213TIP3    H234055   1.411   0.396   2.351  0.9180  4.0862 -2.4166
 4214TIP3   OH234056   6.717   6.343  12.741 -0.6678 -0.1943 -0.3372
 4214TIP3    H134057   6.629   6.382  12.747  0.4376  2.7177 -1.3746
 4214TIP3    H234058   6.740   6.351  12.649  0.3819 -1.7842 -0.2509
 4215TIP3   OH234059   5.856   2.096  13.575 -0.1508 -0.1164  0.2511
 4215TIP3    H134060   5.775   2.047  13.589  0.0025 -0.2359  0.7179
 4215TIP3    H234061   5.850   2.171  13.634 -0.2776  0.3034 -0.2889
 4216TIP3   OH234062   0.253   1.523  13.877 -0.6363 -0.7576 -0.2352
 4216TIP3    H134063   0.335   1.571  13.891 -0.8585 -0.6287  0.6562
 4216TIP3    H234064   0.186   1.591  13.874 -0.7741 -0.9021 -0.4920
 4217TIP3   OH234065   2.480   1.738  15.450 -0.6880  0.0671 -0.0804
 4217TIP3    H134066   2.431   1.708  15.527 -1.9560  0.2028 -0.8039
 4217TIP3    H234067   2.551   1.791  15.485 -0.5836 -0.7863  1.0432
 4218TIP3   OH234068   0.526   5.397   2.004  0.3047 -0.1561  0.5110
 4218TIP3    H134069   0.493   5.485   2.025  0.0516 -0.3123  0.7654
 4218TIP3    H234070   0.525   5.394   1.909  0.8677  0.3303  0.4817
 4219TIP3   OH234071   5.039   4.378  15.060 -0.2283 -0.4431  0.2540
 4219TIP3    H134072   5.062   4.471  15.065  0.6974 -0.6968  1.0128
 4219TIP3    H234073   5.097   4.343  14.992 -0.6413 -0.4560 -0.0968
 4220TIP3   OH234074   4.529   5.588  17.162  0.1593  0.7099 -0.0798
 4220TIP3    H134075   4.515   5.682  17.162 -2.0510  0.4802 -1.7749
 4220TIP3    H234076   4.450   5.552  17.122  1.3315 -1.8068 -0.3639
 4221TIP3   OH234077   0.526   3.575  12.744  0.6126  0.3330 -0.1870
 4221TIP3    H134078   0.533   3.512  12.673  0.3548  2.3146 -2.0790
 4221TIP3    H234079   0.579   3.649  12.716 -0.1115  1.4986  1.3440
 4222TIP3   OH234080   4.379   5.433  16.666 -0.8184 -0.1402 -0.6105
 4222TIP3    H134081   4.300   5.456  16.616 -0.1219 -0.7239 -2.0503
 4222TIP3    H234082   4.351   5.362  16.723 -1.4272 -0.0983 -0.8482
 4223TIP3   OH234083   1.647   2.974  12.388  0.3940  0.0953 -0.2091
 4223TIP3    H134084   1.571   2.965  12.330  0.6849  0.8491 -0.7156
 4223TIP3    H234085   1.642   3.063  12.422 -1.1973 -1.0641  3.0092
 4224TIP3   OH234086   3.684   3.074  12.298  0.6799  0.5449  0.3865
 4224TIP3    H134087   3.718   2.985  12.292  2.4223  1.1457  0.8539
 4224TIP3    H234088   3.675   3.090  12.392  0.0356  0.7646  0.2967
 4225TIP3   OH234089   5.994   5.954   5.971  0.0663 -0.2992  0.0205
 4225TIP3    H134090   5.943   5.923   5.896 -0.3942 -3.4641  1.4549
 4225TIP3    H234091   5.934   5.947   6.045  2.1794 -3.5849  1.6670
 4226TIP3   OH234092   0.068   5.110   1.922 -0.4741 -0.2254 -0.3574
 4226TIP3    H134093   0.060   5.196   1.964 -0.4618  0.0109 -0.8345
 4226TIP3    H234094   0.128   5.062   1.979  0.9427  0.6877 -1.0279
 4227TIP3   OH234095   5.182   3.994  14.890 -0.4458 -0.0406 -0.4365
 4227TIP3    H134096   5.196   3.941  14.968  2.3278  1.2819  0.1073
 4227TIP3    H234097   5.138   3.936  14.828 -1.0212 -1.7003  1.4310
 4228TIP3   OH234098   0.872   3.494  13.684  0.2997 -0.3812  0.0894
 4228TIP3    H134099   0.867   3.555  13.611 -0.9845  0.5456  0.9213
 4228TIP3    H234100   0.958   3.511  13.723 -0.5806  1.9947  1.1805
 4229TIP3   OH234101   0.004   2.423  12.401  0.3686  0.0804 -0.4044
 4229TIP3    H134102   0.014   2.358  12.471 -1.3561  0.7366  0.5184
 4229TIP3    H234103  -0.085   2.456  12.412  1.3784  3.1017 -0.4050
 4230TIP3   OH234104   2.244   4.494   0.333  0.0015 -0.8076 -0.0689
 4230TIP3    H134105   2.274   4.539   0.254 -0.2219 -1.9958 -0.8485
 4230TIP3    H234106   2.226   4.565   0.395 -0.8797  0.2255 -1.4436
 4231TIP3   OH234107   2.686   0.914   6.451 -0.0972 -0.5775  0.2054
 4231TIP3    H134108   2.672   0.921   6.545  1.2318 -2.7495  0.6453
 4231TIP3    H234109   2.712   1.002   6.423  0.9424 -0.2250  2.1511
 4232TIP3   OH234110   2.798   1.418   4.842  0.5069  0.4228  0.0401
 4232TIP3    H134111   2.772   1.509   4.825  0.4072  0.7177  1.5713
 4232TIP3    H234112   2.805   1.413   4.937  0.0645 -1.3091  0.0194
 4233TIP3   OH234113   0.487   4.284  14.273 -0.5656  0.0633 -0.2877
 4233TIP3    H134114   0.510   4.193  14.255 -1.6148 -0.2502 -0.0956
 4233TIP3    H234115   0.552   4.313  14.338 -0.4388 -0.6493 -0.0900
 4234TIP3   OH234116   1.755   2.249  12.057  0.4697 -0.4946  0.2575
 4234TIP3    H134117   1.771   2.319  12.120  1.1373 -1.7551  1.5682
 4234TIP3    H234118   1.841   2.210  12.042  0.0404 -1.3636 -0.0264
 4235TIP3   OH234119   0.032   1.712  15.634 -0.5746 -0.0275 -0.1297
 4235TIP3    H134120  -0.044   1.770  15.637  0.5516  1.5834 -1.2054
 4235TIP3    H234121   0.081   1.732  15.714 -1.1766 -0.9727  0.4985
 4236TIP3   OH234122   4.584   0.796   4.494  1.1400 -0.2435  0.1340
 4236TIP3    H134123   4.579   0.853   4.570  0.8534 -0.6666  0.4338
 4236TIP3    H234124   4.604   0.710   4.529  1.5771 -0.3318 -0.3178
 4237TIP3   OH234125   6.692   4.574   5.450  0.2538 -0.6532  0.0764
 4237TIP3    H134126   6.605   4.601   5.479  0.2581  0.3229 -0.7594
 4237TIP3    H234127   6.675   4.508   5.383  0.1372 -0.1267 -0.4172
 4238TIP3   OH234128   5.664   3.401  15.035  0.3059 -0.7226 -0.4215
 4238TIP3    H134129   5.637   3.346  15.108  0.3113 -1.1733 -0.7579
 4238TIP3    H234130   5.750   3.368  15.010  0.8759  0.2360  0.1715
 4239TIP3   OH234131   1.512   0.744  12.465 -0.8261 -0.1335  0.3514
 4239TIP3    H134132   1.433   0.746  12.410 -0.9949  1.2860  0.6068
 4239TIP3    H234133   1.479   0.743  12.555 -0.5459 -1.4913  0.4506
 4240TIP3   OH234134   6.454   1.268   3.756 -0.2076 -0.1273  0.1135
 4240TIP3    H134135   6.387   1.253   3.690 -1.1753  0.4058  0.9532
 4240TIP3    H234136   6.468   1.362   3.756 -0.5447 -0.0689  0.9683
 4241TIP3   OH234137   2.724   3.510  17.109  0.4326  0.3029  0.3827
 4241TIP3    H134138   2.763   3.558  17.036 -0.6511 -0.3543 -0.6795
 4241TIP3    H234139   2.645   3.560  17.130  0.9530  0.7118  1.3932
 4242TIP3   OH234140   5.149   1.614  12.041  0.4555 -0.1350 -0.1342
 4242TIP3    H134141   5.099   1.535  12.063  1.6392 -0.4394  1.7446
 4242TIP3    H234142   5.088   1.669  11.992 -1.1007 -1.2469  0.4778
 4243TIP3   OH234143   2.997   5.645  13.029 -0.0112  0.0008 -0.1543
 4243TIP3    H134144   3.008   5.712  12.962 -1.1895 -0.0806 -0.4382
 4243TIP3    H234145   2.960   5.691  13.104 -0.6507 -0.2844 -0.2863
 4244TIP3   OH234146   0.901   4.327  10.958 -0.3755  0.3345 -0.3107
 4244TIP3    H134147   0.991   4.354  10.973  0.4692 -1.4062 -1.8500
 4244TIP3    H234148   0.864   4.395  10.902  1.3223 -0.8509 -3.0821
 4245TIP3   OH234149   6.653   4.975   3.501 -0.2882 -0.1799 -0.0082
 4245TIP3    H134150   6.636   4.885   3.527 -0.1218 -0.4325 -0.7385
 4245TIP3    H234151   6.686   4.968   3.411  0.6232  0.5342  0.2525
 4246TIP3   OH234152   2.084   2.091   0.405  0.0167 -0.5798 -0.2218
 4246TIP3    H134153   2.157   2.097   0.467 -0.4007 -1.4374  0.3729
 4246TIP3    H234154   2.083   1.999   0.378  1.9874  0.2437 -3.7726
 4247TIP3   OH234155   4.946   2.772   5.787  0.1220 -0.5730  0.3867
 4247TIP3    H134156   4.878   2.839   5.798  1.0992  0.2776  1.5436
 4247TIP3    H234157   4.945   2.752   5.694 -0.1735  1.1037 -0.0139
 4248TIP3   OH234158   4.689   4.632  14.251  0.1254  0.1433  0.1599
 4248TIP3    H134159   4.608   4.590  14.279  0.0419  1.5043  2.1241
 4248TIP3    H234160   4.675   4.648  14.157 -1.1810 -1.1252  0.0905
 4249TIP3   OH234161   3.237   3.164  16.294  0.0826 -0.4931  0.0216
 4249TIP3    H134162   3.295   3.102  16.251  0.0337 -0.6070  0.1197
 4249TIP3    H234163   3.162   3.173  16.236  0.4277  0.0428 -0.3546
 4250TIP3   OH234164   4.223   1.801  13.340  0.5866  0.1171  0.8738
 4250TIP3    H134165   4.153   1.866  13.333  1.5060  0.9954 -1.7208
 4250TIP3    H234166   4.192   1.726  13.291  0.7690 -0.1755  1.2029
 4251TIP3   OH234167   4.020   4.487   1.268  0.4649  0.3720 -0.4254
 4251TIP3    H134168   3.972   4.549   1.323 -0.6724  0.0926 -1.0655
 4251TIP3    H234169   3.973   4.488   1.185  1.2043 -0.3920 -0.8650
 4252TIP3   OH234170   2.369   4.514  10.958  0.2845 -0.0996 -0.2341
 4252TIP3    H134171   2.319   4.440  10.990 -0.0603  0.4255  0.4776
 4252TIP3    H234172   2.303   4.577  10.928  0.5656  0.0001 -0.6633
 4253TIP3   OH234173   5.974   2.435  13.127 -0.0279  0.2654 -0.8014
 4253TIP3    H134174   6.063   2.470  13.135  0.0578 -0.4284  2.9993
 4253TIP3    H234175   5.918   2.512  13.129  0.4064  0.5755  0.5540
 4254TIP3   OH234176   2.126   3.912  14.003  0.3869  0.6501 -0.2042
 4254TIP3    H134177   2.134   3.982  14.068 -1.2903  0.0289  0.7279
 4254TIP3    H234178   2.038   3.878  14.015  1.1089 -1.5661 -0.7221
 4255TIP3   OH234179   6.511   6.563  11.186 -0.0291  0.4617  0.2057
 4255TIP3    H134180   6.486   6.528  11.272 -0.9899 -0.3432 -0.3893
 4255TIP3    H234181   6.531   6.486  11.133  0.8062  0.9653 -0.2349
 4256TIP3   OH234182   3.262   3.688   5.360 -0.6862 -0.2249 -0.9032
 4256TIP3    H134183   3.208   3.767   5.356  1.2516  1.1415 -1.6273
 4256TIP3    H234184   3.336   3.713   5.416 -1.1107 -2.2800  0.7053
 4257TIP3   OH234185   6.515   2.538  16.963  0.7080  0.2472 -0.3845
 4257TIP3    H134186   6.449   2.543  17.032  0.7015  1.8386 -0.4664
 4257TIP3    H234187   6.501   2.453  16.923 -0.7562  0.2092  0.1311
 4258TIP3   OH234188   3.622   3.384  15.441  0.1510 -0.0880 -0.6391
 4258TIP3    H134189   3.592   3.350  15.525 -0.6958 -1.3718 -1.4390
 4258TIP3    H234190   3.641   3.477  15.458  2.7351 -0.9152  1.6381
 4259TIP3   OH234191   6.272   6.381   5.220  0.2837 -0.2873  0.2031
 4259TIP3    H134192   6.243   6.464   5.260  1.5407 -1.1265  3.1001
 4259TIP3    H234193   6.364   6.374   5.244  0.9372 -1.2899 -2.3305
 4260TIP3   OH234194   0.746   4.435  15.476 -0.8070 -0.1799  0.0350
 4260TIP3    H134195   0.753   4.504  15.542  3.8006 -1.4280  1.1861
 4260TIP3    H234196   0.739   4.482  15.393 -0.1815  1.6074  0.9421
 4261TIP3   OH234197   2.051   5.165   3.981  0.0420 -0.1528  0.6332
 4261TIP3    H134198   2.037   5.248   3.935  0.0616 -0.5241 -0.0504
 4261TIP3    H234199   1.971   5.115   3.966 -0.1956 -0.0572  1.5009
 4262TIP3   OH234200   6.519   4.011  15.850 -0.1481  0.7140  0.3242
 4262TIP3    H134201   6.609   4.039  15.838 -0.0368  0.0737 -0.4429
 4262TIP3    H234202   6.526   3.924  15.890 -0.2877 -0.6804 -2.4349
 4263TIP3   OH234203   3.219   2.303  16.351  0.2988 -0.1587 -0.0560
 4263TIP3    H134204   3.240   2.395  16.366 -0.6145  0.5432 -2.5819
 4263TIP3    H234205   3.303   2.261  16.332  0.6217  0.3338  0.2757
 4264TIP3   OH234206   1.882   4.757  11.457  0.2241  0.2625  0.1581
 4264TIP3    H134207   1.916   4.669  11.442  1.6260 -0.1984  4.5263
 4264TIP3    H234208   1.956   4.815  11.441  0.5718  0.1494  1.2477
 4265TIP3   OH234209   5.318   5.694   4.471 -0.1099 -0.0720 -0.5979
 4265TIP3    H134210   5.331   5.653   4.557 -2.8070 -0.8535 -0.4800
 4265TIP3    H234211   5.350   5.629   4.409 -1.2382 -0.9855 -0.2656
 4266TIP3   OH234212   4.579   5.731  15.521 -0.0606 -0.1084 -0.1169
 4266TIP3    H134213   4.639   5.782  15.467  0.8960 -1.1964 -0.1100
 4266TIP3    H234214   4.537   5.797  15.577  0.9013  0.7180 -0.3207
 4267TIP3   OH234215   0.606   3.752   0.995 -0.5268  0.1226 -0.2395
 4267TIP3    H134216   0.521   3.732   0.956 -0.7404 -1.1029  0.8038
 4267TIP3    H234217   0.587   3.769   1.087  0.4000 -0.5549  0.0849
 4268TIP3   OH234218   0.161   0.846   2.123 -0.2328  0.2793  0.5365
 4268TIP3    H134219   0.070   0.815   2.125 -0.0070 -0.6247 -1.3884
 4268TIP3    H234220   0.212   0.774   2.161 -0.0068 -0.6228 -1.3869
 4269TIP3   OH234221   0.071   3.124   5.748  0.3115  0.3975 -0.5853
 4269TIP3    H134222   0.102   3.052   5.694 -0.2032  0.7973 -1.4251
 4269TIP3    H234223  -0.003   3.161   5.700 -1.4950 -0.4977  1.3323
 4270TIP3   OH234224   5.734   6.448   0.641 -0.7373 -0.2953  0.4633
 4270TIP3    H134225   5.729   6.361   0.681  1.0398  0.1440  1.7748
 4270TIP3    H234226   5.683   6.504   0.699 -1.2075 -0.3163  0.0693
 4271TIP3   OH234227   2.660   1.315   5.351 -0.0183 -0.2367  0.3252
 4271TIP3    H134228   2.728   1.254   5.325  0.1798 -0.4054  1.1948
 4271TIP3    H234229   2.707   1.388   5.392 -0.2225  0.7069 -1.0434
 4272TIP3   OH234230   5.601   5.090  13.131  0.4304  0.0052  0.0849
 4272TIP3    H134231   5.612   5.070  13.223  1.0284  1.6654  0.4065
 4272TIP3    H234232   5.689   5.090  13.095  0.3751  1.1792 -0.0705
 4273TIP3   OH234233   3.703   5.143  12.239  0.4271 -0.1009  0.0992
 4273TIP3    H134234   3.722   5.121  12.331 -3.2326 -3.5762  0.3088
 4273TIP3    H234235   3.702   5.058  12.195 -4.5082  0.5229 -1.5622
 4274TIP3   OH234236   1.453   1.624   5.010  0.6297 -0.3365 -0.4883
 4274TIP3    H134237   1.425   1.554   5.070 -1.0295  0.7719  0.0985
 4274TIP3    H234238   1.376   1.641   4.957  1.5409 -0.0629 -1.7613
 4275TIP3   OH234239   5.194   2.209  11.974 -0.8183 -0.3887 -0.6509
 4275TIP3    H134240   5.108   2.244  11.995  0.1382  2.2866 -0.8031
 4275TIP3    H234241   5.202   2.220  11.879 -0.5428 -1.1923 -0.7249
 4276TIP3   OH234242   5.261   3.940   6.840  0.2425  0.0678 -0.0627
 4276TIP3    H134243   5.213   3.893   6.772  0.4270  0.5625 -0.5411
 4276TIP3    H234244   5.338   3.976   6.795  0.8734 -0.4137  0.6167
 4277TIP3   OH234245   5.069   4.885  16.302  0.0426 -0.6691 -0.1077
 4277TIP3    H134246   4.981   4.896  16.339  0.9195 -1.8958  2.6054
 4277TIP3    H234247   5.091   4.971  16.267 -1.1360  0.4787  1.7872
 4278TIP3   OH234248   3.648   0.424   6.058 -0.0166  0.2475 -0.5204
 4278TIP3    H134249   3.735   0.463   6.068  0.6521 -0.4346 -3.0546
 4278TIP3    H234250   3.588   0.489   6.097  1.3737  2.0516 -1.2511
 4279TIP3   OH234251   1.757   0.347  13.797  0.2788 -0.1888 -0.0645
 4279TIP3    H134252   1.677   0.396  13.819  0.1346 -0.2809 -0.3734
 4279TIP3    H234253   1.800   0.401  13.731 -0.0456 -0.6281 -0.6484
 4280TIP3   OH234254   1.522   3.704   6.291  0.2417 -1.1196  0.0376
 4280TIP3    H134255   1.466   3.679   6.364  1.9710  0.9518  2.2253
 4280TIP3    H234256   1.572   3.625   6.271 -0.1986 -1.7066  1.1705
 4281TIP3   OH234257   3.519   1.952  13.891  0.7989 -0.0560  0.9715
 4281TIP3    H134258   3.429   1.955  13.925  0.6098  0.8093  0.3971
 4281TIP3    H234259   3.521   1.874  13.836  0.8877 -1.0360  2.2863
 4282TIP3   OH234260   2.743   1.694   4.935  0.0686 -0.1995  0.9646
 4282TIP3    H134261   2.774   1.670   5.022  4.0520 -1.0054 -0.4542
 4282TIP3    H234262   2.815   1.745   4.897 -1.5558  0.2383 -1.8390
 4283TIP3   OH234263   5.480   1.119  10.772 -0.0232  0.4753 -0.2224
 4283TIP3    H134264   5.476   1.027  10.746  0.3633  0.4490 -0.1983
 4283TIP3    H234265   5.402   1.158  10.735  0.6106  0.4883 -1.5850
 4284TIP3   OH234266   1.590   4.009   6.589 -0.0920  0.2446 -0.6965
 4284TIP3    H134267   1.520   4.058   6.546 -1.8844 -1.9308 -0.4430
 4284TIP3    H234268   1.584   4.034   6.681 -0.3474  0.2986 -0.7274
 4285TIP3   OH234269   5.434   5.376   5.372 -0.1958 -0.4065 -0.1570
 4285TIP3    H134270   5.502   5.325   5.329  0.8817  1.5318 -0.8595
 4285TIP3    H234271   5.481   5.428   5.438 -1.4048 -1.0219  1.2629
 4286TIP3   OH234272   4.182   5.064   1.895 -0.3582 -0.3751 -0.2889
 4286TIP3    H134273   4.125   5.077   1.971  4.1332  1.9346  3.1386
 4286TIP3    H234274   4.188   5.151   1.854  0.9190 -0.4711 -0.3490
 4287TIP3   OH234275   5.921   6.621  11.188 -0.0269 -0.4320 -0.4137
 4287TIP3    H134276   5.870   6.638  11.267  2.2957  1.3328  0.8233
 4287TIP3    H234277   5.963   6.537  11.204  1.3539  0.4467  0.8297
 4288TIP3   OH234278   2.232   4.750  11.534  0.2710 -0.1005  0.1261
 4288TIP3    H134279   2.220   4.680  11.469  2.6313  0.8213 -1.4237
 4288TIP3    H234280   2.198   4.828  11.491  1.3925  0.4348  0.2068
 4289TIP3   OH234281   0.251   2.228  16.655  0.1710 -0.0476  0.3543
 4289TIP3    H134282   0.283   2.238  16.566  1.3093 -2.2640  0.4380
 4289TIP3    H234283   0.186   2.158  16.650 -1.4164  1.3182  0.9507
 4290TIP3   OH234284   2.033   5.360   0.483  0.1124 -0.0847 -0.5890
 4290TIP3    H134285   1.952   5.408   0.466  0.3784  0.3595 -0.6088
 4290TIP3    H234286   2.012   5.270   0.460 -0.4985 -0.0451 -0.2205
 4291TIP3   OH234287   3.590   3.434  13.714 -0.0213 -0.1139 -0.1639
 4291TIP3    H134288   3.508   3.400  13.750 -0.6478  0.6937 -0.7801
 4291TIP3    H234289   3.569   3.525  13.690 -0.1902 -1.0119 -4.1335
 4292TIP3   OH234290   5.353   6.041   4.752 -0.2030  0.0409  0.4132
 4292TIP3    H134291   5.435   6.070   4.710 -0.5943 -1.2718 -1.3714
 4292TIP3    H234292   5.286   6.053   4.685 -0.9957 -1.4548  0.8837
 4293TIP3   OH234293   4.904   4.273   5.152  0.3154 -0.0211 -0.4429
 4293TIP3    H134294   4.958   4.237   5.082  1.2164 -0.3228  0.3906
 4293TIP3    H234295   4.964   4.286   5.226 -0.6899 -0.1398  0.4288
 4294TIP3   OH234296   0.357   2.396   2.704  0.5010  0.0452 -0.2497
 4294TIP3    H134297   0.394   2.311   2.727  0.9833 -0.3410 -2.3003
 4294TIP3    H234298   0.265   2.389   2.729  0.5217 -1.1070 -0.4516
 4295TIP3   OH234299   3.998   0.041   5.080 -0.3764 -0.2202 -0.1995
 4295TIP3    H134300   3.992   0.020   5.173  0.3765 -0.2801 -0.1578
 4295TIP3    H234301   3.999   0.137   5.077 -0.6626 -0.2172 -0.1620
 4296TIP3   OH234302   2.977   2.577  12.445  0.2055  0.4823  0.2290
 4296TIP3    H134303   2.972   2.669  12.421  0.1331  0.5383  0.4607
 4296TIP3    H234304   3.067   2.565  12.476  0.1640  0.5120  0.3588
 4297TIP3   OH234305   3.710   6.337   5.683 -0.0731 -0.1013  0.2342
 4297TIP3    H134306   3.666   6.270   5.736 -1.1462 -0.6196 -1.2439
 4297TIP3    H234307   3.659   6.416   5.696  0.0570 -0.0565  0.4789
 4298TIP3   OH234308   2.348   2.597   1.489  0.1822 -0.5552 -0.1374
 4298TIP3    H134309   2.330   2.614   1.581  0.6807  1.4998 -0.3535
 4298TIP3    H234310   2.441   2.615   1.479  0.0870 -0.5240 -1.0638
 4299TIP3   OH234311   4.194   2.883  12.419  0.1442 -0.5436  0.0915
 4299TIP3    H134312   4.256   2.954  12.403 -3.3369  3.3615  1.9163
 4299TIP3    H234313   4.131   2.889  12.347 -0.6642 -1.1853  0.7280
 4300TIP3   OH234314   5.031   6.139  13.446  0.4138  0.1853  0.3262
 4300TIP3    H134315   4.999   6.212  13.393 -0.0573 -0.4594 -0.2981
 4300TIP3    H234316   4.963   6.072  13.437  0.2590  0.0883  1.8401
 4301TIP3   OH234317   0.190   5.137  13.478  0.0529  0.0834 -0.1272
 4301TIP3    H134318   0.176   5.074  13.407 -1.5610 -0.3433  0.5256
 4301TIP3    H234319   0.270   5.183  13.454  1.4879 -2.4014 -0.5036
 4302TIP3   OH234320   4.076   0.484  16.873 -0.3394 -0.2014 -0.0862
 4302TIP3    H134321   4.035   0.456  16.791  3.1466 -2.4329 -1.3015
 4302TIP3    H234322   4.138   0.553  16.847 -0.7958  0.7029  1.1062
 4303TIP3   OH234323   4.856   1.451  10.778 -0.4014  0.1378  0.1455
 4303TIP3    H134324   4.781   1.449  10.717 -0.9412  1.0169  0.7557
 4303TIP3    H234325   4.904   1.370  10.759 -0.8610  0.1178 -1.0621
 4304TIP3   OH234326   4.826   1.334   5.558  0.4068 -0.2875  1.0242
 4304TIP3    H134327   4.911   1.313   5.521  0.3836 -2.0680  1.9111
 4304TIP3    H234328   4.805   1.420   5.521  0.4995 -1.7366 -2.8970
 4305TIP3   OH234329   2.242   0.384  16.722  0.0717 -0.0502 -0.1106
 4305TIP3    H134330   2.276   0.317  16.661 -0.3813  0.2180 -0.6631
 4305TIP3    H234331   2.298   0.460  16.707  1.7415 -0.8089  1.7653
 4306TIP3   OH234332   2.073   6.392  12.789 -0.6202  0.3114  0.2669
 4306TIP3    H134333   2.037   6.447  12.858 -5.0701 -1.1830 -0.5394
 4306TIP3    H234334   2.079   6.305  12.829  0.5887  0.1653 -0.1767
 4307TIP3   OH234335   6.043   5.771  11.376 -0.6630 -0.3100  0.2468
 4307TIP3    H134336   6.027   5.732  11.463 -1.6454 -0.3932  0.0419
 4307TIP3    H234337   6.012   5.705  11.314 -0.5923  0.0232 -0.1480
 4308TIP3   OH234338   4.248   1.383  11.154 -0.2474 -0.4068  0.4495
 4308TIP3    H134339   4.240   1.400  11.060 -0.6528 -1.2020  0.3326
 4308TIP3    H234340   4.325   1.325  11.161 -0.4350 -0.6431  0.5659
 4309TIP3   OH234341   2.021   2.907   3.795 -0.2358 -0.0192  0.7632
 4309TIP3    H134342   1.973   2.891   3.713 -0.9237 -0.0723  1.1744
 4309TIP3    H234343   2.111   2.924   3.766 -0.7416  1.3131 -0.1135
 4310TIP3   OH234344   3.147   3.791  12.308 -0.1096 -0.3452  0.3441
 4310TIP3    H134345   3.157   3.809  12.401 -0.7550  0.3409  0.2981
 4310TIP3    H234346   3.195   3.710  12.293  0.0817 -0.4079  1.2518
 4311TIP3   OH234347   3.120   5.037   3.877  0.1778  0.4358 -0.5513
 4311TIP3    H134348   3.107   5.081   3.961  0.5370  0.9354 -0.7531
 4311TIP3    H234349   3.216   5.030   3.869  0.1294 -0.9838 -0.2128
 4312TIP3   OH234350   1.443   6.635  12.443  0.4685 -0.1597  0.3905
 4312TIP3    H134351   1.410   6.723  12.424 -1.4994 -1.0249 -0.5353
 4312TIP3    H234352   1.451   6.593  12.357 -0.5163 -1.4945  0.9065
 4313TIP3   OH234353   6.151   5.609  13.208 -0.2781  0.2624 -0.1675
 4313TIP3    H134354   6.233   5.578  13.246  0.6089 -0.2717 -2.3540
 4313TIP3    H234355   6.178   5.666  13.136 -1.8402  0.7034 -0.4417
 4314TIP3   OH234356   6.770   5.524   1.136  0.1550 -0.3080  0.4791
 4314TIP3    H134357   6.691   5.486   1.176 -0.0391 -0.3652  0.0528
 4314TIP3    H234358   6.778   5.478   1.053 -1.3191  2.0053 -1.0700
 4315TIP3   OH234359   2.836   6.018   1.914 -0.4517 -0.1323 -0.2762
 4315TIP3    H134360   2.773   6.083   1.883  0.1290  2.1877  2.9617
 4315TIP3    H234361   2.783   5.952   1.958 -0.8056  0.3881  0.0854
 4316TIP3   OH234362   0.540   4.674   5.277 -0.4819 -0.1846  0.3865
 4316TIP3    H134363   0.468   4.713   5.228 -0.6439 -1.9511 -0.8631
 4316TIP3    H234364   0.498   4.615   5.339 -0.1324 -0.7891  0.0495
 4317TIP3   OH234365   3.003   2.861   3.558  0.0462  0.0019  0.5865
 4317TIP3    H134366   3.059   2.809   3.615  3.4927  2.1035 -0.5788
 4317TIP3    H234367   2.931   2.890   3.614 -0.8429 -3.9621  1.8195
 4318TIP3   OH234368   1.884   1.514  11.581  0.7360 -0.0660  0.7343
 4318TIP3    H134369   1.971   1.553  11.578  0.8485 -0.3522 -0.9461
 4318TIP3    H234370   1.899   1.420  11.579  0.5414 -0.3057 -4.3842
 4319TIP3   OH234371   0.428   0.575  13.491  0.4338  0.2710 -0.3971
 4319TIP3    H134372   0.434   0.590  13.585 -0.1565  0.6787 -0.4151
 4319TIP3    H234373   0.371   0.646  13.459  0.5585  0.0891 -1.0449
 4320TIP3   OH234374   3.341   6.493   3.097  0.1741 -0.1393 -0.0034
 4320TIP3    H134375   3.414   6.513   3.155  0.8861  0.9087 -1.1961
 4320TIP3    H234376   3.268   6.545   3.130 -0.0184 -1.0530  1.0840
 4321TIP3   OH234377   1.684   0.971   1.533 -0.3150 -0.0931  0.0787
 4321TIP3    H134378   1.610   0.912   1.517  0.4306 -1.2361  0.6962
 4321TIP3    H234379   1.667   1.008   1.620 -0.2245 -0.2532  0.1642
 4322TIP3   OH234380   6.179   5.972   3.487 -0.0647  0.1842 -0.1767
 4322TIP3    H134381   6.239   5.906   3.521 -0.5041  0.3156  0.8996
 4322TIP3    H234382   6.206   5.985   3.397  1.6067  0.3185  0.3076
 4323TIP3   OH234383   4.285   0.881  12.505  0.0784 -0.1115 -0.2253
 4323TIP3    H134384   4.290   0.786  12.515  1.1806  0.0430  0.9595
 4323TIP3    H234385   4.286   0.915  12.594 -0.3434  1.0175 -0.6335
 4324TIP3   OH234386   6.674   6.277   5.628 -0.1301 -0.6685  1.1613
 4324TIP3    H134387   6.659   6.184   5.642 -1.3137 -0.6991 -0.0646
 4324TIP3    H234388   6.687   6.285   5.534  0.6285  0.3441  1.3289
 4325TIP3   OH234389   6.424   0.082   3.734 -0.3915 -0.5255 -0.1055
 4325TIP3    H134390   6.368   0.028   3.790 -3.6976  1.1099 -1.5743
 4325TIP3    H234391   6.411   0.047   3.646  0.6903  0.1190 -0.5435
 4326TIP3   OH234392   3.269   3.030  14.686  0.6291 -0.0731  0.3805
 4326TIP3    H134393   3.353   3.050  14.726 -0.1727  0.1529  2.0363
 4326TIP3    H234394   3.206   3.039  14.757 -0.9221  0.6324 -1.0125
 4327TIP3   OH234395   6.742   3.132  12.119 -0.2895  0.2628 -0.1008
 4327TIP3    H134396   6.756   3.064  12.053 -1.0895 -0.8592  0.8351
 4327TIP3    H234397   6.647   3.138  12.129 -0.2494  1.6797 -0.2980
 4328TIP3   OH234398   5.544   3.667  14.926  0.4032 -0.0641  0.5872
 4328TIP3    H134399   5.576   3.748  14.966  1.7788 -0.4818  0.3661
 4328TIP3    H234400   5.548   3.603  14.997 -1.9834  0.3302  1.1533
 4329TIP3   OH234401   4.081   5.665  16.872  0.3037  0.2718  0.0468
 4329TIP3    H134402   4.036   5.586  16.842 -2.3171  1.4225  0.6876
 4329TIP3    H234403   4.166   5.633  16.903 -0.0667 -2.0487 -1.1018
 4330TIP3   OH234404   3.807   2.520   3.433  0.0402 -0.2689  0.2331
 4330TIP3    H134405   3.753   2.566   3.369  0.9290  0.2513 -0.1597
 4330TIP3    H234406   3.798   2.570   3.514 -0.9579 -0.8367  0.4956
 4331TIP3   OH234407   6.606   0.253   4.141 -0.4105 -0.5282  0.7395
 4331TIP3    H134408   6.545   0.262   4.215  0.6077  3.9349  1.3646
 4331TIP3    H234409   6.555   0.281   4.065 -0.5885 -2.0882  0.2650
 4332TIP3   OH234410   4.553   0.483  15.937  0.0310 -0.1549  0.4307
 4332TIP3    H134411   4.500   0.410  15.968  1.9017 -0.6954  2.6617
 4332TIP3    H234412   4.546   0.479  15.841 -1.8120 -1.7447  0.5769
 4333TIP3   OH234413   4.771   4.822  13.600  0.1899 -0.1622 -0.1378
 4333TIP3    H134414   4.816   4.757  13.547  0.3047 -1.2317  1.2111
 4333TIP3    H234415   4.684   4.785  13.616 -0.1588  0.5553 -0.3236
 4334TIP3   OH234416   1.376   5.094   4.829  0.2310 -0.7682  0.0571
 4334TIP3    H134417   1.321   5.104   4.751 -0.4067 -0.0215  0.5920
 4334TIP3    H234418   1.325   5.039   4.888  0.5489 -1.0147  0.1050
 4335TIP3   OH234419   4.303   2.693  11.617 -0.0527 -0.7168 -0.3742
 4335TIP3    H134420   4.345   2.734  11.541 -1.2216 -1.6092 -1.5666
 4335TIP3    H234421   4.279   2.765  11.674  0.1815  0.0464 -1.2225
 4336TIP3   OH234422   0.966   3.105   3.746  0.0457  0.2785  0.3483
 4336TIP3    H134423   1.003   3.157   3.675  0.4146  0.7886  0.9107
 4336TIP3    H234424   1.034   3.105   3.814  1.6064 -3.7679 -0.8848
 4337TIP3   OH234425   3.098   3.168   3.535  0.2000  0.7386  0.2106
 4337TIP3    H134426   3.030   3.202   3.594 -1.1165 -0.9015 -0.2586
 4337TIP3    H234427   3.151   3.110   3.590  0.5333  1.1666  0.3381
 4338TIP3   OH234428   6.168   5.830   3.896  0.2347 -0.3410  0.3590
 4338TIP3    H134429   6.219   5.909   3.877 -0.7184  0.6295  1.6255
 4338TIP3    H234430   6.172   5.822   3.992  0.6007 -2.0545  0.2352
 4339TIP3   OH234431   1.206   3.749  11.259 -0.0370  0.0857  0.3786
 4339TIP3    H134432   1.260   3.732  11.182 -1.0738  0.6189 -0.4886
 4339TIP3    H234433   1.156   3.828  11.237 -1.7572 -0.8374  0.8212
 4340TIP3   OH234434   4.768   3.471   2.926  0.2041  0.6759  0.5458
 4340TIP3    H134435   4.701   3.468   2.857  0.9948  1.8451 -0.3128
 4340TIP3    H234436   4.719   3.460   3.008 -0.4843 -3.6920 -0.2068
 4341TIP3   OH234437   3.680   3.408   0.510 -0.0485  0.3644  0.7633
 4341TIP3    H134438   3.689   3.489   0.459  2.5121  0.4398  1.2414
 4341TIP3    H234439   3.680   3.338   0.444  1.2924  0.5752  0.5239
 4342TIP3   OH234440   3.677   3.088  16.670 -0.0218  0.5291  0.3397
 4342TIP3    H134441   3.622   3.127  16.738  0.2642  0.3007  0.7106
 4342TIP3    H234442   3.766   3.114  16.693  0.1505 -0.1684  0.4832
 4343TIP3   OH234443   5.661   2.985   5.180  0.1064 -0.0181  0.9663
 4343TIP3    H134444   5.706   3.069   5.177  0.3885 -0.1878 -1.1421
 4343TIP3    H234445   5.728   2.923   5.211  1.0114 -0.0460 -0.9073
 4344TIP3   OH234446   2.885   1.927   3.749 -0.2160  0.0313  0.1075
 4344TIP3    H134447   2.979   1.933   3.766  0.0628  0.1853 -1.3872
 4344TIP3    H234448   2.866   2.001   3.692 -0.9214 -0.9335 -0.9441
 4345TIP3   OH234449   2.553   3.882   5.953  0.0438 -0.3858 -0.0248
 4345TIP3    H134450   2.630   3.903   6.006  1.5372  0.8514 -2.5197
 4345TIP3    H234451   2.585   3.821   5.887 -1.3487 -0.5005 -0.6359
 4346TIP3   OH234452   4.619   4.298  12.726 -0.2932 -0.1986  0.2953
 4346TIP3    H134453   4.545   4.268  12.673 -1.9713 -0.6027  2.7135
 4346TIP3    H234454   4.637   4.386  12.695 -1.7405 -0.1218 -0.4117
 4347TIP3   OH234455   5.503   4.609   4.001  0.2928 -0.2226 -0.1838
 4347TIP3    H134456   5.440   4.572   3.939 -0.7624  0.6769  0.3143
 4347TIP3    H234457   5.467   4.589   4.087  0.6671  0.3507  0.1125
 4348TIP3   OH234458   5.840   3.688   5.348 -0.1481  0.0214  0.1171
 4348TIP3    H134459   5.792   3.714   5.269  1.3418  2.0529 -0.2099
 4348TIP3    H234460   5.860   3.596   5.335  1.1025  0.5655 -2.5338
 4349TIP3   OH234461   3.761   0.827   2.981  0.3094  0.0610  0.1123
 4349TIP3    H134462   3.674   0.807   2.948  0.0605  0.9209  0.2185
 4349TIP3    H234463   3.819   0.812   2.907 -0.1346  1.0750 -0.4695
 4350TIP3   OH234464   3.938   5.455  16.782 -0.8262  0.4525 -0.3989
 4350TIP3    H134465   3.933   5.365  16.813 -1.3486  0.8825  0.8343
 4350TIP3    H234466   3.848   5.480  16.763 -0.8667  1.1685  0.6623
 4351TIP3   OH234467   1.524   3.839   5.800  0.0693 -0.5851 -0.5293
 4351TIP3    H134468   1.442   3.802   5.833  0.1759 -0.6002 -0.2810
 4351TIP3    H234469   1.557   3.773   5.738 -0.1217 -0.5633 -0.6535
 4352TIP3   OH234470   0.280   1.815   5.841  0.0292  0.2709  0.1545
 4352TIP3    H134471   0.313   1.887   5.896  2.1740  0.3893 -1.1670
 4352TIP3    H234472   0.198   1.848   5.804  0.0693  1.3352  0.9597
 4353TIP3   OH234473   4.455   5.178  13.123 -0.4427 -0.7699  0.5876
 4353TIP3    H134474   4.413   5.253  13.082 -1.0640 -1.4089  0.0354
 4353TIP3    H234475   4.542   5.175  13.083 -0.5301 -0.5352  0.3746
 4354TIP3   OH234476   5.675   3.241  12.338 -0.1709 -0.2973 -0.1254
 4354TIP3    H134477   5.701   3.326  12.301 -0.1678  0.6473  1.9057
 4354TIP3    H234478   5.595   3.218  12.291 -0.9665  1.5440  0.2253
 4355TIP3   OH234479   2.165   3.162  15.328 -0.3691  0.0395  0.5431
 4355TIP3    H134480   2.198   3.250  15.310 -0.1285  0.1468  1.4410
 4355TIP3    H234481   2.186   3.112  15.249 -1.3410  1.0055 -0.3656
 4356TIP3   OH234482   3.898   6.599  12.930 -0.2378 -0.0161 -0.3630
 4356TIP3    H134483   3.913   6.508  12.903  0.4540  0.4331 -1.5793
 4356TIP3    H234484   3.978   6.645  12.905 -0.6246  0.9561  0.1297
 4357TIP3   OH234485   2.416   0.603  14.490 -1.0563  0.0580 -0.2528
 4357TIP3    H134486   2.508   0.601  14.464 -0.3106 -0.0098  2.1452
 4357TIP3    H234487   2.399   0.696  14.509 -0.9590 -0.1475  0.9091
 4358TIP3   OH234488   4.533   2.263   0.209  0.5467 -0.7531  0.2976
 4358TIP3    H134489   4.488   2.182   0.185 -1.5864  0.4678 -0.1385
 4358TIP3    H234490   4.494   2.288   0.293  2.7469 -1.2512  1.5204
 4359TIP3   OH234491   3.097   2.210   1.382  0.2780 -0.4154 -0.3665
 4359TIP3    H134492   3.071   2.293   1.341 -0.0037  0.0483  0.7130
 4359TIP3    H234493   3.097   2.147   1.310 -1.1889  0.1539 -0.9017
 4360TIP3   OH234494   1.498   6.196   1.511 -0.1340 -0.0762  0.0470
 4360TIP3    H134495   1.470   6.130   1.448 -0.4395 -0.3174  0.4261
 4360TIP3    H234496   1.524   6.145   1.588  1.3406  0.1475 -0.2902
 4361TIP3   OH234497   2.766   1.195  11.203  0.1869 -0.5662 -0.3966
 4361TIP3    H134498   2.686   1.214  11.155 -1.5393 -0.9101  2.1079
 4361TIP3    H234499   2.819   1.275  11.195 -1.1935  0.3558 -0.6524
 4362TIP3   OH234500   0.077   0.174   1.719 -0.2351 -0.4241  0.6188
 4362TIP3    H134501   0.134   0.155   1.793 -1.4050 -0.8529  1.4379
 4362TIP3    H234502   0.005   0.111   1.727 -1.6320  1.0784  0.5272
 4363TIP3   OH234503   0.326   1.246  14.035  0.2435  0.6633 -0.0780
 4363TIP3    H134504   0.331   1.196  14.116  0.2725  1.5950  0.5125
 4363TIP3    H234505   0.366   1.331  14.056 -1.1252  1.4792 -0.6127
 4364TIP3   OH234506   6.517   1.145  16.213 -0.6771 -0.0622 -0.0052
 4364TIP3    H134507   6.539   1.082  16.283  0.4372 -0.2666 -0.5171
 4364TIP3    H234508   6.427   1.124  16.190 -0.4178 -1.2970  0.0271
 4365TIP3   OH234509   0.416   3.230  14.509  0.0154  0.2963  0.5910
 4365TIP3    H134510   0.385   3.203  14.423 -0.4081  1.9967  0.1695
 4365TIP3    H234511   0.500   3.187  14.519  0.0992  0.1263 -0.7135
 4366TIP3   OH234512   1.869   5.127   0.225  0.1197  0.2848  0.4730
 4366TIP3    H134513   1.957   5.162   0.239 -0.0754  0.5905  0.9989
 4366TIP3    H234514   1.883   5.035   0.202  0.5560  0.2060  1.0281
 4367TIP3   OH234515   4.289   0.417  14.086  0.3893  0.4093 -0.1189
 4367TIP3    H134516   4.264   0.453  14.171  2.1537  0.5657  0.3714
 4367TIP3    H234517   4.315   0.327  14.104  0.3921  0.3195 -0.5560
 4368TIP3   OH234518   3.571   1.133   6.120 -0.4385 -0.1448  0.7208
 4368TIP3    H134519   3.611   1.189   6.187  1.3587 -0.4205 -0.0492
 4368TIP3    H234520   3.477   1.150   6.127 -0.2071  0.6349  2.5700
 4369TIP3   OH234521   4.564   0.166   4.881 -0.3265  0.3611  0.2747
 4369TIP3    H134522   4.622   0.171   4.805  0.9543  2.4856  1.3111
 4369TIP3    H234523   4.478   0.189   4.847 -0.7878 -3.1046 -1.3450
 4370TIP3   OH234524   0.687   2.937  16.950  0.0919 -0.1073 -0.4109
 4370TIP3    H134525   0.592   2.934  16.958  0.1467  0.6533  0.9384
 4370TIP3    H234526   0.719   2.904  17.034  0.9962  0.6387 -0.4446
 4371TIP3   OH234527   1.628   5.524  13.490 -0.0416 -0.0742  0.1389
 4371TIP3    H134528   1.575   5.444  13.481 -0.1706 -0.0408  0.6135
 4371TIP3    H234529   1.714   5.499  13.457  0.0865 -0.5815  0.8423
 4372TIP3   OH234530   1.762   4.516   1.012  0.0999 -0.3354  0.1701
 4372TIP3    H134531   1.727   4.426   1.015  1.3966 -0.8879 -0.3468
 4372TIP3    H234532   1.856   4.505   1.027  0.1484  1.0447  0.9866
 4373TIP3   OH234533   4.833   6.472   0.059  0.2254  0.3040 -0.2748
 4373TIP3    H134534   4.923   6.469   0.028 -0.2675  1.5681 -1.9808
 4373TIP3    H234535   4.840   6.471   0.155  1.8943 -1.9237 -0.3468
 4374TIP3   OH234536   6.696   2.164   4.608  0.4435  0.3111 -0.0707
 4374TIP3    H134537   6.763   2.118   4.659 -0.5009 -0.4470  0.5330
 4374TIP3    H234538   6.627   2.099   4.597 -0.4550  1.2678 -0.1665
 4375TIP3   OH234539   6.042   1.010  14.125  0.4231  0.3960  0.1095
 4375TIP3    H134540   6.090   1.084  14.161 -0.8321  0.6749  1.2949
 4375TIP3    H234541   5.954   1.045  14.108 -0.1193 -0.7540  0.4577
 4376TIP3   OH234542   5.281   2.760  15.788 -0.0062 -0.3149  0.2569
 4376TIP3    H134543   5.269   2.832  15.849  0.1896  0.0741 -0.1579
 4376TIP3    H234544   5.353   2.708  15.825  0.0780 -0.1079  0.3819
 4377TIP3   OH234545   6.610   2.321   3.000  0.7888 -0.2182 -0.5375
 4377TIP3    H134546   6.692   2.272   2.995  0.0099 -1.4398 -3.5093
 4377TIP3    H234547   6.631   2.408   2.966  1.1375 -0.0062  0.1899
 4378TIP3   OH234548   1.400   2.415  15.163  0.1530 -0.1278  0.0746
 4378TIP3    H134549   1.309   2.396  15.139  0.2208  0.5262 -0.7574
 4378TIP3    H234550   1.448   2.334  15.142 -0.0889 -0.1681 -0.3255
 4379TIP3   OH234551   3.738   2.409  14.196  0.4570  0.5993 -0.8748
 4379TIP3    H134552   3.733   2.355  14.274  2.7261  2.0552  0.3902
 4379TIP3    H234553   3.792   2.358  14.135  1.6651  0.9052 -0.1033
 4380TIP3   OH234554   5.237   6.702  11.384  0.3786  0.3628  0.4709
 4380TIP3    H134555   5.270   6.720  11.472  0.1296 -0.9197  0.8450
 4380TIP3    H234556   5.196   6.784  11.356  0.7708  0.8849  1.4061
 4381TIP3   OH234557   6.479   4.100   6.788 -0.0103 -0.2880 -0.4551
 4381TIP3    H134558   6.502   4.184   6.826 -1.2807  0.7746 -1.9315
 4381TIP3    H234559   6.509   4.105   6.697  2.4709 -2.5553  0.0787
 4382TIP3   OH234560   3.732   2.583  12.695 -0.1652  0.3849  0.0234
 4382TIP3    H134561   3.818   2.613  12.664 -1.1843  1.0655 -2.4037
 4382TIP3    H234562   3.739   2.488  12.699  0.7597  0.4490  0.0465
 4383TIP3   OH234563   2.618   0.861  14.310 -0.4660 -0.2536  0.6341
 4383TIP3    H134564   2.579   0.846  14.396  0.2462  0.1695  1.0361
 4383TIP3    H234565   2.631   0.773  14.274 -0.3085 -0.4515  1.1662
 4384TIP3   OH234566   1.852   6.562  16.988 -0.1255 -0.1478  0.0345
 4384TIP3    H134567   1.767   6.603  16.968 -0.3012 -0.7007 -0.3923
 4384TIP3    H234568   1.916   6.629  16.965 -0.3975 -0.2148 -0.9988
 4385TIP3   OH234569   0.762   4.560  12.915 -0.1545  0.6147  0.0641
 4385TIP3    H134570   0.742   4.644  12.875 -1.0516  0.6700  0.6129
 4385TIP3    H234571   0.848   4.572  12.955 -0.7468  1.6302  1.0929
 4386TIP3   OH234572   1.839   4.547   1.576 -0.0778 -0.2926 -0.5026
 4386TIP3    H134573   1.765   4.534   1.516 -0.5820 -1.4377  0.3342
 4386TIP3    H234574   1.800   4.591   1.652  0.3800  0.3356 -0.6253
 4387TIP3   OH234575   0.904   6.127   5.860 -0.5076 -0.6133 -0.2072
 4387TIP3    H134576   0.955   6.179   5.924 -1.4914  0.2869 -0.1240
 4387TIP3    H234577   0.867   6.193   5.801  0.7742 -1.4559 -2.0468
 4388TIP3   OH234578   5.212   4.276   5.107 -0.6874 -0.6335  0.4837
 4388TIP3    H134579   5.211   4.231   5.192  0.9640 -2.7282 -0.5227
 4388TIP3    H234580   5.257   4.359   5.125  0.0614 -1.2487  1.5919
 4389TIP3   OH234581   4.409   5.998  14.264 -0.5529 -0.1127  0.5173
 4389TIP3    H134582   4.412   5.905  14.287 -0.6614 -0.4552 -0.8119
 4389TIP3    H234583   4.494   6.017  14.227 -1.3143 -0.2892 -1.4113
 4390TIP3   OH234584   6.085   0.244  14.763 -0.3958  0.0954 -0.0187
 4390TIP3    H134585   6.085   0.166  14.820 -0.4538  0.1255  0.0226
 4390TIP3    H234586   6.176   0.253  14.736 -0.2011  0.5768  0.7522
 4391TIP3   OH234587   0.839   5.938   6.025  0.5406  0.1217  0.3044
 4391TIP3    H134588   0.751   5.912   5.995  0.3650 -0.2843  1.1284
 4391TIP3    H234589   0.866   6.006   5.964 -0.8774  1.1478  0.7521
 4392TIP3   OH234590   1.046   6.599   3.075  0.8287 -0.9149  0.1586
 4392TIP3    H134591   1.011   6.510   3.076 -1.6308 -0.2777 -4.6480
 4392TIP3    H234592   1.135   6.589   3.043  0.0652 -1.6686 -1.8909
 4393TIP3   OH234593   6.279   0.264   1.337 -0.7333  0.2226 -0.3297
 4393TIP3    H134594   6.239   0.326   1.276 -0.8036 -0.4368 -0.9663
 4393TIP3    H234595   6.236   0.181   1.318  0.8208 -0.4822 -0.9467
 4394TIP3   OH234596   5.436   2.490   0.227 -0.0929 -0.0731 -0.9996
 4394TIP3    H134597   5.358   2.528   0.267  0.3392 -0.4502  0.2409
 4394TIP3    H234598   5.490   2.462   0.301  0.8464 -0.5732 -1.8492
 4395TIP3   OH234599   0.281   1.028  13.354  0.0977 -0.2319  0.7123
 4395TIP3    H134600   0.226   1.089  13.403 -0.5685 -0.2965  0.0596
 4395TIP3    H234601   0.342   1.084  13.306 -0.7188 -0.0406 -0.1367
 4396TIP3   OH234602   2.466   0.182  12.107 -0.6858 -0.3628  0.3858
 4396TIP3    H134603   2.421   0.267  12.108  1.0343  0.6051  0.6814
 4396TIP3    H234604   2.526   0.188  12.033 -0.6918 -1.4272  0.2776
 4397TIP3   OH234605   1.701   1.279   5.913 -0.0376 -0.1374  0.1197
 4397TIP3    H134606   1.620   1.302   5.960 -1.1645 -0.3263 -1.6328
 4397TIP3    H234607   1.720   1.189   5.942  0.0735  0.2203  1.2142
 4398TIP3   OH234608   1.996   0.440   4.336  0.0729 -0.4430 -0.4515
 4398TIP3    H134609   1.931   0.490   4.385 -1.3929 -0.6356 -2.1037
 4398TIP3    H234610   2.072   0.498   4.331 -0.0630 -0.0690  1.2030
 4399TIP3   OH234611   0.540   5.222   4.073  0.1587 -0.5086  0.0923
 4399TIP3    H134612   0.494   5.269   4.004  0.3094 -0.8109 -0.2149
 4399TIP3    H234613   0.484   5.231   4.150  0.3232  0.4130  0.1115
 4400TIP3   OH234614   1.296   1.115   2.838 -0.5247  0.6117 -0.6134
 4400TIP3    H134615   1.380   1.133   2.880 -0.6872  1.9759 -0.8450
 4400TIP3    H234616   1.233   1.168   2.885 -1.0333  0.6246 -1.2919
 4401TIP3   OH234617   4.928   0.741  16.002  0.1453  0.3936 -0.1295
 4401TIP3    H134618   5.001   0.800  16.020 -1.2789  1.6507  2.0569
 4401TIP3    H234619   4.907   0.702  16.087 -1.5279 -0.1563 -0.7561
 4402TIP3   OH234620   4.364   4.135  13.603  0.3452  0.3077 -0.3037
 4402TIP3    H134621   4.333   4.223  13.626  0.0730 -0.2706  1.7349
 4402TIP3    H234622   4.285   4.085  13.587  0.4909  0.3432 -1.1718
 4403TIP3   OH234623   0.138   6.412  14.826 -0.0170  0.8282 -0.3856
 4403TIP3    H134624   0.103   6.495  14.793  0.9223  1.8873  1.1368
 4403TIP3    H234625   0.230   6.431  14.848  0.3621 -0.7513 -0.4436
 4404TIP3   OH234626   4.641   6.458   3.976 -0.2173  0.3561 -0.1740
 4404TIP3    H134627   4.736   6.465   3.966 -0.0838  0.6473  1.1592
 4404TIP3    H234628   4.607   6.538   3.935  0.0948  0.1723 -0.8057
 4405TIP3   OH234629   6.511   2.356   4.697  0.4206  0.0667  0.2815
 4405TIP3    H134630   6.541   2.286   4.639 -2.5243  2.3606 -4.6732
 4405TIP3    H234631   6.422   2.330   4.721  0.4137  0.7221  0.9801
 4406TIP3   OH234632   1.089   1.240   1.355 -0.4614 -0.0113 -0.4402
 4406TIP3    H134633   1.003   1.237   1.398 -0.4198 -1.1216 -0.4214
 4406TIP3    H234634   1.129   1.155   1.374  1.3923  1.0890  1.0765
 4407TIP3   OH234635   6.197   4.824  14.585  0.3963  0.1432 -0.6038
 4407TIP3    H134636   6.267   4.890  14.590  1.3220 -0.8466 -0.1073
 4407TIP3    H234637   6.214   4.765  14.659 -0.7756 -0.3183 -0.6783
 4408TIP3   OH234638   6.466   5.971   1.497  0.1929  0.4697 -0.3134
 4408TIP3    H134639   6.382   5.978   1.542 -0.9648  1.3590 -2.4398
 4408TIP3    H234640   6.480   5.877   1.488  0.6357  0.2470  2.0792
 4409TIP3   OH234641   2.035   5.285  10.859  0.0075  0.0420 -0.5870
 4409TIP3    H134642   2.085   5.367  10.861  0.5860 -0.3001 -0.6599
 4409TIP3    H234643   2.088   5.226  10.806  0.9010 -1.1803  1.5231
 4410TIP3   OH234644   2.714   1.092   2.298 -0.0938 -0.5386  0.5789
 4410TIP3    H134645   2.711   1.102   2.203 -0.3849 -0.1352  0.6275
 4410TIP3    H234646   2.670   1.170   2.332  0.9007 -0.1800  1.0815
 4411TIP3   OH234647   6.485   3.701   1.927  0.0024  0.0146  0.5417
 4411TIP3    H134648   6.533   3.705   2.010  0.2093  0.7804  0.3950
 4411TIP3    H234649   6.394   3.684   1.952  0.3000 -1.2427  0.8354
 4412TIP3   OH234650   0.713   0.293   2.136 -1.0447 -0.2886  0.4247
 4412TIP3    H134651   0.674   0.288   2.223  1.0744  1.6989  1.6098
 4412TIP3    H234652   0.758   0.209   2.124  2.5419  0.8970  3.4156
 4413TIP3   OH234653   2.041   6.275   5.292 -0.2715 -0.1612  0.2283
 4413TIP3    H134654   1.953   6.268   5.256 -0.1108  0.4974 -0.3179
 4413TIP3    H234655   2.031   6.331   5.369 -0.4953 -0.9564  0.7845
 4414TIP3   OH234656   0.739   5.817  14.954  0.4068  0.1198 -0.1492
 4414TIP3    H134657   0.652   5.854  14.940  1.0115  0.7370 -2.7997
 4414TIP3    H234658   0.799   5.888  14.933  1.6460  0.0708  2.7376
 4415TIP3   OH234659   0.876   0.022  14.979 -0.0787  0.1781  0.3791
 4415TIP3    H134660   0.835  -0.028  15.050  0.7408  1.8390  2.0807
 4415TIP3    H234661   0.804   0.039  14.918 -1.6884  1.7552  2.5646
 4416TIP3   OH234662   5.395   6.664  11.609  0.4092 -0.8237  0.5081
 4416TIP3    H134663   5.471   6.610  11.589  0.9813  0.1178  0.0121
 4416TIP3    H234664   5.396   6.675  11.704  0.4255 -1.4614  0.5858
 4417TIP3   OH234665   6.647   3.411  14.680  0.1838  0.1118  0.4639
 4417TIP3    H134666   6.679   3.337  14.732 -1.8069 -1.1371  0.0091
 4417TIP3    H234667   6.624   3.373  14.595  0.0449  1.4646 -0.1362
 4418TIP3   OH234668   3.989   2.988  15.128  0.2886  0.1414 -0.0009
 4418TIP3    H134669   4.077   2.951  15.118 -0.5385 -2.2820  1.0919
 4418TIP3    H234670   3.935   2.938  15.066 -0.1472  2.6552 -1.8433
 4419TIP3   OH234671   1.750   4.662   3.651  0.3843  0.1733 -0.1744
 4419TIP3    H134672   1.657   4.674   3.673  0.3261 -0.3574 -0.1211
 4419TIP3    H234673   1.760   4.708   3.568  0.3051  1.0765  0.3047
 4420TIP3   OH234674   3.008   4.583  16.599  0.3450  0.0186 -0.1712
 4420TIP3    H134675   2.936   4.633  16.561 -0.3488 -0.0700  1.0091
 4420TIP3    H234676   3.037   4.525  16.528  1.0441  1.9055 -1.5152
 4421TIP3   OH234677   1.079   4.982  12.617 -0.0874  0.3920 -0.5703
 4421TIP3    H134678   1.141   4.968  12.689  0.1719  0.1353 -0.8442
 4421TIP3    H234679   1.061   5.076  12.620 -0.3112  0.3369  0.0199
 4422TIP3   OH234680   2.366   6.003   5.945  0.4830 -0.3337  0.0800
 4422TIP3    H134681   2.444   6.047   5.982  1.0131 -1.5938  0.5017
 4422TIP3    H234682   2.293   6.042   5.992  0.6380  2.0916 -1.4560
 4423TIP3   OH234683   2.131   4.773  12.680 -0.1452 -0.8289  0.2435
 4423TIP3    H134684   2.131   4.782  12.775  2.6380  0.8814  0.1770
 4423TIP3    H234685   2.202   4.829  12.650  0.4845 -2.9545 -2.7176
 4424TIP3   OH234686   1.973   0.862  11.555 -0.2507  0.1431  0.0723
 4424TIP3    H134687   1.883   0.863  11.589 -2.1035  0.3962 -4.0850
 4424TIP3    H234688   2.001   0.954  11.558  0.2759 -0.0454  2.1156
 4425TIP3   OH234689   1.095   2.900  12.048  0.3989  0.1318 -0.8469
 4425TIP3    H134690   1.018   2.885  12.104  0.7788  0.7838 -0.1291
 4425TIP3    H234691   1.106   2.995  12.048  2.9705 -0.0229  1.5661
 4426TIP3   OH234692   2.685   5.410   4.305  0.3069 -0.6860  0.7278
 4426TIP3    H134693   2.722   5.471   4.369 -0.8831  2.2216 -1.1235
 4426TIP3    H234694   2.592   5.403   4.329  0.2248 -0.9851  0.3399
 4427TIP3   OH234695   0.639   2.178   0.789 -0.0428 -0.3218 -0.1789
 4427TIP3    H134696   0.735   2.175   0.781  0.0690 -0.8248  1.1224
 4427TIP3    H234697   0.622   2.256   0.842 -0.1079 -1.7852  2.1126
 4428TIP3   OH234698   3.273   5.415   5.800  0.1433 -0.2755  0.1066
 4428TIP3    H134699   3.303   5.505   5.814 -0.0006 -0.5270  2.3455
 4428TIP3    H234700   3.195   5.425   5.744  0.9734  0.8429 -0.8998
 4429TIP3   OH234701   5.858   2.994   4.476 -0.1837  0.6566 -0.1092
 4429TIP3    H134702   5.923   3.049   4.521  0.0157 -0.4696  1.0162
 4429TIP3    H234703   5.775   3.038   4.491  0.0562  1.0132  0.1913
 4430TIP3   OH234704   1.390   3.000  12.275  0.3622 -0.0229 -0.0933
 4430TIP3    H134705   1.330   3.035  12.209  0.2238 -2.1904 -1.1884
 4430TIP3    H234706   1.334   2.973  12.347  0.2100 -0.3933 -0.3514
 4431TIP3   OH234707   1.297   4.105   6.699 -0.3784  0.2477  0.1110
 4431TIP3    H134708   1.237   4.135   6.631 -0.0781  0.6325  0.0125
 4431TIP3    H234709   1.381   4.144   6.676  0.1764 -1.1243 -0.3404
 4432TIP3   OH234710   0.632   2.155   3.839 -0.5029  0.4516 -0.5948
 4432TIP3    H134711   0.615   2.119   3.927  1.8589  0.3057 -0.1368
 4432TIP3    H234712   0.653   2.078   3.786  0.0469  0.7288 -0.7815
 4433TIP3   OH234713   5.310   4.858  16.511 -0.2079  0.6738 -0.1816
 4433TIP3    H134714   5.280   4.917  16.442  1.5303  0.0323 -1.5756
 4433TIP3    H234715   5.249   4.784  16.506 -1.2217  1.4596  0.2671
 4434TIP3   OH234716   5.342   1.517  12.560  0.5119  0.0263 -0.0896
 4434TIP3    H134717   5.388   1.547  12.638 -0.2151  1.9016 -0.3194
 4434TIP3    H234718   5.393   1.552  12.487  0.6640 -0.8977 -0.4326
 4435TIP3   OH234719   6.454   0.300   3.917  0.4402  0.0846 -0.0624
 4435TIP3    H134720   6.465   0.245   3.839 -0.3601  0.0337 -0.1436
 4435TIP3    H234721   6.364   0.286   3.944  0.7472  0.0168  0.9515
 4436TIP3   OH234722   2.868   0.801   4.174  0.4119 -0.4929 -0.4238
 4436TIP3    H134723   2.850   0.731   4.237  0.3099  1.0984  1.4029
 4436TIP3    H234724   2.921   0.864   4.223  0.4981  0.7258 -2.0053
 4437TIP3   OH234725   4.014   1.358   0.846 -0.5009 -0.2644  0.8115
 4437TIP3    H134726   3.983   1.407   0.770  1.6453 -2.1600 -1.4943
 4437TIP3    H234727   4.026   1.423   0.914  0.5078  2.1338 -1.4959
 4438TIP3   OH234728   5.233   1.401  17.011 -0.0185 -0.4184  0.2840
 4438TIP3    H134729   5.160   1.380  16.952 -0.1775 -2.1062  1.0240
 4438TIP3    H234730   5.198   1.387  17.099  0.1101  2.4197  0.8783
 4439TIP3   OH234731   1.720   4.639   1.870  0.1876  0.3231  0.2810
 4439TIP3    H134732   1.699   4.732   1.875 -0.9841  0.0893 -0.0193
 4439TIP3    H234733   1.683   4.602   1.951  3.9095  0.6608  2.3678
 4440TIP3   OH234734   5.321   1.739   3.755 -0.9511  0.5599 -0.0712
 4440TIP3    H134735   5.410   1.703   3.760 -0.5983  1.4488  0.2733
 4440TIP3    H234736   5.323   1.814   3.814 -2.8188 -1.2137  2.4785
 4441TIP3   OH234737   6.270   0.333  15.770 -0.0632  0.7242  0.1749
 4441TIP3    H134738   6.329   0.360  15.840 -0.8426  0.3058  1.0277
 4441TIP3    H234739   6.309   0.252  15.736  0.8597  1.4725 -0.5831
 4442TIP3   OH234740   2.878   3.662   4.421  0.1619 -0.1395 -0.8135
 4442TIP3    H134741   2.875   3.702   4.508  0.7364 -1.7250 -0.0429
 4442TIP3    H234742   2.894   3.736   4.362 -0.8380  1.0551  0.3304
 4443TIP3   OH234743   6.630   4.732   4.739 -0.7490 -0.1358  0.2975
 4443TIP3    H134744   6.645   4.765   4.828 -0.7800 -0.9893  0.6279
 4443TIP3    H234745   6.714   4.744   4.695 -0.2516 -1.1847  0.9303
 4444TIP3   OH234746   5.857   0.992   4.456 -0.3961  0.5877 -0.2803
 4444TIP3    H134747   5.933   0.944   4.423 -0.9514 -0.2551 -0.3618
 4444TIP3    H234748   5.847   1.065   4.395  1.8044  2.1500  1.1175
 4445TIP3   OH234749   2.152   6.684   4.714  0.3018  0.2590  0.1660
 4445TIP3    H134750   2.160   6.690   4.619 -1.0163  1.7780  0.1154
 4445TIP3    H234751   2.242   6.673   4.745  0.8429  0.6930 -1.1853
 4446TIP3   OH234752   2.401   0.367  14.374  0.2137  0.0812 -0.2642
 4446TIP3    H134753   2.311   0.336  14.387  0.3134  0.5456  1.7833
 4446TIP3    H234754   2.409   0.442  14.431  1.3186  1.3156 -1.9511
 4447TIP3   OH234755   3.081   0.904  16.122 -0.4268 -0.2276  0.2477
 4447TIP3    H134756   3.033   0.956  16.058  0.4195 -1.4105 -1.4055
 4447TIP3    H234757   3.153   0.865  16.073  1.3085  0.1838  2.2996
 4448TIP3   OH234758   6.745   3.976   3.464  0.3032  0.1333 -0.2426
 4448TIP3    H134759   6.660   4.020   3.470 -0.1780 -0.9078  1.4338
 4448TIP3    H234760   6.742   3.910   3.533  1.8669 -1.0148 -1.2061
 4449TIP3   OH234761   5.462   2.549   5.902 -0.1610 -0.3891 -0.0560
 4449TIP3    H134762   5.440   2.477   5.961 -0.1301  0.6587  1.3008
 4449TIP3    H234763   5.460   2.511   5.815 -0.1372 -2.0236  0.6277
 4450TIP3   OH234764   2.603   3.582   4.517 -0.1754  0.0453 -0.5808
 4450TIP3    H134765   2.693   3.570   4.488  0.1601 -0.2007  0.5001
 4450TIP3    H234766   2.555   3.605   4.438  0.8562  0.3050 -1.1483
 4451TIP3   OH234767   2.576   3.402  15.679 -0.4456  0.6422 -0.5154
 4451TIP3    H134768   2.573   3.324  15.624 -0.7762  0.5901 -0.4299
 4451TIP3    H234769   2.502   3.392  15.739  0.0626  0.5748  0.1114
 4452TIP3   OH234770   5.522   3.415  15.423  0.1030 -0.1774 -0.1200
 4452TIP3    H134771   5.509   3.447  15.512 -1.2243  4.3652 -1.6840
 4452TIP3    H234772   5.615   3.429  15.406  0.9114 -3.2070  1.0792
 4453TIP3   OH234773   1.646   3.429   1.519  0.1946 -0.3845  1.0164
 4453TIP3    H134774   1.628   3.509   1.569  0.2434 -0.3949  1.0504
 4453TIP3    H234775   1.721   3.451   1.464 -0.3041 -0.1433  0.4187
 4454TIP3   OH234776   0.151   5.907  15.447 -0.0212 -0.0449  0.1730
 4454TIP3    H134777   0.074   5.930  15.499 -1.8685 -2.0784 -1.4571
 4454TIP3    H234778   0.160   5.978  15.385  0.2658  0.8484  1.2034
 4455TIP3   OH234779   0.442   5.720   1.571  0.3555  0.3320  0.2265
 4455TIP3    H134780   0.462   5.635   1.532  1.6935  0.0319  1.4788
 4455TIP3    H234781   0.399   5.769   1.501 -0.1716 -1.2587 -0.6114
 4456TIP3   OH234782   6.339   3.802   0.213  0.5830  0.1957 -0.0013
 4456TIP3    H134783   6.434   3.809   0.212  0.6716  1.3988  3.6222
 4456TIP3    H234784   6.308   3.890   0.191  0.3923  0.2986  0.6498
 4457TIP3   OH234785   5.118   4.261  12.377 -0.8222 -0.3342  0.3386
 4457TIP3    H134786   5.064   4.214  12.314 -0.4885 -0.5358  0.2041
 4457TIP3    H234787   5.165   4.193  12.424 -0.4454 -0.1448  0.2375
 4458TIP3   OH234788   6.033   6.528   0.908 -0.5372  0.1985 -0.4894
 4458TIP3    H134789   6.068   6.448   0.868  0.8435 -0.2872  1.5448
 4458TIP3    H234790   6.110   6.582   0.925 -1.0165  0.2587  1.6996
 4459TIP3   OH234791   5.411   3.210   3.385  0.0159  0.3216  0.1559
 4459TIP3    H134792   5.423   3.190   3.478 -1.0150 -1.2999 -0.0227
 4459TIP3    H234793   5.500   3.214   3.350  0.3905  0.1755  1.0576
 4460TIP3   OH234794   0.144   1.315  14.663  0.1884  0.3659  0.0708
 4460TIP3    H134795   0.102   1.232  14.685  1.2550 -0.3677 -0.5244
 4460TIP3    H234796   0.080   1.362  14.611  0.3481 -1.0867 -1.5598
 4461TIP3   OH234797   6.496   4.102   6.523 -0.0820 -0.0754  0.3623
 4461TIP3    H134798   6.561   4.153   6.474 -0.2607 -0.6165 -0.4453
 4461TIP3    H234799   6.415   4.153   6.517  0.3286  0.8037  1.7072
 4462TIP3   OH234800   1.522   3.082  10.762  0.2456 -0.0253  0.4179
 4462TIP3    H134801   1.483   3.163  10.728  0.2915 -0.9459 -2.0595
 4462TIP3    H234802   1.588   3.112  10.825 -0.5372  1.7962  0.4443
 4463TIP3   OH234803   1.183   3.515  17.064 -0.8302  0.0303 -0.5969
 4463TIP3    H134804   1.122   3.441  17.066  0.9012 -1.4642  0.3487
 4463TIP3    H234805   1.253   3.488  17.005 -0.0000  0.7670  0.0115
 4464TIP3   OH234806   3.840   0.307  14.866  0.3648  0.6308 -0.5617
 4464TIP3    H134807   3.829   0.214  14.884  1.0016  0.5557 -0.5225
 4464TIP3    H234808   3.834   0.348  14.952 -0.5768  0.7047 -0.6522
 4465TIP3   OH234809   5.547   6.228  12.012  0.1859 -0.4408  0.7962
 4465TIP3    H134810   5.560   6.321  11.998 -0.8603 -0.0256  2.3834
 4465TIP3    H234811   5.614   6.204  12.076  2.3630 -1.4739 -1.6631
 4466TIP3   OH234812   1.788   4.298  11.869 -0.5342  0.5320 -0.1848
 4466TIP3    H134813   1.732   4.265  11.798 -1.5798 -1.8634  1.6269
 4466TIP3    H234814   1.862   4.238  11.871 -0.3447  0.7855  0.5133
 4467TIP3   OH234815   0.147   3.789   5.906 -0.4447 -0.5148 -0.3858
 4467TIP3    H134816   0.058   3.808   5.937 -0.9428  1.4978 -2.6918
 4467TIP3    H234817   0.140   3.792   5.810  2.1358 -0.1388 -0.6337
 4468TIP3   OH234818   5.171   5.630   5.530 -0.3191  0.2410 -0.6638
 4468TIP3    H134819   5.169   5.698   5.597 -1.5262  0.0576 -0.4814
 4468TIP3    H234820   5.158   5.548   5.578  0.7778 -0.0870 -0.9182
 4469TIP3   OH234821   2.150   6.499   4.909 -0.0364 -0.2302 -0.4339
 4469TIP3    H134822   2.146   6.495   4.813 -1.9048  0.1351 -0.4047
 4469TIP3    H234823   2.146   6.407   4.937 -2.7113 -0.2732 -0.6840
 4470TIP3   OH234824   0.775   2.873   0.781 -0.4377  0.0209  0.2178
 4470TIP3    H134825   0.699   2.926   0.803 -1.4647 -0.2210 -2.3504
 4470TIP3    H234826   0.820   2.924   0.713  0.3058 -0.9803 -0.0597
 4471TIP3   OH234827   3.493   1.363  16.994  0.0265  0.1287 -0.0198
 4471TIP3    H134828   3.398   1.374  16.985 -0.1026 -0.0339  0.9768
 4471TIP3    H234829   3.505   1.271  17.014  0.2516  0.4108  1.2595
 4472TIP3   OH234830   1.780   5.463  16.680 -0.2954 -0.2729 -0.1254
 4472TIP3    H134831   1.740   5.480  16.766  0.9654  1.7070  0.1416
 4472TIP3    H234832   1.816   5.548  16.654  0.1664 -1.0589 -2.2030
 4473TIP3   OH234833   1.306   3.204   5.300 -0.4885 -0.4656  0.0942
 4473TIP3    H134834   1.278   3.166   5.383 -0.1527 -0.4557  0.2105
 4473TIP3    H234835   1.325   3.128   5.245 -1.7286 -0.4985 -0.3321
 4474TIP3   OH234836   5.457   0.445   5.396 -0.3480 -0.5614  0.0996
 4474TIP3    H134837   5.405   0.479   5.324  1.4879  1.8173 -0.2367
 4474TIP3    H234838   5.531   0.400   5.353  0.5292  0.5055  0.4440
 4475TIP3   OH234839   6.544   3.307  10.791 -0.0053 -0.4778 -0.0920
 4475TIP3    H134840   6.579   3.222  10.764  1.2753  0.3636 -1.2199
 4475TIP3    H234841   6.531   3.355  10.709  0.6044  0.8922  0.5836
 4476TIP3   OH234842   4.655   3.451  15.466 -0.6236 -0.6658 -0.3414
 4476TIP3    H134843   4.703   3.517  15.417 -1.9281 -0.8284 -1.9450
 4476TIP3    H234844   4.568   3.489  15.478 -1.1549 -1.7688 -0.5892
 4477TIP3   OH234845   6.736   3.821   2.755 -0.0452 -0.3727  0.0089
 4477TIP3    H134846   6.782   3.758   2.812  0.2250 -1.8394 -1.7364
 4477TIP3    H234847   6.803   3.885   2.731  0.5629 -1.2951 -0.8111
 4478TIP3   OH234848   6.218   3.673  12.891  0.0049 -0.0293  0.1603
 4478TIP3    H134849   6.213   3.589  12.936 -1.5981 -1.4174 -2.3129
 4478TIP3    H234850   6.285   3.660  12.824  0.7846  1.2112  0.6769
 4479TIP3   OH234851   0.911   6.652  11.344 -0.5264 -0.2786 -0.1540
 4479TIP3    H134852   0.889   6.742  11.319 -2.4760 -0.7448 -0.3210
 4479TIP3    H234853   0.864   6.598  11.280 -1.1107 -1.4300  1.2045
 4480TIP3   OH234854   6.167   2.212  11.107  0.4460  0.0395 -0.2232
 4480TIP3    H134855   6.251   2.229  11.065  0.3301 -1.1680 -0.9880
 4480TIP3    H234856   6.137   2.130  11.069 -0.9606  0.3073  0.2410
 4481TIP3   OH234857   3.574   4.697   1.648  0.8251  0.1049  0.2454
 4481TIP3    H134858   3.537   4.610   1.665 -0.8411  1.0757  1.8399
 4481TIP3    H234859   3.592   4.697   1.554 -1.2395 -1.2021 -0.2014
 4482TIP3   OH234860   6.334   3.074  16.791  0.0612  0.1694  0.4304
 4482TIP3    H134861   6.251   3.077  16.838  0.5808  0.0198  1.3747
 4482TIP3    H234862   6.401   3.072  16.859  0.8652  0.7714 -0.3103
 4483TIP3   OH234863   6.646   4.630   0.934  0.2148 -0.4422  0.0218
 4483TIP3    H134864   6.614   4.637   0.844 -1.5517 -1.9528  0.4942
 4483TIP3    H234865   6.691   4.714   0.949 -2.2835  1.2289 -1.1827
 4484TIP3   OH234866   5.187   2.258   5.381  0.5245  0.2522 -0.2935
 4484TIP3    H134867   5.250   2.203   5.336  0.1961 -1.3439  1.0771
 4484TIP3    H234868   5.236   2.299   5.453  0.3868  0.4072 -0.2852
 4485TIP3   OH234869   2.688   5.841   3.752 -0.5226 -0.6046 -0.2054
 4485TIP3    H134870   2.667   5.842   3.658  0.5230  0.1612 -0.4467
 4485TIP3    H234871   2.779   5.871   3.757 -0.5533 -0.6618  1.0574
 4486TIP3   OH234872   0.863   4.960   5.633 -0.0752 -0.0197  0.0572
 4486TIP3    H134873   0.949   4.918   5.627  0.0226  0.2752 -0.7887
 4486TIP3    H234874   0.884   5.054   5.639 -0.3181 -0.0095  0.9715
 4487TIP3   OH234875   3.316   6.718   3.597 -0.0068  0.4770 -0.3835
 4487TIP3    H134876   3.398   6.733   3.549  0.7699  1.5817  1.1794
 4487TIP3    H234877   3.281   6.806   3.610 -0.8317  0.0959 -0.0060
 4488TIP3   OH234878   5.065   2.285   1.658 -0.0863 -0.0104  0.6009
 4488TIP3    H134879   5.091   2.223   1.590  0.6969  2.4157 -1.4993
 4488TIP3    H234880   4.971   2.295   1.646 -0.1594 -0.5252  0.7266
 4489TIP3   OH234881   4.786   4.607  15.782 -0.1816 -0.3623 -0.4671
 4489TIP3    H134882   4.706   4.615  15.730 -0.4660 -1.3735 -0.2110
 4489TIP3    H234883   4.755   4.580  15.869  0.4497 -1.2306 -0.4925
 4490TIP3   OH234884   1.514   5.740   5.006  0.4138 -0.1018  0.6852
 4490TIP3    H134885   1.603   5.756   5.036  0.7611  0.4082 -0.5634
 4490TIP3    H234886   1.508   5.644   4.998  1.2591 -0.0919 -0.3421
 4491TIP3   OH234887   2.041   1.592   0.568  0.7205  0.8698  0.2973
 4491TIP3    H134888   2.029   1.667   0.627  0.2166 -0.1621  1.5623
 4491TIP3    H234889   2.060   1.519   0.627 -0.2795 -0.3164 -0.7963
 4492TIP3   OH234890   0.227   4.314  16.281 -0.1925 -0.1939  0.4062
 4492TIP3    H134891   0.295   4.313  16.214  0.1009 -2.0104  0.7061
 4492TIP3    H234892   0.145   4.314  16.231  0.0248 -0.2668  0.0455
 4493TIP3   OH234893   2.328   5.861   6.321  0.4011 -0.2182 -0.4311
 4493TIP3    H134894   2.261   5.793   6.316  0.3536 -0.4220  2.0853
 4493TIP3    H234895   2.288   5.937   6.278 -0.0614 -1.3051 -2.0516
 4494TIP3   OH234896   0.791   0.854  13.896  0.0026  0.0683  0.6390
 4494TIP3    H134897   0.886   0.849  13.905  0.0715  1.0638  0.5793
 4494TIP3    H234898   0.771   0.803  13.818  0.5579  0.4038  0.2749
 4495TIP3   OH234899   2.032   2.701  17.126 -0.2394 -0.4814 -0.1223
 4495TIP3    H134900   2.097   2.720  17.058 -1.0917 -1.2897 -1.2025
 4495TIP3    H234901   2.080   2.712  17.208  1.3944 -1.4955 -0.8854
 4496TIP3   OH234902   4.453   5.735  14.258 -0.0570 -0.3160 -0.3658
 4496TIP3    H134903   4.455   5.663  14.194 -1.6243 -2.0004  1.3471
 4496TIP3    H234904   4.502   5.701  14.333  1.4314  1.4793 -0.4621
 4497TIP3   OH234905   4.355   3.633  15.204 -0.6414 -0.3524  0.0627
 4497TIP3    H134906   4.363   3.549  15.250 -0.7018 -1.8148 -2.4254
 4497TIP3    H234907   4.264   3.636  15.175  0.2061 -1.3839 -3.1481
 4498TIP3   OH234908   3.186   3.621  13.177 -0.5033 -0.1749 -0.1665
 4498TIP3    H134909   3.118   3.557  13.156 -1.2181  1.3970 -3.4006
 4498TIP3    H234910   3.139   3.704  13.188  0.6485  0.4114  0.6290
 4499TIP3   OH234911   4.331   6.712   0.772  0.2261 -0.8638  0.0324
 4499TIP3    H134912   4.377   6.796   0.770  0.2896 -0.9178 -1.4101
 4499TIP3    H234913   4.243   6.734   0.802 -0.0671 -0.0989 -1.3012
 4500TIP3   OH234914   6.431   5.818   0.259  0.8704 -0.0543 -0.7326
 4500TIP3    H134915   6.512   5.850   0.299  0.2913 -1.3426  1.6406
 4500TIP3    H234916   6.454   5.731   0.226  1.0533  0.5685 -2.3418
 4501TIP3   OH234917   1.969   2.507  11.843  0.1317 -0.5619 -0.0272
 4501TIP3    H134918   1.923   2.591  11.842 -3.2112 -2.2590 -0.3456
 4501TIP3    H234919   1.956   2.474  11.932 -0.1457 -1.5266 -0.4156
 4502TIP3   OH234920   6.012   5.989  11.212  0.1919  0.4957 -0.9031
 4502TIP3    H134921   5.919   5.968  11.199  0.3568 -0.4380 -0.6451
 4502TIP3    H234922   6.044   5.920  11.271  1.0735  0.7615 -1.0584
 4503TIP3   OH234923   2.540   6.668  13.542 -0.0425 -0.4320 -0.0418
 4503TIP3    H134924   2.529   6.664  13.637  0.7041  0.0974  0.0754
 4503TIP3    H234925   2.602   6.740  13.528 -0.8197  0.0824 -0.9862
 4504TIP3   OH234926   0.509   1.991  14.807 -0.1940 -0.8442 -0.2791
 4504TIP3    H134927   0.501   2.004  14.712  1.0186 -0.1267 -0.2925
 4504TIP3    H234928   0.577   1.925  14.817  0.7646  0.1765  0.1242
 4505TIP3   OH234929   4.662   2.926   3.488  0.1030 -0.7674  0.0972
 4505TIP3    H134930   4.662   2.942   3.394 -2.0548 -0.7248  0.0564
 4505TIP3    H234931   4.573   2.895   3.507  0.9026 -2.0989  1.9137
 4506TIP3   OH234932   3.591   5.368   0.659 -0.1599 -0.0901 -0.4873
 4506TIP3    H134933   3.613   5.411   0.576  0.3830 -0.4310 -0.5308
 4506TIP3    H234934   3.496   5.361   0.658 -0.3118  1.6281 -0.2049
 4507TIP3   OH234935   6.423   4.348   1.716  0.1413  0.3597  0.4559
 4507TIP3    H134936   6.492   4.389   1.663 -0.4606 -0.5216 -1.0765
 4507TIP3    H234937   6.470   4.297   1.781  0.9775 -0.6831 -0.9235
 4508TIP3   OH234938   2.159   0.875   0.155  0.1947 -0.0819 -0.1798
 4508TIP3    H134939   2.239   0.851   0.202 -0.3323  2.4921  2.2660
 4508TIP3    H234940   2.190   0.930   0.082  0.7439 -0.6824 -0.4119
 4509TIP3   OH234941   2.904   5.955  17.072  0.1801 -0.4186 -0.0075
 4509TIP3    H134942   2.824   5.903  17.069 -1.0734  1.4537 -1.2423
 4509TIP3    H234943   2.885   6.023  17.137  0.8200 -0.0320 -0.2215
 4510TIP3   OH234944   6.640   4.431   1.095 -0.3572  0.4714  0.0306
 4510TIP3    H134945   6.724   4.433   1.141  0.5632 -3.7380 -0.9803
 4510TIP3    H234946   6.641   4.509   1.040  1.8129  1.7664  1.7475
 4511TIP3   OH234947   5.938   0.723  15.230  0.1931  0.8613 -0.4415
 4511TIP3    H134948   6.023   0.680  15.244  0.5888  1.6071 -0.4981
 4511TIP3    H234949   5.901   0.731  15.318  0.1175  0.4203 -0.4293
 4512TIP3   OH234950   4.756   4.284  16.835 -0.1877  0.4222 -0.0416
 4512TIP3    H134951   4.835   4.253  16.879 -0.9589 -1.2775  0.2198
 4512TIP3    H234952   4.765   4.253  16.745 -0.7145 -0.1247  0.0854
 4513TIP3   OH234953   5.133   3.474   5.390  0.6367  0.4815 -0.2748
 4513TIP3    H134954   5.039   3.465   5.371  1.1767 -0.5386 -2.9948
 4513TIP3    H234955   5.158   3.390   5.427  0.5549  0.6377  0.1415
 4514TIP3   OH234956   3.675   2.948   6.442  0.0215  0.3334  0.1127
 4514TIP3    H134957   3.585   2.917   6.450  0.4173 -0.6286  1.0076
 4514TIP3    H234958   3.725   2.870   6.416  0.2469  1.3619 -2.9612
 4515TIP3   OH234959   2.528   4.160   2.169  0.2578 -0.5843  0.6583
 4515TIP3    H134960   2.467   4.149   2.096  0.1865 -0.8559  0.7598
 4515TIP3    H234961   2.557   4.251   2.162 -0.2422 -0.4183  0.6720
 4516TIP3   OH234962   6.219   3.093   2.554  0.1920 -0.2461  0.0150
 4516TIP3    H134963   6.281   3.166   2.548 -0.1213  0.0238 -0.0016
 4516TIP3    H234964   6.231   3.044   2.473  1.0094 -0.7054  0.4020
 4517TIP3   OH234965   1.493   6.099  10.574  0.8335  0.3235 -0.3859
 4517TIP3    H134966   1.536   6.039  10.635 -0.8398 -0.7646 -0.1977
 4517TIP3    H234967   1.564   6.147  10.534  2.0166  2.0987  3.3744
 4518TIP3   OH234968   0.215   5.475  12.918 -0.4554 -0.3544  0.9444
 4518TIP3    H134969   0.288   5.537  12.907 -0.7028 -0.2816 -0.4807
 4518TIP3    H234970   0.148   5.526  12.964  0.0663 -0.1582  1.4985
 4519TIP3   OH234971   3.443   4.585  15.675  0.2564 -0.4493  0.3665
 4519TIP3    H134972   3.495   4.658  15.708  1.5191 -0.1740 -2.0307
 4519TIP3    H234973   3.360   4.625  15.648 -0.8223 -0.6861  3.0010
 4520TIP3   OH234974   1.901   6.460  13.919 -0.4208  0.0922  0.0689
 4520TIP3    H134975   1.962   6.386  13.917 -0.3645  0.0781  1.4314
 4520TIP3    H234976   1.828   6.433  13.864 -0.2747 -0.8663  0.3301
 4521TIP3   OH234977   5.016   0.420  11.389  0.2177 -0.0938 -0.2384
 4521TIP3    H134978   5.006   0.468  11.306  1.0413 -0.9419 -0.8568
 4521TIP3    H234979   4.985   0.481  11.456 -0.5071  0.5965 -1.1738
 4522TIP3   OH234980   3.505   6.648   5.336  0.4901 -0.1034  0.6212
 4522TIP3    H134981   3.443   6.706   5.381  1.1865 -0.8887  2.6973
 4522TIP3    H234982   3.589   6.693   5.343  0.6421 -0.3302  0.2542
 4523TIP3   OH234983   5.186   3.017  13.833 -0.3467  0.4789  0.1920
 4523TIP3    H134984   5.172   2.956  13.905 -1.6363  0.6390  0.1131
 4523TIP3    H234985   5.210   2.962  13.759  0.9381  0.3096  0.7175
 4524TIP3   OH234986   1.930   6.221   2.093 -0.2591 -0.1872 -0.3571
 4524TIP3    H134987   1.856   6.238   2.151  0.8919  0.7306  0.9143
 4524TIP3    H234988   2.007   6.246   2.145  0.8943 -0.4286 -1.8866
 4525TIP3   OH234989   1.558   3.104  13.231  0.5792 -0.1194  0.1980
 4525TIP3    H134990   1.601   3.036  13.283  1.2397  0.6236  0.6490
 4525TIP3    H234991   1.471   3.070  13.214  0.0639 -0.0988  2.4418
 4526TIP3   OH234992   6.352   4.736  13.619 -0.4291 -0.5218 -0.1431
 4526TIP3    H134993   6.258   4.736  13.602 -0.6785 -1.6323  1.0707
 4526TIP3    H234994   6.390   4.693  13.542 -0.8116  0.5229 -0.9482
 4527TIP3   OH234995   2.589   6.011  11.211  0.3951 -0.3842  0.0077
 4527TIP3    H134996   2.680   5.979  11.214  0.5175 -0.0172  2.5045
 4527TIP3    H234997   2.598   6.106  11.204  0.2274 -0.3050  0.8246
 4528TIP3   OH234998   2.154   2.648   1.713  0.2699  0.1820  0.7429
 4528TIP3    H134999   2.146   2.742   1.695 -0.6441  0.4293  2.2551
 4528TIP3    H235000   2.185   2.644   1.804  1.5352 -0.9927  0.3043
 4529TIP3   OH235001   3.596   5.496   2.071 -0.1211 -0.1256  0.1104
 4529TIP3    H135002   3.674   5.523   2.021 -0.6038  1.5490  0.2021
 4529TIP3    H235003   3.623   5.502   2.162 -0.5328  1.1255  0.1668
 4530TIP3   OH235004   5.730   0.563  11.087 -0.0854 -0.2607 -0.2331
 4530TIP3    H135005   5.805   0.519  11.047  1.2307  0.1326  1.6765
 4530TIP3    H235006   5.661   0.557  11.021  1.3173 -1.4829 -1.6746
 4531TIP3   OH235007   6.339   2.918   5.041 -0.1464 -0.9095 -0.0869
 4531TIP3    H135008   6.363   2.969   5.118  1.8843 -0.9241 -0.6444
 4531TIP3    H235009   6.284   2.976   4.989  1.1078  0.2798 -0.1221
 4532TIP3   OH235010   3.782   1.365  17.014  0.2403 -0.4847  0.9295
 4532TIP3    H135011   3.805   1.343  16.923  1.3201 -1.0947  1.3275
 4532TIP3    H235012   3.690   1.393  17.010  0.6097  0.6301 -0.5180
 4533TIP3   OH235013   1.394   1.986   2.580 -0.4174  0.6307 -0.0156
 4533TIP3    H135014   1.438   2.063   2.545  2.1557 -1.4731 -1.8351
 4533TIP3    H235015   1.457   1.915   2.568 -3.4332 -2.2102 -0.4413
 4534TIP3   OH235016   4.256   4.314  11.246  0.0864 -0.0296  0.1731
 4534TIP3    H135017   4.276   4.377  11.178 -1.0544 -0.6704 -0.7849
 4534TIP3    H235018   4.181   4.265  11.213 -0.0779 -0.8036  1.5992
 4535TIP3   OH235019   3.803   0.543   4.071 -0.3233  0.5098  0.2566
 4535TIP3    H135020   3.707   0.544   4.073 -0.3767 -1.3111  1.4352
 4535TIP3    H235021   3.824   0.464   4.020  0.4952 -0.1396  1.5592
 4536TIP3   OH235022   5.660   0.629   1.821 -0.1235 -1.1646 -0.2874
 4536TIP3    H135023   5.736   0.620   1.879 -0.8820 -2.1079  0.5924
 4536TIP3    H235024   5.634   0.538   1.803  1.6518 -1.1111 -4.2536
 4537TIP3   OH235025   5.045   0.134  11.286 -0.0492  0.0327 -0.6536
 4537TIP3    H135026   4.966   0.084  11.304 -2.0159  1.5536 -4.0423
 4537TIP3    H235027   5.019   0.225  11.300  1.2744  0.5353 -1.2818
 4538TIP3   OH235028   2.580   2.154  16.306  0.4152 -0.1575 -0.3007
 4538TIP3    H135029   2.570   2.065  16.338  1.0069 -0.0279  0.2592
 4538TIP3    H235030   2.659   2.187  16.349  0.8175  0.2702 -1.3296
 4539TIP3   OH235031   3.120   4.252   2.704 -0.0386 -0.4508 -0.0622
 4539TIP3    H135032   3.168   4.217   2.629  0.3571  0.0263 -0.0349
 4539TIP3    H235033   3.039   4.201   2.706  0.3129 -1.0371 -0.3103
 4540TIP3   OH235034   5.637   4.534   6.702 -0.6189  0.3202 -0.3853
 4540TIP3    H135035   5.721   4.502   6.668  0.5259  1.8088  0.8789
 4540TIP3    H235036   5.630   4.496   6.789 -0.9802  0.6382 -0.2740
 4541TIP3   OH235037   3.751   5.603   2.640  0.0311 -0.3560 -0.4847
 4541TIP3    H135038   3.745   5.641   2.727  1.3183  1.9111 -1.3014
 4541TIP3    H235039   3.693   5.527   2.642 -2.4358  1.4427  1.3763
 4542TIP3   OH235040   2.450   3.350   0.231 -0.0819 -0.1941  0.2923
 4542TIP3    H135041   2.515   3.390   0.289 -0.6093  1.5435 -0.2509
 4542TIP3    H235042   2.407   3.424   0.188 -1.4260 -1.3502 -0.4551
 4543TIP3   OH235043   3.647   4.638  11.435 -0.4098 -0.3181 -0.4543
 4543TIP3    H135044   3.677   4.721  11.396  2.0498 -0.3252  1.1655
 4543TIP3    H235045   3.697   4.571  11.388 -0.9071 -0.7106 -0.4248
 4544TIP3   OH235046   4.510   3.756   7.003  0.1033 -0.2923 -0.0007
 4544TIP3    H135047   4.567   3.760   7.079 -0.4206 -0.3323  0.3977
 4544TIP3    H235048   4.560   3.706   6.938  0.6078 -0.1351  0.2615
 4545TIP3   OH235049   2.061   6.050   3.093 -0.4393 -0.3206  0.1711
 4545TIP3    H135050   2.140   6.102   3.109  0.1896 -1.2750  0.2700
 4545TIP3    H235051   1.992   6.097   3.138 -0.4275  1.8498 -1.9278
 4546TIP3   OH235052   5.714   5.946  13.022 -0.2084 -0.0689 -0.1793
 4546TIP3    H135053   5.691   5.959  12.930  0.6224  1.5273 -0.2007
 4546TIP3    H235054   5.674   6.020  13.068  1.5890  0.6472  0.3184
 4547TIP3   OH235055   3.959   1.469   0.385  0.6318  0.1331 -0.9123
 4547TIP3    H135056   4.027   1.517   0.338  0.0594  2.3712  0.4508
 4547TIP3    H235057   3.892   1.453   0.319  1.7652 -0.7675 -1.8993
 4548TIP3   OH235058   1.297   1.233  15.646 -0.9804 -0.6227  0.3654
 4548TIP3    H135059   1.375   1.196  15.604 -0.2028  0.8046  0.4908
 4548TIP3    H235060   1.322   1.245  15.737 -0.9541  0.8046  0.1969
 4549TIP3   OH235061   2.341   0.305   5.586 -0.0177  0.3379  0.1607
 4549TIP3    H135062   2.353   0.212   5.605  0.4401  0.2860 -0.3600
 4549TIP3    H235063   2.417   0.348   5.626  0.4817  0.3275 -0.7458
 4550TIP3   OH235064   3.852   6.014  10.895  0.2024  0.6153  0.1838
 4550TIP3    H135065   3.820   6.073  10.826  0.4762 -0.0648 -0.5421
 4550TIP3    H235066   3.777   5.956  10.913  0.4388  0.1718 -0.2395
 4551TIP3   OH235067   1.416   5.241   2.420  0.2618  0.0974 -0.1402
 4551TIP3    H135068   1.439   5.177   2.486  0.6593 -0.9518 -1.2650
 4551TIP3    H235069   1.462   5.321   2.447 -0.3810 -0.0007  1.3593
 4552TIP3   OH235070   3.914   5.459  13.775  0.2690 -0.6618 -0.2190
 4552TIP3    H135071   3.869   5.479  13.857  0.0766 -2.1531  0.0595
 4552TIP3    H235072   3.889   5.531  13.717 -0.9823 -0.4738  0.5030
 4553TIP3   OH235073   2.327   2.861   3.383  0.4986  0.5321 -0.3185
 4553TIP3    H135074   2.363   2.796   3.322  2.1870  1.2829 -0.1731
 4553TIP3    H235075   2.356   2.945   3.350 -0.8460  1.1774  0.0443
 4554TIP3   OH235076   4.348   2.873  16.281 -0.7558 -0.5677  0.1212
 4554TIP3    H135077   4.265   2.915  16.259 -0.5247  0.1671  0.5897
 4554TIP3    H235078   4.380   2.922  16.357 -0.7565 -1.9974  1.0678
 4555TIP3   OH235079   2.225   4.664   0.566  0.0113 -0.4098  0.1157
 4555TIP3    H135080   2.173   4.740   0.540  2.7868  1.2549 -0.9603
 4555TIP3    H235081   2.314   4.684   0.538  0.8012 -4.4065 -0.8627
 4556TIP3   OH235082   2.252   5.346   0.334 -0.0180  0.0732 -0.4006
 4556TIP3    H135083   2.171   5.368   0.380 -2.0475 -0.1488 -3.6195
 4556TIP3    H235084   2.290   5.431   0.311 -1.4902  0.2791 -2.2910
 4557TIP3   OH235085   1.447   2.108   1.210  0.2469 -0.2272  0.8192
 4557TIP3    H135086   1.459   2.159   1.290  0.4214 -1.6825  1.7756
 4557TIP3    H235087   1.358   2.129   1.181  0.1365  0.2467  1.4703
 4558TIP3   OH235088   2.354   0.504  17.013 -0.5241 -0.1815  0.3488
 4558TIP3    H135089   2.374   0.442  16.943  0.7451  1.2060 -0.5788
 4558TIP3    H235090   2.280   0.555  16.980  0.8037  1.2511 -0.5662
 4559TIP3   OH235091   0.256   5.171  14.573 -0.1433 -0.3062 -0.3726
 4559TIP3    H135092   0.279   5.086  14.610 -1.2181 -0.9525 -1.1119
 4559TIP3    H235093   0.164   5.183  14.596 -0.2575  0.2318 -1.0458
 4560TIP3   OH235094   2.981   5.224  14.878 -0.6022 -0.1449 -0.1710
 4560TIP3    H135095   3.046   5.274  14.829 -0.2058 -0.7033 -0.2336
 4560TIP3    H235096   3.025   5.141  14.898 -1.5333 -0.8196 -0.8199
 4561TIP3   OH235097   0.483   5.602   4.854  0.2157  0.7586  0.1114
 4561TIP3    H135098   0.417   5.649   4.803  1.3279  0.1401 -2.0351
 4561TIP3    H235099   0.554   5.666   4.864  0.2116  0.7109  0.4522
 4562TIP3   OH235100   0.242   2.545   1.995  0.1914 -0.5998 -0.4357
 4562TIP3    H135101   0.290   2.626   2.009 -0.3533 -0.0013 -1.9602
 4562TIP3    H235102   0.305   2.487   1.953  0.7155 -1.1622  1.0405
 4563TIP3   OH235103   3.253   4.079  14.182 -0.0158  0.1585  0.1785
 4563TIP3    H135104   3.213   3.996  14.207 -0.5084  0.0310 -1.0044
 4563TIP3    H235105   3.222   4.141  14.248 -0.9847 -0.2442  0.1138
 4564TIP3   OH235106   3.118   3.960  17.078 -0.1242  0.3088  0.3538
 4564TIP3    H135107   3.042   4.019  17.079  0.5623  1.2806  2.8427
 4564TIP3    H235108   3.192   4.017  17.060  0.3337 -0.1073  0.8953
 4565TIP3   OH235109   5.831   1.080   5.346 -0.1043 -0.0929 -0.1930
 4565TIP3    H135110   5.748   1.036   5.364 -0.2404 -0.4013 -1.4754
 4565TIP3    H235111   5.805   1.166   5.312  0.0755 -0.4614 -1.2815
 4566TIP3   OH235112   2.142   1.712  15.033  0.1188 -0.1738  0.3763
 4566TIP3    H135113   2.053   1.685  15.056  0.3579 -1.3085  0.0075
 4566TIP3    H235114   2.188   1.717  15.116  0.1117 -1.0917  0.4428
 4567TIP3   OH235115   0.355   1.544   2.978  0.3267  0.3026 -0.2055
 4567TIP3    H135116   0.398   1.609   2.922  1.5575 -1.0026 -0.8105
 4567TIP3    H235117   0.307   1.597   3.042  0.5651  1.8130 -1.2147
 4568TIP3   OH235118   5.128   1.180   3.029 -0.7122  0.9611  0.3529
 4568TIP3    H135119   5.048   1.128   3.021  0.9281 -1.6327 -0.2094
 4568TIP3    H235120   5.185   1.147   2.959  1.2797  1.9374  1.4398
 4569TIP3   OH235121   5.458   5.568   0.502 -0.3064 -0.3177  0.6109
 4569TIP3    H135122   5.553   5.571   0.510  0.2056 -1.8211 -3.0081
 4569TIP3    H235123   5.438   5.477   0.482 -2.5485 -0.0033  1.0917
 4570TIP3   OH235124   3.540   0.204   5.218  0.2581  0.3300 -0.2027
 4570TIP3    H135125   3.494   0.132   5.175 -1.0063  1.2653 -0.4575
 4570TIP3    H235126   3.474   0.272   5.228  0.9972  0.8340  1.5925
 4571TIP3   OH235127   6.149   2.720   2.614 -0.3364 -0.5744  0.2243
 4571TIP3    H135128   6.063   2.679   2.600 -1.1166  0.1959  2.3147
 4571TIP3    H235129   6.130   2.814   2.620  0.6769 -0.3739  0.4918
 4572TIP3   OH235130   4.925   2.315  12.013 -0.2481 -0.5733 -0.4061
 4572TIP3    H135131   4.918   2.371  11.935  0.6930  0.1696  0.0172
 4572TIP3    H235132   4.873   2.238  11.992 -1.7032  0.5146 -0.9544
 4573TIP3   OH235133   4.973   0.799  12.525 -0.3186  0.2498  0.6269
 4573TIP3    H135134   4.933   0.743  12.458 -0.7701  0.8570  0.3833
 4573TIP3    H235135   5.059   0.761  12.540 -0.9517 -1.0606  1.1226
 4574TIP3   OH235136   1.879   6.304   5.576  0.3933 -0.0150 -0.3178
 4574TIP3    H135137   1.836   6.250   5.509 -0.4948  0.2956 -0.0062
 4574TIP3    H235138   1.807   6.343   5.625  1.0375  0.5549  0.1858
 4575TIP3   OH235139   6.167   5.796   1.694  0.3354  0.0436  0.3596
 4575TIP3    H135140   6.222   5.873   1.712 -0.0219  0.5065 -0.4845
 4575TIP3    H235141   6.078   5.830   1.691 -0.0160 -0.6966  1.6608
 4576TIP3   OH235142   0.501   3.742  12.976  0.4652 -0.6426 -0.2905
 4576TIP3    H135143   0.424   3.793  12.953 -0.5719 -0.8852  2.3234
 4576TIP3    H235144   0.527   3.699  12.894 -0.4225  1.6584 -1.8702
 4577TIP3   OH235145   1.910   3.206  15.075  0.6112  0.0642  0.2124
 4577TIP3    H135146   1.981   3.266  15.054  0.0389  1.1968  1.3570
 4577TIP3    H235147   1.841   3.262  15.111 -0.5736 -1.0919 -0.1694
 4578TIP3   OH235148   2.502   6.180  16.234 -0.0306  0.2442 -0.3521
 4578TIP3    H135149   2.503   6.096  16.188 -0.5319  0.6911 -1.1954
 4578TIP3    H235150   2.410   6.197  16.251  0.0949  0.4794  0.0803
 4579TIP3   OH235151   6.501   4.093   6.213  0.0394  0.0371 -0.1986
 4579TIP3    H135152   6.407   4.108   6.210 -0.4225 -0.5921  4.3929
 4579TIP3    H235153   6.511   4.009   6.259  2.8357  0.3940  0.0331
 4580TIP3   OH235154   1.519   2.164   2.008  0.1166 -0.4675  0.3156
 4580TIP3    H135155   1.449   2.228   1.995  0.1140 -0.4538  0.3971
 4580TIP3    H235156   1.485   2.083   1.971 -0.1366 -0.5846  0.7977
 4581TIP3   OH235157   4.712   3.916   2.000 -0.3996  0.2352  0.4294
 4581TIP3    H135158   4.758   3.865   1.934 -0.2076  0.5051  0.3510
 4581TIP3    H235159   4.771   3.915   2.076 -1.5806 -1.9408  1.4086
 4582TIP3   OH235160   4.480   2.171  14.845 -0.6836  0.6300 -0.7776
 4582TIP3    H135161   4.521   2.254  14.822 -1.3592  1.2386  0.1477
 4582TIP3    H235162   4.388   2.181  14.819 -1.0134  0.5991  0.3244
 4583TIP3   OH235163   0.969   0.833   1.981 -0.4297 -0.1948 -0.1841
 4583TIP3    H135164   0.984   0.741   2.002  0.4003 -0.1944 -0.7244
 4583TIP3    H235165   0.916   0.867   2.054  0.6954 -0.6704  0.8813
 4584TIP3   OH235166   0.547   3.361  13.823 -0.1914  0.6298  0.0415
 4584TIP3    H135167   0.530   3.274  13.860  1.0341 -0.0098 -0.8108
 4584TIP3    H235168   0.592   3.343  13.740 -1.5459  2.0379 -1.0741
 4585TIP3   OH235169   6.001   2.320  12.535 -0.0209  0.0691 -0.0418
 4585TIP3    H135170   5.921   2.273  12.557 -0.5222 -0.2741 -2.3896
 4585TIP3    H235171   5.976   2.377  12.463  1.5181  1.0562  0.1707
 4586TIP3   OH235172   0.037   6.121   0.391  0.0847 -0.1440 -0.6293
 4586TIP3    H135173   0.121   6.138   0.350  0.9927 -0.7729  0.8790
 4586TIP3    H235174   0.011   6.205   0.429  0.8778 -0.3326  0.3560
 4587TIP3   OH235175   6.266   3.444   3.404 -0.1746  0.7967 -0.5656
 4587TIP3    H135176   6.179   3.483   3.393  0.2586  1.6610 -0.9571
 4587TIP3    H235177   6.250   3.350   3.397 -1.3282  0.8214  1.0220
 4588TIP3   OH235178   4.236   0.056   3.855 -0.1657 -0.1480 -0.3052
 4588TIP3    H135179   4.283   0.137   3.877 -1.4202  0.3043  0.8483
 4588TIP3    H235180   4.197   0.073   3.770  1.9792 -0.6636 -1.4695
 4589TIP3   OH235181   1.016   0.389   1.837  0.0605 -0.1675  0.2798
 4589TIP3    H135182   0.947   0.454   1.824  2.0074  2.1304  0.6955
 4589TIP3    H235183   1.025   0.383   1.932  1.6234  1.0027  0.2465
 4590TIP3   OH235184   5.924   0.745  13.413 -0.6707 -0.1706 -0.3186
 4590TIP3    H135185   5.898   0.777  13.499  0.4489  0.1972 -0.1023
 4590TIP3    H235186   6.014   0.775  13.402 -0.1087 -1.8936 -0.7896
 4591TIP3   OH235187   1.760   3.673   2.930  0.1448 -0.1325  0.0241
 4591TIP3    H135188   1.830   3.733   2.903 -0.9618  1.8258  1.3343
 4591TIP3    H235189   1.783   3.647   3.019  0.5991 -1.7206 -0.5154
 4592TIP3   OH235190   4.261   1.690  14.499  0.8174  0.6075  0.0004
 4592TIP3    H135191   4.250   1.695  14.594 -1.5674  2.3282 -0.2549
 4592TIP3    H235192   4.182   1.645  14.469  1.6540 -0.1092 -1.1557
 4593TIP3   OH235193   2.217   3.224  11.613 -0.2994 -0.2915 -0.1644
 4593TIP3    H135194   2.175   3.141  11.593  1.0263 -0.6782 -1.5142
 4593TIP3    H235195   2.310   3.208  11.599  0.1667  0.9901  1.1414
 4594TIP3   OH235196   5.789   0.241   0.562 -0.1326  0.0370  0.0729
 4594TIP3    H135197   5.793   0.180   0.636  0.8621  0.4591  0.3771
 4594TIP3    H235198   5.825   0.323   0.596 -2.2269  1.1048 -0.0620
 4595TIP3   OH235199   4.814   5.123  12.505  0.9287  0.3360  0.7312
 4595TIP3    H135200   4.904   5.154  12.493  1.0337 -0.8965 -3.1021
 4595TIP3    H235201   4.801   5.060  12.434 -3.2457  1.0645  0.6063
 4596TIP3   OH235202   4.689   5.657  14.688  0.1653  0.3809 -0.1710
 4596TIP3    H135203   4.660   5.742  14.721 -2.8414 -1.5598  2.9133
 4596TIP3    H235204   4.761   5.631  14.745  0.3030  0.3870 -0.3430
 4597TIP3   OH235205   1.206   5.739   4.363 -0.3936  0.4076 -0.1435
 4597TIP3    H135206   1.267   5.760   4.293 -1.4643  1.0120 -0.9167
 4597TIP3    H235207   1.125   5.716   4.319  0.6125 -5.9957  0.4930
 4598TIP3   OH235208   2.117   0.762  13.941 -0.6995 -0.4697 -0.0067
 4598TIP3    H135209   2.113   0.687  14.000  0.5391 -0.5609 -0.0304
 4598TIP3    H235210   2.126   0.838  13.999  0.6244 -0.5680 -0.0592
 4599TIP3   OH235211   5.869   3.644   4.651 -0.5012 -0.3485 -0.3651
 4599TIP3    H135212   5.965   3.649   4.654 -0.5126  0.3142 -0.8566
 4599TIP3    H235213   5.844   3.607   4.735  0.1765 -0.2419 -0.1110
 4600TIP3   OH235214   0.626   0.127  11.190 -0.3092  0.0549  0.1344
 4600TIP3    H135215   0.690   0.163  11.250 -0.4039  0.9960 -0.3103
 4600TIP3    H235216   0.677   0.096  11.115 -0.2478 -0.5617  0.4237
 4601TIP3   OH235217   6.517   5.957  11.513 -0.1884  0.0549  0.2995
 4601TIP3    H135218   6.444   5.907  11.550 -0.3891 -1.0816 -1.4645
 4601TIP3    H235219   6.475   6.024  11.459  0.0898  1.9724  2.3447
 4602TIP3   OH235220   2.580   3.675   0.545  0.2788  0.2276  0.5898
 4602TIP3    H135221   2.650   3.737   0.566 -0.4233  0.8824  1.0336
 4602TIP3    H235222   2.512   3.728   0.504  0.0969 -0.4333 -0.0031
 4603TIP3   OH235223   0.805   2.058   4.770 -0.1198  0.3998  0.0262
 4603TIP3    H135224   0.882   2.045   4.715 -0.1719  0.7131 -0.1230
 4603TIP3    H235225   0.797   1.977   4.820 -0.1289  0.0671 -0.5020
 4604TIP3   OH235226   3.048   5.691   0.679  0.1280 -0.1402 -0.3679
 4604TIP3    H135227   3.058   5.779   0.715 -0.5349  0.0030 -0.5236
 4604TIP3    H235228   3.070   5.700   0.587  1.1275 -0.3636 -0.1632
 4605TIP3   OH235229   5.826   3.134  13.572  0.5696 -0.2680  0.1150
 4605TIP3    H135230   5.874   3.178  13.502  0.5919 -0.8669 -0.2450
 4605TIP3    H235231   5.736   3.166  13.562  0.4654 -0.7626 -0.5173
 4606TIP3   OH235232   6.252   6.230   1.299  0.1023  0.6178 -0.0873
 4606TIP3    H135233   6.245   6.141   1.263 -0.0209  0.1599  1.0348
 4606TIP3    H235234   6.180   6.278   1.258 -0.2030  0.0371 -0.2397
 4607TIP3   OH235235   0.603   4.845  16.791 -0.1189  0.1166 -0.0156
 4607TIP3    H135236   0.616   4.759  16.831  2.3012 -0.3755 -1.6292
 4607TIP3    H235237   0.588   4.826  16.698 -2.7739  1.3450  0.0724
 4608TIP3   OH235238   3.219   1.818  11.789  0.7805 -0.2350  0.0639
 4608TIP3    H135239   3.151   1.783  11.731 -0.8575 -0.0055  1.7646
 4608TIP3    H235240   3.237   1.905  11.755  0.6248 -0.5032 -0.7212
 4609TIP3   OH235241   1.574   2.776   3.110  0.2991  0.4052 -0.1533
 4609TIP3    H135242   1.550   2.837   3.179 -0.1077  1.6224 -1.3452
 4609TIP3    H235243   1.670   2.769   3.117  0.2413  0.2463  0.7175
 4610TIP3   OH235244   5.852   6.373  16.969 -0.1522  0.5105 -0.3275
 4610TIP3    H135245   5.804   6.401  17.047  1.1601  0.3758  0.5544
 4610TIP3    H235246   5.785   6.331  16.914 -1.1941  1.0354  0.4978
 4611TIP3   OH235247   1.410   6.622   4.520  0.3006  0.1900 -0.2015
 4611TIP3    H135248   1.351   6.601   4.448 -0.0251  0.5165 -0.0355
 4611TIP3    H235249   1.462   6.696   4.487 -0.5334  1.0048  0.2417
 4612TIP3   OH235250   6.216   3.262  14.466  0.2022  0.4070 -0.4004
 4612TIP3    H135251   6.128   3.280  14.501 -0.2030  0.4403 -1.3748
 4612TIP3    H235252   6.200   3.240  14.374  1.0089 -1.7211 -0.0795
 4613TIP3   OH235253   1.960   3.352  15.418  0.0635 -0.2591 -0.1019
 4613TIP3    H135254   2.031   3.290  15.403  2.4320  2.3151 -0.4156
 4613TIP3    H235255   1.962   3.370  15.512 -0.3813 -0.3706 -0.0670
 4614TIP3   OH235256   3.636   4.894   2.099  0.3967  0.5252  0.3444
 4614TIP3    H135257   3.683   4.855   2.025 -1.3901 -1.0246 -0.0411
 4614TIP3    H235258   3.664   4.986   2.099  2.5028 -0.0624 -0.5576
 4615TIP3   OH235259   2.838   1.309   0.818 -0.2726  0.0570  0.1787
 4615TIP3    H135260   2.899   1.247   0.856  0.8521  1.0251 -0.0002
 4615TIP3    H235261   2.778   1.256   0.765  0.6869 -0.8586  0.0034
 4616TIP3   OH235262   2.422   6.351  13.657  0.2310  0.3304 -0.4515
 4616TIP3    H135263   2.435   6.258  13.638  0.8569 -0.0292  1.4719
 4616TIP3    H235264   2.510   6.389  13.650  0.5466  0.1257  1.7243
 4617TIP3   OH235265   1.697   4.485   2.425  0.2579 -0.1850  0.2728
 4617TIP3    H135266   1.735   4.491   2.338 -1.1491  1.6256 -0.2958
 4617TIP3    H235267   1.763   4.525   2.483  0.3268  0.5777 -0.3106
 4618TIP3   OH235268   4.843   1.144   0.970 -0.3201 -0.0215  0.1862
 4618TIP3    H135269   4.833   1.062   0.921 -2.2208 -1.2327  2.3927
 4618TIP3    H235270   4.754   1.179   0.977  0.4704  2.3042 -0.7408
 4619TIP3   OH235271   5.302   0.527   4.801 -0.5258 -0.1321 -0.6388
 4619TIP3    H135272   5.211   0.553   4.787 -0.5506  0.5139  0.5544
 4619TIP3    H235273   5.346   0.607   4.830 -0.1343 -0.9361  1.1099
 4620TIP3   OH235274   5.134   5.731  16.850 -0.9453 -0.2150 -0.3198
 4620TIP3    H135275   5.120   5.639  16.825  0.0603 -0.3411 -0.4676
 4620TIP3    H235276   5.214   5.729  16.904 -1.4342  0.4508  0.4499
 4621TIP3   OH235277   3.386   3.072   2.030 -0.0744 -0.0297 -0.5537
 4621TIP3    H135278   3.349   3.157   2.009 -0.7216  0.5027  2.2808
 4621TIP3    H235279   3.309   3.017   2.049  0.3990 -0.6446 -0.3886
 4622TIP3   OH235280   4.228   0.386   4.016  0.0125  0.1418 -0.3740
 4622TIP3    H135281   4.280   0.419   4.090 -0.0150 -0.8919  0.1311
 4622TIP3    H235282   4.150   0.442   4.015  0.5022  0.8394 -0.2855
 4623TIP3   OH235283   4.380   6.754  13.520  0.3764 -0.2255 -0.2501
 4623TIP3    H135284   4.397   6.843  13.487  2.2037  0.1393  1.4598
 4623TIP3    H235285   4.458   6.733  13.571 -0.7511 -2.1756  0.7597
 4624TIP3   OH235286   2.043   3.971  12.537 -0.2357 -0.0019  0.0534
 4624TIP3    H135287   1.978   3.990  12.605 -1.5556 -0.8708 -0.9061
 4624TIP3    H235288   2.068   4.056  12.503 -0.6717  0.3667  0.6330
 4625TIP3   OH235289   0.868   4.485   4.161  0.1678  0.6361  0.0273
 4625TIP3    H135290   0.839   4.467   4.072  0.1305 -0.9382  0.3344
 4625TIP3    H235291   0.877   4.581   4.164 -1.7558  0.9117 -1.0605
 4626TIP3   OH235292   3.460   3.991   3.508 -0.3539 -0.0071  0.2412
 4626TIP3    H135293   3.546   3.954   3.487  0.4161  0.7865  1.8067
 4626TIP3    H235294   3.446   4.059   3.442  0.5055  0.2670  0.3337
 4627TIP3   OH235295   3.658   2.534  11.945 -0.1090  0.1702  0.4008
 4627TIP3    H135296   3.674   2.447  11.982 -4.4739 -0.5151  1.1667
 4627TIP3    H235297   3.636   2.588  12.021  0.0700  1.2696 -0.3172
 4628TIP3   OH235298   5.921   3.290  11.029  0.2248  0.1674  0.1402
 4628TIP3    H135299   5.955   3.363  11.081  0.7788  0.0930 -0.1120
 4628TIP3    H235300   5.869   3.238  11.092  1.2051 -0.1357  0.7164
 4629TIP3   OH235301   6.427   3.158   4.725  0.3819  0.2187 -0.3341
 4629TIP3    H135302   6.397   3.075   4.762  1.8009  0.2382  0.9618
 4629TIP3    H235303   6.377   3.225   4.772  0.1354  0.1619 -0.5077
 4630TIP3   OH235304   3.953   3.588   2.993  0.0206 -0.2916  0.2757
 4630TIP3    H135305   4.048   3.582   3.000 -0.0442 -0.7350  0.8659
 4630TIP3    H235306   3.931   3.673   3.031  0.0142 -1.0591  2.0626
 4631TIP3   OH235307   3.805   3.058   0.405  0.1239  0.6566 -0.0322
 4631TIP3    H135308   3.899   3.049   0.387  0.1342 -0.5403  0.4795
 4631TIP3    H235309   3.793   3.013   0.488 -1.0533 -0.0050 -0.5371
 4632TIP3   OH235310   0.204   0.649   2.857 -0.4598 -0.5225  0.1077
 4632TIP3    H135311   0.299   0.659   2.852 -0.6195  0.3099 -2.0084
 4632TIP3    H235312   0.191   0.589   2.930  1.6888 -0.8252  0.3214
 4633TIP3   OH235313   1.814   3.262  12.137  0.2194  0.6155  0.1074
 4633TIP3    H135314   1.739   3.212  12.106 -0.1476  0.5815  1.0400
 4633TIP3    H235315   1.889   3.224  12.091 -0.3934  1.0651 -1.3114
 4634TIP3   OH235316   5.484   4.720  12.127  0.1839 -0.4559 -0.0693
 4634TIP3    H135317   5.520   4.725  12.215 -0.2381 -1.4616  0.1656
 4634TIP3    H235318   5.550   4.764  12.072  0.9990 -0.8500  0.5732
 4635TIP3   OH235319   2.596   5.059  13.939  0.5508 -0.4442 -0.2189
 4635TIP3    H135320   2.590   5.062  13.843  3.2781  0.6787 -0.4601
 4635TIP3    H235321   2.566   5.146  13.966 -0.1821 -0.7485 -0.0513
 4636TIP3   OH235322   2.923   2.115   3.468  0.0089 -0.1018 -0.0792
 4636TIP3    H135323   3.012   2.085   3.451  0.6530  1.6148  0.0921
 4636TIP3    H235324   2.933   2.187   3.530 -1.1527  2.2123 -2.3755
 4637TIP3   OH235325   4.058   3.217  11.970 -0.0000 -0.4317  0.1874
 4637TIP3    H135326   4.039   3.171  11.889 -1.6310 -0.4021  0.5272
 4637TIP3    H235327   3.995   3.289  11.973  0.9730  0.4368  0.8052
 4638TIP3   OH235328   1.324   6.653  14.527 -0.2020  0.4752  0.1321
 4638TIP3    H135329   1.291   6.710  14.596 -1.2532  0.4775 -0.3593
 4638TIP3    H235330   1.380   6.710  14.474 -0.5062  0.8237  0.1818
 4639TIP3   OH235331   0.698   4.197  16.730 -0.2281 -0.4075  0.1811
 4639TIP3    H135332   0.644   4.229  16.658  2.5212 -0.9713 -2.3375
 4639TIP3    H235333   0.734   4.276  16.770  0.6419 -0.0984 -1.1410
 4640TIP3   OH235334   4.404   3.864   0.650 -0.1466 -0.1699 -0.4327
 4640TIP3    H135335   4.376   3.821   0.569  0.2177  0.2435 -0.7843
 4640TIP3    H235336   4.469   3.928   0.621 -0.3467  0.2954  0.1360
 4641TIP3   OH235337   1.571   3.643  15.191  0.4667  0.0602  0.2796
 4641TIP3    H135338   1.522   3.709  15.143 -0.2533 -0.7683 -0.1599
 4641TIP3    H235339   1.655   3.637  15.144  0.6005  0.7721  0.4250
 4642TIP3   OH235340   0.729   5.978   0.572 -0.1326  0.4945  0.2294
 4642TIP3    H135341   0.790   5.904   0.571 -0.8970 -0.1635 -1.0679
 4642TIP3    H235342   0.781   6.052   0.600  1.5520  0.1679 -1.7918
 4643TIP3   OH235343   2.751   5.586  15.979 -0.1337 -0.1522 -0.0848
 4643TIP3    H135344   2.741   5.517  15.914  0.6814  1.3459 -1.8880
 4643TIP3    H235345   2.669   5.584  16.030 -1.4262 -0.4631 -2.0853
 4644TIP3   OH235346   4.661   0.601  15.330 -1.1901  0.0421 -0.2355
 4644TIP3    H135347   4.736   0.635  15.281  0.6733 -0.5063  2.0703
 4644TIP3    H235348   4.606   0.560  15.263 -0.0344  1.4556 -2.1509
 4645TIP3   OH235349   1.628   0.674  13.436  0.6470 -0.4322  0.8645
 4645TIP3    H135350   1.647   0.693  13.344 -1.6891 -1.5544  0.0633
 4645TIP3    H235351   1.541   0.712  13.451  1.2830  0.3544  2.8405
 4646TIP3   OH235352   0.231   0.974   0.127 -0.2119  0.1400 -0.8076
 4646TIP3    H135353   0.259   1.054   0.172 -0.4526  0.5173 -1.3263
 4646TIP3    H235354   0.237   0.906   0.194 -1.9522  0.9397  0.2104
 4647TIP3   OH235355   4.287   6.152  10.736  0.0940 -0.9277 -0.3718
 4647TIP3    H135356   4.239   6.112  10.809  1.2892 -0.5123  0.6700
 4647TIP3    H235357   4.219   6.175  10.673 -1.1540 -0.0454  1.2114
 4648TIP3   OH235358   5.031   4.666  15.814  0.3546  0.1703 -0.2508
 4648TIP3    H135359   5.075   4.584  15.789  0.0270 -0.1942  0.3349
 4648TIP3    H235360   4.941   4.655  15.784  0.6105  0.8340 -1.2703
 4649TIP3   OH235361   2.851   0.726  14.059 -0.0114  0.7814 -0.1850
 4649TIP3    H135362   2.832   0.684  14.143  0.5299  3.3711  1.3231
 4649TIP3    H235363   2.772   0.776  14.038 -0.1475  0.1522 -1.2649
 4650TIP3   OH235364   4.175   6.598   5.027  0.6639 -0.2760  0.3120
 4650TIP3    H135365   4.166   6.551   4.944  2.0566 -0.4412  0.2269
 4650TIP3    H235366   4.102   6.660   5.028 -0.1608 -1.2098 -0.3965
 4651TIP3   OH235367   3.128   1.614  15.675 -0.2795 -0.6442 -0.6223
 4651TIP3    H135368   3.040   1.576  15.676  0.4233 -2.4679  1.7432
 4651TIP3    H235369   3.130   1.672  15.751  0.2793  0.1587 -1.2322
 4652TIP3   OH235370   2.469   5.845   0.146  0.4271  0.1643 -0.2320
 4652TIP3    H135371   2.498   5.929   0.184  0.6376  0.1093 -0.2713
 4652TIP3    H235372   2.378   5.837   0.174 -0.1843  1.3033 -1.7691
 4653TIP3   OH235373   3.800   4.330  14.228  0.3147 -0.0197  0.5970
 4653TIP3    H135374   3.728   4.274  14.198  1.1462 -0.9756  0.3378
 4653TIP3    H235375   3.865   4.325  14.158  1.1770 -0.1837  1.3931
 4654TIP3   OH235376   2.445   3.815   3.805  0.1922  0.1366  0.0224
 4654TIP3    H135377   2.473   3.741   3.751 -1.9520 -0.2830 -0.5774
 4654TIP3    H235378   2.496   3.889   3.770  1.2187 -0.7284 -0.3916
 4655TIP3   OH235379   5.928   1.319   2.341 -0.4408  0.3706  0.1009
 4655TIP3    H135380   5.969   1.291   2.259 -0.7188  0.7630 -0.1716
 4655TIP3    H235381   5.836   1.294   2.332  0.0558 -2.5115  1.5822
 4656TIP3   OH235382   5.275   6.121  11.925 -0.1460 -0.0522  0.8584
 4656TIP3    H135383   5.292   6.075  11.843 -0.5253  0.6467  0.3750
 4656TIP3    H235384   5.360   6.158  11.950 -0.3995  1.4333 -0.3025
 4657TIP3   OH235385   5.125   6.185  11.189 -0.8278  0.1059  0.0477
 4657TIP3    H135386   5.030   6.194  11.188 -1.5422 -4.1988  2.6395
 4657TIP3    H235387   5.147   6.169  11.281  1.8100 -2.5198 -0.8603
 4658TIP3   OH235388   5.356   1.716   6.337 -0.2818 -0.4584 -0.3691
 4658TIP3    H135389   5.333   1.762   6.256 -0.3202 -1.1317 -0.7470
 4658TIP3    H235390   5.435   1.666   6.314 -0.8412 -1.3994 -0.2719
 4659TIP3   OH235391   3.360   4.251  16.577  0.6020 -0.0082  0.0336
 4659TIP3    H135392   3.277   4.203  16.580  0.9817 -0.6727  0.0174
 4659TIP3    H235393   3.382   4.256  16.484  1.6757 -1.7735  0.1436
 4660TIP3   OH235394   3.900   0.892  15.689  0.3763  0.0730 -0.1043
 4660TIP3    H135395   3.982   0.848  15.664  0.1967  0.2307 -1.0133
 4660TIP3    H235396   3.831   0.837  15.651  0.0417 -0.1454  0.7898
 4661TIP3   OH235397   3.328   2.920   4.769 -0.1336  0.0386  0.4413
 4661TIP3    H135398   3.287   2.996   4.810  0.9431  1.2872 -0.6832
 4661TIP3    H235399   3.276   2.905   4.690  0.9983  1.1324 -0.5704
 4662TIP3   OH235400   3.720   3.969   3.218  0.5224 -0.4617  0.1682
 4662TIP3    H135401   3.740   4.017   3.298  1.4255 -1.6470  0.6673
 4662TIP3    H235402   3.628   3.991   3.200  0.5259  0.4113  1.0885
 4663TIP3   OH235403   0.784   4.122   3.455  0.5495  0.4487 -0.2116
 4663TIP3    H135404   0.854   4.058   3.471 -0.7982 -1.1114 -0.3879
 4663TIP3    H235405   0.715   4.098   3.516  0.8074  3.1111  1.2795
 4664TIP3   OH235406   1.594   6.645  11.571 -0.0334  0.0208 -0.3369
 4664TIP3    H135407   1.620   6.737  11.563  0.2278 -0.1042 -1.0068
 4664TIP3    H235408   1.561   6.637  11.660  1.1758  0.4600  0.1703
 4665TIP3   OH235409   2.201   4.836  13.651 -0.0711 -0.8875  0.2029
 4665TIP3    H135410   2.207   4.765  13.587  0.9792 -0.0689 -0.6527
 4665TIP3    H235411   2.250   4.908  13.611 -1.6985  0.5671  0.7325
 4666TIP3   OH235412   0.427   1.836   4.644 -0.4538 -0.1907  0.4526
 4666TIP3    H135413   0.397   1.836   4.553  0.0163 -3.7684  0.1895
 4666TIP3    H235414   0.475   1.919   4.653 -0.6892  0.3692 -2.4705
 4667TIP3   OH235415   1.220   3.169  12.058 -0.1373 -0.4216  0.4278
 4667TIP3    H135416   1.246   3.200  11.971 -1.6820 -0.2407 -0.0038
 4667TIP3    H235417   1.246   3.240  12.117  0.8184 -0.4962  0.1088
 4668TIP3   OH235418   5.790   6.132  12.138  0.0665  0.4774  0.1093
 4668TIP3    H135419   5.827   6.148  12.225 -0.7842  1.6747  0.2872
 4668TIP3    H235420   5.860   6.158  12.078  0.6591 -0.3517  0.4199
 4669TIP3   OH235421   1.535   1.102  16.370 -0.2327  0.0927  0.6416
 4669TIP3    H135422   1.524   1.012  16.403 -1.8572 -0.8459 -2.1501
 4669TIP3    H235423   1.485   1.156  16.431 -1.3769 -1.2433  0.9313
 4670TIP3   OH235424   5.010   4.394   1.580  0.1075 -0.3750  1.1041
 4670TIP3    H135425   5.021   4.311   1.532  0.4054  1.1809 -1.7758
 4670TIP3    H235426   4.925   4.427   1.550  1.0192  1.3951  0.3523
 4671TIP3   OH235427   1.423   2.480   6.056 -0.6460 -0.0719 -0.5389
 4671TIP3    H135428   1.444   2.561   6.009 -2.4172  0.0926 -1.1660
 4671TIP3    H235429   1.490   2.418   6.028 -0.8803  0.4025 -2.3262
 4672TIP3   OH235430   1.936   3.214   5.014  0.3155 -0.4459 -0.1751
 4672TIP3    H135431   1.890   3.191   5.095  1.0299  1.4712  0.8443
 4672TIP3    H235432   2.008   3.152   5.010 -0.2682 -1.1621  0.1567
 4673TIP3   OH235433   2.194   5.719  12.369  0.0768 -0.2351 -0.2859
 4673TIP3    H135434   2.259   5.782  12.399  2.1139 -1.3049 -2.1880
 4673TIP3    H235435   2.163   5.678  12.450  2.6733 -0.4970  0.6887
 4674TIP3   OH235436   3.267   6.321  14.905  0.0600  0.0919 -0.0321
 4674TIP3    H135437   3.237   6.261  14.837 -0.0764 -0.1640  0.2468
 4674TIP3    H235438   3.256   6.408  14.868  0.1423 -0.0528 -0.3958
 4675TIP3   OH235439   1.617   4.297  12.321  0.9839 -0.4531  0.6754
 4675TIP3    H135440   1.587   4.381  12.287 -0.5712 -1.9640 -2.0794
 4675TIP3    H235441   1.706   4.288  12.288  1.1272  0.0826  0.9121
 4676TIP3   OH235442   1.598   3.894  17.135  0.2044 -0.2764  0.0524
 4676TIP3    H135443   1.531   3.826  17.135  1.9732 -2.1424 -1.3504
 4676TIP3    H235444   1.563   3.962  17.078 -0.7726 -0.8803 -0.0871
 4677TIP3   OH235445   6.104   0.327   5.057 -0.5237  0.0306 -0.3959
 4677TIP3    H135446   6.199   0.322   5.053 -0.5298 -1.9213  0.8927
 4677TIP3    H235447   6.078   0.362   4.971  1.3628  1.5554 -0.4014
 4678TIP3   OH235448   6.161   3.804   1.794  0.4695  0.2019  0.1447
 4678TIP3    H135449   6.112   3.883   1.816 -0.5313 -0.8440  1.8630
 4678TIP3    H235450   6.174   3.760   1.877  1.9397 -0.9392 -0.6518
 4679TIP3   OH235451   5.796   2.864   1.220  0.2255 -0.4968  0.2863
 4679TIP3    H135452   5.888   2.854   1.246  0.8411  0.7416 -1.2902
 4679TIP3    H235453   5.755   2.912   1.292  1.2910  0.6923  0.1124
 4680TIP3   OH235454   2.901   3.168   1.691  0.1314  0.0118 -0.2598
 4680TIP3    H135455   2.958   3.093   1.676 -0.6648 -0.4292 -1.1995
 4680TIP3    H235456   2.891   3.172   1.787  0.6902 -0.6835 -0.1663
 4681TIP3   OH235457   5.811   6.432   0.107  0.2129 -0.0802  0.3988
 4681TIP3    H135458   5.862   6.372   0.163 -0.4182 -0.7511  0.2744
 4681TIP3    H235459   5.756   6.480   0.169  0.5090  0.1619  0.4745
 4682TIP3   OH235460   6.414   4.972   0.430  0.3778  0.4116  0.0804
 4682TIP3    H135461   6.413   4.990   0.524  0.3185 -0.1493  0.1850
 4682TIP3    H235462   6.387   4.881   0.421 -0.4000  0.6878 -0.5385
 4683TIP3   OH235463   2.868   2.960   1.118 -0.2602 -0.0098  0.2206
 4683TIP3    H135464   2.958   2.991   1.129 -0.4672  0.1301  1.7074
 4683TIP3    H235465   2.870   2.870   1.149 -0.4237 -0.3473 -0.7239
 4684TIP3   OH235466   2.702   2.905  15.875 -0.1970 -0.1352  0.2319
 4684TIP3    H135467   2.631   2.946  15.826 -0.3722 -1.9691 -1.1388
 4684TIP3    H235468   2.739   2.977  15.927 -1.3031  1.4518 -1.0564
 4685TIP3   OH235469   5.740   1.123   2.164  0.5544 -0.3652 -0.5266
 4685TIP3    H135470   5.689   1.127   2.084 -0.5336 -3.4504 -0.1350
 4685TIP3    H235471   5.688   1.171   2.229  0.4558  0.4270 -1.1801
 4686TIP3   OH235472   3.384   3.779  17.249  0.4434 -0.6951 -0.3400
 4686TIP3    H135473   3.342   3.816  17.171  0.1346  0.6861  0.4504
 4686TIP3    H235474   3.369   3.685  17.242 -2.2888 -0.3200 -0.4153
 4687TIP3   OH235475   4.213   3.206   4.015  0.0206 -0.4309  0.1034
 4687TIP3    H135476   4.302   3.235   4.036  0.2223 -1.1596  0.2696
 4687TIP3    H235477   4.218   3.178   3.923 -0.1109 -0.1896  0.0216
 4688TIP3   OH235478   5.015   2.175  13.653  0.4747 -0.2469 -0.3772
 4688TIP3    H135479   5.053   2.238  13.592  0.7756 -0.1895 -0.1361
 4688TIP3    H235480   5.090   2.124  13.684  0.3740 -0.0272  0.2279
 4689TIP3   OH235481   4.609   0.312  12.660  0.7589 -0.1544  0.7102
 4689TIP3    H135482   4.555   0.235  12.640 -1.0870  1.5519 -1.3638
 4689TIP3    H235483   4.572   0.346  12.741  0.5567 -0.5571  0.7930
 4690TIP3   OH235484   3.715   0.124  11.561 -0.0744  0.2708  0.4665
 4690TIP3    H135485   3.745   0.041  11.598  0.8111  0.0479 -0.6794
 4690TIP3    H235486   3.796   0.167  11.532 -0.6769  0.5750 -0.8557
 4691TIP3   OH235487   2.452   0.552  13.802 -0.3639 -0.0161 -0.1645
 4691TIP3    H135488   2.421   0.633  13.762  0.9571 -0.1124 -1.4495
 4691TIP3    H235489   2.531   0.578  13.850 -0.7945 -0.2827  0.7160
 4692TIP3   OH235490   4.863   2.893  11.768 -0.3518  0.0022 -0.2646
 4692TIP3    H135491   4.908   2.924  11.846 -0.7998  1.2050 -0.4621
 4692TIP3    H235492   4.934   2.866  11.709  0.0107 -0.2973  0.3031
 4693TIP3   OH235493   1.757   1.621  14.203  0.8377 -0.4603 -0.7369
 4693TIP3    H135494   1.753   1.714  14.226 -1.5613 -0.4159 -1.0354
 4693TIP3    H235495   1.776   1.577  14.286 -1.7641  0.1113  0.2691
 4694TIP3   OH235496   5.288   4.639  16.038 -0.3341  0.5403  0.0064
 4694TIP3    H135497   5.242   4.608  16.116 -1.1615 -1.3219 -1.1528
 4694TIP3    H235498   5.291   4.563  15.979  0.7744  1.7130 -1.5528
 4695TIP3   OH235499   2.852   4.978   4.770  0.2072  0.0769 -0.6219
 4695TIP3    H135500   2.919   4.979   4.701 -0.5486 -0.8649 -1.3927
 4695TIP3    H235501   2.775   5.018   4.728  0.2984  1.2845  0.3003
 4696TIP3   OH235502   0.661   5.793  11.670  0.0851  0.0820 -0.0837
 4696TIP3    H135503   0.590   5.763  11.726  0.1715  1.0508  0.5855
 4696TIP3    H235504   0.669   5.887  11.691  1.3185  0.0626 -0.3958
 4697TIP3   OH235505   1.096   6.086  11.122 -0.1785 -0.9873  0.0427
 4697TIP3    H135506   1.079   6.135  11.202  0.9779  0.6780 -0.6746
 4697TIP3    H235507   1.012   6.082  11.077 -0.1561  1.1368 -0.2795
 4698TIP3   OH235508   1.150   4.608   5.647  0.2337  0.3435 -0.6456
 4698TIP3    H135509   1.094   4.584   5.721  0.7894  0.1772 -0.2675
 4698TIP3    H235510   1.090   4.643   5.582 -0.3576 -0.2408 -0.4269
 4699TIP3   OH235511   3.722   1.992   2.861  0.1536  0.1116  0.9031
 4699TIP3    H135512   3.655   2.053   2.893  0.5812 -0.5122  3.1646
 4699TIP3    H235513   3.801   2.046   2.854  0.0557  0.2616  0.9395
 4700TIP3   OH235514   2.141   1.851  12.477 -0.1281 -0.3165  0.1352
 4700TIP3    H135515   2.107   1.846  12.388 -1.0677  0.6649  0.4128
 4700TIP3    H235516   2.105   1.775  12.522  0.9753 -1.2498 -0.4988
 4701TIP3   OH235517   4.422   0.566  14.652  0.3285  0.3844  0.4084
 4701TIP3    H135518   4.492   0.522  14.604  2.2332  1.0745  2.3649
 4701TIP3    H235519   4.438   0.659  14.638 -0.9593  0.5550 -0.0743
 4702TIP3   OH235520   0.854   3.751  12.996 -0.7005 -0.2225  0.3170
 4702TIP3    H135521   0.785   3.740  13.062 -2.0285  2.0841 -0.5726
 4702TIP3    H235522   0.915   3.813  13.036 -0.8505  0.2111 -0.1175
 4703TIP3   OH235523   2.813   3.291   0.765  0.0235  0.2182  0.2508
 4703TIP3    H135524   2.889   3.248   0.803  0.6542  1.2761  0.2177
 4703TIP3    H235525   2.840   3.315   0.676 -0.2595  0.8088  0.3199
 4704TIP3   OH235526   1.907   3.287  14.738  0.4990 -0.4136  0.3255
 4704TIP3    H135527   1.916   3.236  14.657 -0.7347 -1.9832  1.1344
 4704TIP3    H235528   1.895   3.222  14.807 -1.9114  0.9709  1.3230
 4705TIP3   OH235529   6.194   3.644   6.061  0.1274  0.0235 -0.3962
 4705TIP3    H135530   6.283   3.617   6.036 -0.1537  0.2061 -1.6772
 4705TIP3    H235531   6.143   3.563   6.059 -0.0314  0.1330 -1.0846
 4706TIP3   OH235532   6.619   3.001   6.240  0.4295  0.7862  0.2277
 4706TIP3    H135533   6.577   3.060   6.303 -1.1526 -0.3724  0.3217
 4706TIP3    H235534   6.559   2.927   6.233  3.0551 -1.6213  1.3180
 4707TIP3   OH235535   0.076   3.786   0.801  0.0177  0.1068  0.4528
 4707TIP3    H135536   0.001   3.834   0.766  0.0836 -1.1322 -1.5362
 4707TIP3    H235537   0.039   3.718   0.857 -0.4307 -0.9553 -1.0901
 4708TIP3   OH235538   2.771   4.328   2.952 -0.4460  0.0228 -0.4374
 4708TIP3    H135539   2.831   4.385   3.000  0.4789 -2.4352  1.5537
 4708TIP3    H235540   2.780   4.355   2.861  1.5276  1.6274  0.1651
 4709TIP3   OH235541   4.128   1.470  15.694  0.2104 -0.8454  0.2462
 4709TIP3    H135542   4.137   1.375  15.689 -0.0498 -0.9746  1.7388
 4709TIP3    H235543   4.035   1.485  15.710  0.0511 -0.2536 -1.0393
 4710TIP3   OH235544   0.063   0.143  15.201  0.1753 -0.4403  0.8166
 4710TIP3    H135545  -0.023   0.172  15.233  1.0391  1.9484  1.2338
 4710TIP3    H235546   0.100   0.220  15.158  1.6332 -1.7705 -0.4401
 4711TIP3   OH235547   1.116   6.232   2.103 -0.0524 -0.1447 -0.1092
 4711TIP3    H135548   1.189   6.171   2.095  0.1622  0.0785  0.0965
 4711TIP3    H235549   1.131   6.296   2.034  0.3511  0.3049  0.3786
 4712TIP3   OH235550   4.657   6.595  10.994  0.5554 -0.0350 -0.3614
 4712TIP3    H135551   4.718   6.648  10.942  0.6028  1.8409  1.4810
 4712TIP3    H235552   4.571   6.630  10.971  0.3600 -0.9215 -1.0204
 4713TIP3   OH235553   1.615   3.721  16.423 -0.2580 -0.2708  0.0091
 4713TIP3    H135554   1.599   3.696  16.332  0.6480 -0.8466 -0.0059
 4713TIP3    H235555   1.528   3.737  16.459 -0.7089 -1.2167 -0.6292
 4714TIP3   OH235556   4.300   2.096   0.034 -0.4413  0.5140  0.2544
 4714TIP3    H135557   4.217   2.088  -0.013 -0.3219 -1.3278  0.2837
 4714TIP3    H235558   4.324   2.005   0.056  1.6180  0.9994  0.1761
 4715TIP3   OH235559   1.205   0.365   0.060 -0.0890 -0.0225  0.3158
 4715TIP3    H135560   1.263   0.356  -0.016  0.1992  0.4912  0.4694
 4715TIP3    H235561   1.264   0.361   0.136 -0.3737 -0.5243  0.5190
 4716TIP3   OH235562   6.146   3.088  14.756 -1.1197 -0.0646 -0.2749
 4716TIP3    H135563   6.235   3.118  14.740 -1.1026  1.4695  2.1949
 4716TIP3    H235564   6.109   3.074  14.669  0.8265  1.4002 -1.4038
 4717TIP3   OH235565   3.894   3.500  15.584  0.7518  0.2201  0.3213
 4717TIP3    H135566   3.932   3.573  15.632  0.8925 -0.0605  0.6413
 4717TIP3    H235567   3.823   3.468  15.639  0.6800  0.1241  0.1751
 4718TIP3   OH235568   4.600   1.579   3.501 -0.7702  0.2258 -0.0025
 4718TIP3    H135569   4.655   1.641   3.548  1.8804 -0.4255 -2.0416
 4718TIP3    H235570   4.578   1.623   3.419 -0.4297 -0.8004 -0.6594
 4719TIP3   OH235571   3.682   4.486  16.483  0.4826  0.0361 -0.2116
 4719TIP3    H135572   3.722   4.561  16.527  0.3925  0.0945 -0.2294
 4719TIP3    H235573   3.694   4.413  16.544  0.0213  0.1990  0.0786
 4720TIP3   OH235574   5.952   5.184  14.242 -0.1979  0.3568  0.0379
 4720TIP3    H135575   5.889   5.138  14.187 -0.6582  2.2016 -1.0556
 4720TIP3    H235576   5.900   5.216  14.316 -0.6119  1.8538 -0.8496
 4721TIP3   OH235577   5.540   6.494  11.115 -0.1211 -1.0832 -0.1254
 4721TIP3    H135578   5.602   6.464  11.048  1.6939  1.2880  0.3725
 4721TIP3    H235579   5.558   6.439  11.191  1.9301 -0.0170  0.2247
 4722TIP3   OH235580   4.744   3.935   0.904  0.3338  0.1164 -0.0903
 4722TIP3    H135581   4.751   4.021   0.861  3.2990 -0.1855 -0.4172
 4722TIP3    H235582   4.755   3.954   0.997 -0.7976  0.2093  0.0491
 4723TIP3   OH235583   4.091   4.111   1.912  0.0290 -1.0981  0.1705
 4723TIP3    H135584   4.043   4.094   1.992  1.8039  0.3499  1.6268
 4723TIP3    H235585   4.028   4.153   1.854 -1.4769 -2.8268  0.4728
 4724TIP3   OH235586   3.541   0.494   5.083 -0.3113 -0.3658  0.2728
 4724TIP3    H135587   3.480   0.442   5.030 -0.2694 -0.9968  0.8275
 4724TIP3    H235588   3.513   0.585   5.070 -0.5618 -0.5447 -0.4889
 4725TIP3   OH235589   3.108   1.927   4.175  0.3823  0.2548 -0.2861
 4725TIP3    H135590   3.103   1.932   4.271  1.9965  1.0168 -0.1976
 4725TIP3    H235591   3.018   1.916   4.146 -0.3520  1.8171  1.2356
 4726TIP3   OH235592   0.225   3.552   1.192  0.0141  0.0056 -0.3743
 4726TIP3    H135593   0.317   3.545   1.220  0.1696 -1.2577 -1.1263
 4726TIP3    H235594   0.202   3.643   1.207 -0.0431 -0.5258  4.2090
 4727TIP3   OH235595   5.382   5.860   0.452 -0.4474  0.4515  0.5524
 4727TIP3    H135596   5.381   5.764   0.454  0.3257  0.4465  1.9360
 4727TIP3    H235597   5.292   5.885   0.436 -0.4030 -0.5146 -1.5017
 4728TIP3   OH235598   4.702   3.051  17.225 -0.5909  0.1520 -0.0138
 4728TIP3    H135599   4.701   2.976  17.166  0.3285  0.5630 -0.5655
 4728TIP3    H235600   4.795   3.072  17.235 -0.8922  2.3495 -1.3227
 4729TIP3   OH235601   3.930   1.275  11.485 -0.1498  0.3372  0.7419
 4729TIP3    H135602   3.852   1.232  11.521  0.1081  0.1798  1.1128
 4729TIP3    H235603   3.896   1.355  11.445 -0.8490 -0.8346 -1.1779
 4730TIP3   OH235604   2.906   4.935   3.740 -0.3191 -0.7382 -0.4560
 4730TIP3    H135605   2.937   4.991   3.811 -1.5162  2.1230 -2.0410
 4730TIP3    H235606   2.985   4.893   3.706  0.9004  1.3163 -0.2709
 4731TIP3   OH235607   1.986   2.541   0.975 -0.3697  0.4536 -0.1548
 4731TIP3    H135608   1.974   2.625   0.930  0.2359  0.7145  0.1598
 4731TIP3    H235609   1.980   2.562   1.068 -0.4288  0.1095 -0.0799
 4732TIP3   OH235610   2.110   4.186   4.250 -0.4540  0.2637  0.4370
 4732TIP3    H135611   2.029   4.235   4.263 -0.2438  0.9448 -0.7801
 4732TIP3    H235612   2.086   4.095   4.270 -1.8458  0.2520 -1.0821
 4733TIP3   OH235613   6.033   0.703  14.008 -0.0400  0.6587  0.2123
 4733TIP3    H135614   5.944   0.714  14.041 -0.1241 -1.0640  0.6215
 4733TIP3    H235615   6.086   0.762  14.061 -0.6657  0.3121  1.2474
 4734TIP3   OH235616   4.396   3.202  15.611 -0.1553 -0.9058 -0.1481
 4734TIP3    H135617   4.323   3.215  15.671  0.5565  1.7493  0.3069
 4734TIP3    H235618   4.356   3.202  15.524 -0.8062 -0.2491  0.1404
 4735TIP3   OH235619   5.608   2.265  17.101  0.1361  0.0527  0.5774
 4735TIP3    H135620   5.669   2.236  17.033 -1.5270  0.2699 -1.1200
 4735TIP3    H235621   5.661   2.318  17.160  1.7385 -0.4253 -0.3572
 4736TIP3   OH235622   6.074   2.400   6.647 -0.2929 -0.0075  0.5658
 4736TIP3    H135623   6.003   2.457   6.620 -1.5887 -1.2548  1.2155
 4736TIP3    H235624   6.039   2.311   6.637  1.3338 -0.6748  0.4627
 4737TIP3   OH235625   6.163   0.864   3.480  0.1209  0.0859 -0.1676
 4737TIP3    H135626   6.135   0.778   3.448 -1.6949  0.7065 -0.3486
 4737TIP3    H235627   6.114   0.927   3.426  2.0928  1.2802 -0.6497
 4738TIP3   OH235628   2.873   4.391   4.669 -0.5003 -0.2087 -0.3282
 4738TIP3    H135629   2.863   4.399   4.764  0.8472 -1.6142 -0.0271
 4738TIP3    H235630   2.910   4.476   4.642 -1.8935  0.6051  0.2052
 4739TIP3   OH235631   0.213   2.130   0.194  0.1182  0.1677 -0.3657
 4739TIP3    H135632   0.231   2.085   0.111 -0.6860 -0.8498  0.0025
 4739TIP3    H235633   0.221   2.063   0.261 -1.0627  0.5609  0.1978
 4740TIP3   OH235634   4.513   5.740  12.140  0.6015  0.0841 -0.0605
 4740TIP3    H135635   4.603   5.774  12.146  0.5396  0.0554  1.5150
 4740TIP3    H235636   4.520   5.650  12.171  0.4322 -0.7786 -2.3719
 4741TIP3   OH235637   6.737   1.709   5.100  0.4138  0.1642  0.2081
 4741TIP3    H135638   6.767   1.659   5.025  1.4585 -0.6697  1.1485
 4741TIP3    H235639   6.716   1.796   5.065  1.4991 -0.0119 -0.9368
 4742TIP3   OH235640   5.532   0.839  14.919  0.2846 -0.6691 -0.2019
 4742TIP3    H135641   5.553   0.773  14.985 -0.2432 -0.5693  0.0704
 4742TIP3    H235642   5.590   0.912  14.940  0.5022 -0.8437 -0.1844
 4743TIP3   OH235643   3.596   2.602  14.087  0.3105  0.4650 -0.4233
 4743TIP3    H135644   3.647   2.530  14.124 -1.3904  0.3251  1.9021
 4743TIP3    H235645   3.630   2.613  13.998  2.5210 -1.3166  0.1108
 4744TIP3   OH235646   1.572   5.527  14.821 -0.2199 -0.2366 -0.1456
 4744TIP3    H135647   1.611   5.462  14.762 -0.6330  0.7987 -1.6235
 4744TIP3    H235648   1.508   5.477  14.872  2.1603 -1.7400  1.5566
 4745TIP3   OH235649   3.778   2.367  11.622 -0.0891 -0.1438 -0.5767
 4745TIP3    H135650   3.857   2.421  11.618 -0.1461  0.0220  0.3105
 4745TIP3    H235651   3.753   2.354  11.531  1.1815 -0.5211 -0.8945
 4746TIP3   OH235652   1.694   5.881   1.088  0.5836  0.1989  0.4558
 4746TIP3    H135653   1.712   5.840   1.003  1.9951  1.2742  0.2001
 4746TIP3    H235654   1.679   5.973   1.068 -1.0486  0.1163  1.1879
 4747TIP3   OH235655   1.289   1.963   0.238  0.2112  0.1189 -0.7089
 4747TIP3    H135656   1.320   2.046   0.201  2.2915 -0.6545 -0.8819
 4747TIP3    H235657   1.264   1.911   0.161 -0.3083  0.3026 -0.6622
 4748TIP3   OH235658   5.818   2.084  11.489 -0.2715 -0.0950  0.4646
 4748TIP3    H135659   5.812   2.131  11.572  1.9756 -1.5483  1.5602
 4748TIP3    H235660   5.815   2.153  11.422  1.4843  1.5202  1.9266
 4749TIP3   OH235661   2.353   1.252   2.130 -0.0233  0.1027  0.2975
 4749TIP3    H135662   2.427   1.307   2.104 -1.1281  0.6518 -1.9228
 4749TIP3    H235663   2.282   1.277   2.070 -1.2274 -2.2407  0.6241
 4750TIP3   OH235664   3.220   6.633  10.895  0.2808 -0.3274  0.1433
 4750TIP3    H135665   3.294   6.646  10.837  0.7846  0.6103  0.9575
 4750TIP3    H235666   3.237   6.550  10.940  0.0898 -0.8468 -0.7333
 4751TIP3   OH235667   2.670   5.318   4.944 -0.3896 -0.0891 -0.2379
 4751TIP3    H135668   2.592   5.266   4.964 -1.1899  0.6994 -1.1953
 4751TIP3    H235669   2.654   5.352   4.856  1.6952 -1.0972 -1.0836
 4752TIP3   OH235670   4.333   2.180   1.945 -0.7785  0.2504 -0.4039
 4752TIP3    H135671   4.334   2.175   1.850 -1.8162 -0.8270 -0.3911
 4752TIP3    H235672   4.391   2.110   1.974 -0.1746  0.8102 -0.2352
 4753TIP3   OH235673   5.799   0.059   6.100  0.2135  0.0376  0.0145
 4753TIP3    H135674   5.842  -0.024   6.119 -0.3540 -0.5008 -0.9574
 4753TIP3    H235675   5.743   0.076   6.176  0.2123 -0.5552  0.1505
 4754TIP3   OH235676   0.778   2.056  12.218  0.0335  0.0554  0.0145
 4754TIP3    H135677   0.766   2.015  12.133  1.1041  0.1684 -0.1991
 4754TIP3    H235678   0.781   1.982  12.280 -1.5806  0.0076  0.0929
 4755TIP3   OH235679   2.522   0.568  11.960  1.0071  0.1573 -0.0556
 4755TIP3    H135680   2.446   0.621  11.935  2.2217  2.0316 -0.0003
 4755TIP3    H235681   2.544   0.517  11.882  0.6548  0.8229 -0.5974
 4756TIP3   OH235682   4.509   5.469   2.857  0.1798 -0.2361  0.3821
 4756TIP3    H135683   4.551   5.524   2.791 -0.7065  1.5938  1.2671
 4756TIP3    H235684   4.483   5.530   2.925 -1.3311 -1.7144  1.1831
 4757TIP3   OH235685   4.661   4.234   5.616  1.1368  0.2969  0.0382
 4757TIP3    H135686   4.672   4.292   5.541 -0.5498  1.6935  0.8162
 4757TIP3    H235687   4.703   4.279   5.689  0.8653 -0.0331  0.4033
 4758TIP3   OH235688   0.377   0.061   2.980  0.3843 -0.5605  0.0741
 4758TIP3    H135689   0.419   0.105   2.906  0.0804 -0.0977  0.1671
 4758TIP3    H235690   0.403   0.113   3.056 -1.9231  0.9946 -0.0622
 4759TIP3   OH235691   0.023   6.227  13.997  0.5584 -0.0261  0.3354
 4759TIP3    H135692   0.073   6.271  14.066 -0.1282  2.6550 -0.7337
 4759TIP3    H235693   0.077   6.235  13.919  1.3224 -3.0153  0.4604
 4760TIP3   OH235694   4.097   1.380  14.971 -0.4021  0.0167  0.0320
 4760TIP3    H135695   4.025   1.319  14.958 -1.5658  1.3541 -0.0052
 4760TIP3    H235696   4.056   1.466  14.976  1.0345  0.6720  1.5929
 4761TIP3   OH235697   5.587   2.577  15.643  0.3449 -0.7249 -0.5815
 4761TIP3    H135698   5.606   2.494  15.599  1.0560 -0.2229 -1.2452
 4761TIP3    H235699   5.651   2.638  15.607 -0.5995  0.2807 -0.5933
 4762TIP3   OH235700   3.606   5.193  16.838 -0.2246 -0.2157  0.3374
 4762TIP3    H135701   3.611   5.098  16.850 -2.9176 -0.5077 -0.1325
 4762TIP3    H235702   3.635   5.208  16.748  0.9573 -0.4640  0.6598
 4763TIP3   OH235703   5.890   4.255   0.986 -0.1346 -0.0337 -0.1034
 4763TIP3    H135704   5.854   4.231   1.071  0.5834 -0.5364  0.0692
 4763TIP3    H235705   5.815   4.290   0.937 -0.2666  1.6578  1.2307
 4764TIP3   OH235706   6.768   3.161  17.235  0.9336 -0.0200 -0.2756
 4764TIP3    H135707   6.715   3.222  17.286  1.7342  1.4470 -1.1533
 4764TIP3    H235708   6.778   3.202  17.150 -0.0381 -2.2272 -1.5556
 4765TIP3   OH235709   5.068   4.105   4.099 -0.3247 -0.3482 -0.1607
 4765TIP3    H135710   5.105   4.028   4.057  2.6744  1.0122 -0.2510
 4765TIP3    H235711   4.974   4.089   4.099 -0.1444 -2.2766 -3.6128
 4766TIP3   OH235712   2.930   0.561   5.313  0.1483 -0.4563 -0.4511
 4766TIP3    H135713   2.942   0.496   5.244  1.1285 -0.6598 -0.1149
 4766TIP3    H235714   2.835   0.572   5.321  0.0180  0.1455 -2.3524
 4767TIP3   OH235715   0.602   4.252   0.129  0.0125  0.4818 -0.1130
 4767TIP3    H135716   0.647   4.324   0.171 -1.0907 -0.0258  2.0727
 4767TIP3    H235717   0.545   4.294   0.064  2.0871  1.2433 -1.5595
 4768TIP3   OH235718   5.617   6.610   0.832 -0.2058  0.0910 -0.7112
 4768TIP3    H135719   5.540   6.604   0.888 -0.3640  0.5379 -0.8753
 4768TIP3    H235720   5.690   6.616   0.893 -0.3268 -0.0082 -0.5539
 4769TIP3   OH235721   0.162   1.425   3.150  0.1843 -0.1476 -0.1187
 4769TIP3    H135722   0.204   1.350   3.108  0.4367  0.8754 -1.8019
 4769TIP3    H235723   0.089   1.387   3.200  1.3416 -1.6565  0.4926
 4770TIP3   OH235724   0.750   3.052   4.978 -0.1504  0.0726  0.0007
 4770TIP3    H135725   0.663   3.082   4.952  0.4312  1.1222 -0.8367
 4770TIP3    H235726   0.808   3.125   4.956  0.6918  0.1875  2.3553
 4771TIP3   OH235727   1.153   2.392   0.932 -0.0101  0.4816 -0.4606
 4771TIP3    H135728   1.092   2.462   0.910 -0.5084  1.0911  2.5525
 4771TIP3    H235729   1.240   2.430   0.919 -0.2734  1.1305 -0.3129
 4772TIP3   OH235730   0.730   6.405  16.320 -0.0818  0.3566 -0.3337
 4772TIP3    H135731   0.823   6.430  16.316  0.5592 -1.7446  0.1801
 4772TIP3    H235732   0.706   6.414  16.412 -0.0378 -0.2424 -0.2626
 4773TIP3   OH235733   2.958   6.238   2.012  0.0862  0.2055  0.1184
 4773TIP3    H135734   2.921   6.154   1.984 -1.6373  0.8198  0.3988
 4773TIP3    H235735   3.044   6.242   1.971 -0.6218 -0.8162 -1.5378
 4774TIP3   OH235736   4.767   2.183   4.050 -0.2118  0.3017 -0.1598
 4774TIP3    H135737   4.861   2.195   4.064  0.2258 -1.3501 -1.3341
 4774TIP3    H235738   4.753   2.211   3.959 -0.7343 -0.0223 -0.1813
 4775TIP3   OH235739   3.271   0.318   0.051  0.4990  0.1510 -0.0236
 4775TIP3    H135740   3.213   0.382   0.009  0.7564  1.4746  1.5575
 4775TIP3    H235741   3.345   0.370   0.083  0.3562 -0.8016  1.9659
 4776TIP3   OH235742   4.822   0.473  11.145  0.0526 -0.1078  0.2289
 4776TIP3    H135743   4.804   0.508  11.058  1.8158  1.6202  0.4870
 4776TIP3    H235744   4.909   0.506  11.167 -0.5322 -0.0252  2.8567
 4777TIP3   OH235745   3.474   3.136  12.132 -0.2862  0.0186  0.3715
 4777TIP3    H135746   3.412   3.116  12.202  1.0007  0.6598  1.7470
 4777TIP3    H235747   3.559   3.115  12.169  0.4031 -0.1028 -1.2053
 4778TIP3   OH235748   1.038   0.890   2.561  0.0576  0.1455 -0.2117
 4778TIP3    H135749   1.016   0.975   2.599 -1.9447  0.0293 -0.9785
 4778TIP3    H235750   1.021   0.827   2.631  0.0994  0.2456 -0.1104
 4779TIP3   OH235751   2.165   1.174   3.618  0.3021 -0.3611 -0.2976
 4779TIP3    H135752   2.157   1.209   3.529 -1.4158  0.0644 -0.0106
 4779TIP3    H235753   2.159   1.251   3.675  0.2856 -0.7440  0.2240
 4780TIP3   OH235754   6.632   6.600  14.516 -0.6431 -0.0207  0.3775
 4780TIP3    H135755   6.560   6.646  14.559 -0.4681  0.2540  0.3749
 4780TIP3    H235756   6.642   6.519  14.568 -1.2831 -0.3040  0.0759
 4781TIP3   OH235757   4.873   6.445  16.825  0.3517  0.2065 -0.0651
 4781TIP3    H135758   4.823   6.513  16.779  0.1043 -0.5598 -0.9460
 4781TIP3    H235759   4.943   6.421  16.765 -0.9985 -2.0500 -0.8741
 4782TIP3   OH235760   3.025   0.327  11.983  0.6167  0.0460  0.4557
 4782TIP3    H135761   3.010   0.247  12.034 -0.5484  0.1823  0.3683
 4782TIP3    H235762   3.053   0.391  12.048  0.8026 -0.2273  0.6505
 4783TIP3   OH235763   5.532   5.636   2.110  0.3370 -0.0769 -0.3409
 4783TIP3    H135764   5.491   5.584   2.178 -0.4320 -1.1163 -1.5496
 4783TIP3    H235765   5.484   5.718   2.109  1.1989  0.4901  1.2071
 4784TIP3   OH235766   0.461   0.021  12.100  0.1718  0.3372 -0.7672
 4784TIP3    H135767   0.516   0.063  12.166  0.2365 -0.7441 -0.1089
 4784TIP3    H235768   0.398   0.088  12.076  0.7432  1.0572 -0.2972
 4785TIP3   OH235769   0.104   3.067  15.109 -0.7029 -0.6127  0.5663
 4785TIP3    H135770   0.010   3.084  15.112 -0.3260  2.2128 -0.3602
 4785TIP3    H235771   0.144   3.151  15.130  1.6047 -1.1073 -1.3838
 4786TIP3   OH235772   1.416   1.689  14.641 -0.4246  0.0678 -0.3198
 4786TIP3    H135773   1.492   1.637  14.615 -0.5856  0.9844 -2.9733
 4786TIP3    H235774   1.454   1.770  14.676 -0.1581 -0.0233 -0.3915
 4787TIP3   OH235775   2.931   5.452   0.805 -0.5089  0.0250 -0.9438
 4787TIP3    H135776   2.998   5.516   0.782 -2.3386  1.8434 -1.5991
 4787TIP3    H235777   2.920   5.398   0.727  0.4216 -0.5000 -0.7119
 4788TIP3   OH235778   0.296   5.782   1.348 -0.0604  0.2662 -0.2776
 4788TIP3    H135779   0.341   5.728   1.283  1.0680 -0.1668  0.8323
 4788TIP3    H235780   0.284   5.867   1.305  2.6013  0.6784 -0.3450
 4789TIP3   OH235781   5.690   1.310  16.892 -0.0536  0.5570 -0.1249
 4789TIP3    H135782   5.771   1.268  16.862 -0.4345  0.2198 -0.6985
 4789TIP3    H235783   5.690   1.298  16.987  0.3666  0.1946 -0.1668
 4790TIP3   OH235784   4.950   5.022  13.483  0.0584 -0.0790  0.0967
 4790TIP3    H135785   5.029   4.968  13.480 -0.4669 -0.8276 -0.7518
 4790TIP3    H235786   4.888   4.970  13.535 -0.0414  0.2732  0.3308
 4791TIP3   OH235787   6.685   2.679  14.105  0.2851 -0.2254 -0.0879
 4791TIP3    H135788   6.774   2.699  14.077  1.3704 -2.6990  1.3114
 4791TIP3    H235789   6.695   2.639  14.191 -2.2922  0.2558  0.5122
 4792TIP3   OH235790   1.191   4.366  13.663 -0.4514  0.2117  0.2795
 4792TIP3    H135791   1.138   4.391  13.587 -1.4555 -0.4601  0.7316
 4792TIP3    H235792   1.145   4.406  13.738 -1.2487 -1.6599  0.8530
 4793TIP3   OH235793   4.595   4.836   0.202  0.2883  0.1586  0.1310
 4793TIP3    H135794   4.655   4.898   0.243 -1.6810  2.8995 -0.7761
 4793TIP3    H235795   4.509   4.861   0.235 -0.5696 -2.7763  0.4030
 4794TIP3   OH235796   4.804   0.533  17.244  0.0314 -0.0873  0.9312
 4794TIP3    H135797   4.864   0.564  17.312  1.6073  1.6139 -1.0862
 4794TIP3    H235798   4.777   0.446  17.273  3.9847 -1.2400  1.7497
 4795TIP3   OH235799   5.828   6.435  12.681 -0.4841 -0.1838 -0.3375
 4795TIP3    H135800   5.799   6.391  12.761  1.8281 -1.4668 -0.1167
 4795TIP3    H235801   5.826   6.528  12.702 -2.1083 -0.3510  0.4012
 4796TIP3   OH235802   6.137   4.501  16.930  0.8306 -0.1969 -0.1270
 4796TIP3    H135803   6.150   4.432  16.865  1.0656  1.9386 -2.4455
 4796TIP3    H235804   6.072   4.559  16.892  1.0883  1.2448  1.4825
 4797TIP3   OH235805   5.403   0.082  16.906 -0.1427 -0.3899 -0.6584
 4797TIP3    H135806   5.317   0.102  16.869  0.0888 -0.2294 -1.1092
 4797TIP3    H235807   5.465   0.127  16.849  0.1925  0.2597  0.2102
 4798TIP3   OH235808   2.254   1.089  15.163  0.0698 -0.4319 -0.3460
 4798TIP3    H135809   2.347   1.089  15.142  0.0518  0.8843 -0.5035
 4798TIP3    H235810   2.241   1.009  15.213  1.0268 -1.2833 -1.3994
 4799TIP3   OH235811   4.255   4.724  12.264 -0.2455  0.3795  0.2236
 4799TIP3    H135812   4.216   4.811  12.267  0.6157  0.7710  0.4760
 4799TIP3    H235813   4.345   4.740  12.237 -0.4100 -0.5579 -0.9264
 4800TIP3   OH235814   1.935   6.241   2.502 -0.9125 -0.1570  0.3642
 4800TIP3    H135815   1.857   6.212   2.456 -0.9000 -1.8626  1.3305
 4800TIP3    H235816   2.002   6.177   2.478 -0.3951  0.0427  1.2396
 4801TIP3   OH235817   2.421   3.963  16.014 -0.8740 -0.3417  0.1538
 4801TIP3    H135818   2.410   3.908  16.092 -1.0681  0.5711  0.7930
 4801TIP3    H235819   2.349   3.938  15.956  0.7668 -2.9172 -0.9417
 4802TIP3   OH235820   2.477   6.015   4.860 -0.2873 -0.2409 -0.5377
 4802TIP3    H135821   2.520   6.060   4.787 -0.3011  0.2748 -0.2261
 4802TIP3    H235822   2.541   5.951   4.889  0.4377  0.7798  0.1714
 4803TIP3   OH235823   5.316   4.997   0.335  0.5745  0.0775 -0.2667
 4803TIP3    H135824   5.325   4.927   0.269  0.4585 -0.7912  0.6105
 4803TIP3    H235825   5.347   4.957   0.416  3.5883  2.0656 -0.2992
 4804TIP3   OH235826   1.632   5.040  16.594 -0.0039 -0.0145 -0.2279
 4804TIP3    H135827   1.661   4.989  16.519 -0.1202  0.4171 -0.5660
 4804TIP3    H235828   1.701   5.105  16.609  0.5488 -0.7891  0.7235
 4805TIP3   OH235829   0.817   0.685   1.771  0.2565  0.4593  0.0846
 4805TIP3    H135830   0.802   0.641   1.854 -1.4471 -0.3458 -0.5926
 4805TIP3    H235831   0.890   0.745   1.788  1.2631 -1.0881  1.6075
 4806TIP3   OH235832   2.490   6.594   4.423 -0.0367 -0.0529  0.1949
 4806TIP3    H135833   2.403   6.620   4.454 -0.9289 -2.1132 -0.4176
 4806TIP3    H235834   2.497   6.632   4.336 -0.5939 -0.3928 -0.0029
 4807TIP3   OH235835   6.702   1.775  12.916 -0.4379  0.0367  0.5855
 4807TIP3    H135836   6.661   1.737  12.838  1.0795 -0.2729 -0.0931
 4807TIP3    H235837   6.794   1.788  12.892  0.1461 -0.3192  2.4086
 4808TIP3   OH235838   0.760   6.160   4.140 -0.4807  0.6141 -0.1552
 4808TIP3    H135839   0.798   6.118   4.217 -3.3051 -2.2957 -0.1252
 4808TIP3    H235840   0.808   6.123   4.066 -0.0286  0.7623  0.0652
 4809TIP3   OH235841   0.767   1.698  11.829 -0.2426  0.2467  0.0862
 4809TIP3    H135842   0.715   1.617  11.833 -1.8381  1.2629  2.4342
 4809TIP3    H235843   0.715   1.757  11.776 -0.9892  0.8798  1.4585
 4810TIP3   OH235844   0.602   4.697  15.952 -0.6796  0.1664 -0.7139
 4810TIP3    H135845   0.676   4.704  15.892  0.4310  0.3183  0.6128
 4810TIP3    H235846   0.568   4.608  15.937  1.7018 -1.1075  0.7008
 4811TIP3   OH235847   2.375   1.310   5.326  0.4990  0.1066  0.0789
 4811TIP3    H135848   2.465   1.318   5.357  0.3743  1.7387  0.1298
 4811TIP3    H235849   2.321   1.331   5.402  0.0972  0.1172 -0.2048
 4812TIP3   OH235850   1.756   5.065   4.407  0.0869  0.0618 -0.4628
 4812TIP3    H135851   1.820   4.996   4.388 -0.1451 -0.6245  1.0683
 4812TIP3    H235852   1.749   5.064   4.503 -2.6078 -0.2467 -0.5941
 4813TIP3   OH235853   5.697   4.064  12.049  0.8468  0.5670 -0.4160
 4813TIP3    H135854   5.646   4.145  12.040 -0.8184 -0.5257 -1.4093
 4813TIP3    H235855   5.775   4.080  11.997  0.0846  1.2290 -1.4155
 4814TIP3   OH235856   5.667   5.771   0.272 -0.0225 -0.8421 -0.5253
 4814TIP3    H135857   5.631   5.789   0.185 -0.3653  1.2720 -0.0025
 4814TIP3    H235858   5.750   5.726   0.254  1.0797  1.5985 -2.0887
 4815TIP3   OH235859   0.771   2.852   6.424 -0.3260  0.6963 -0.0352
 4815TIP3    H135860   0.863   2.835   6.406 -0.0177  0.9752  1.2064
 4815TIP3    H235861   0.766   2.859   6.519 -2.2406 -3.1745  0.3509
 4816TIP3   OH235862   5.904   1.464  12.482 -0.0228  0.0583  0.3077
 4816TIP3    H135863   5.876   1.504  12.564 -0.5861 -0.7356  0.5101
 4816TIP3    H235864   5.823   1.452  12.432  0.5135  2.9359 -1.5120
 4817TIP3   OH235865   5.488   6.546   4.695 -0.3064  0.1271  0.3997
 4817TIP3    H135866   5.582   6.559   4.708  0.1486 -0.2058 -2.0597
 4817TIP3    H235867   5.456   6.631   4.666 -0.8688  0.3306  1.5538
 4818TIP3   OH235868   3.368   2.821   3.657 -0.6893  0.1076  0.1359
 4818TIP3    H135869   3.378   2.763   3.732 -0.2403 -0.0603 -0.0551
 4818TIP3    H235870   3.327   2.900   3.694 -1.0613 -0.2213  0.4380
 4819TIP3   OH235871   5.605   5.530  10.929 -0.1846  0.0249 -0.0680
 4819TIP3    H135872   5.602   5.625  10.920  1.3388 -0.0052 -1.3247
 4819TIP3    H235873   5.516   5.501  10.906 -1.2590  1.2112  2.2628
 4820TIP3   OH235874   4.957   3.790  12.376 -0.4992 -0.3488  0.2818
 4820TIP3    H135875   5.052   3.791  12.384 -0.5910  1.9293  1.9530
 4820TIP3    H235876   4.936   3.871  12.329 -1.6367 -0.7701  0.0269
 4821TIP3   OH235877   2.893   6.653  11.509  0.1257 -0.2022  0.3163
 4821TIP3    H135878   2.850   6.728  11.469 -0.4118 -0.9522 -0.5393
 4821TIP3    H235879   2.847   6.639  11.592 -1.1002 -0.7936 -0.4355
 4822TIP3   OH235880   3.559   0.037  12.360 -0.3507 -0.4387 -0.1494
 4822TIP3    H135881   3.473   0.070  12.385  0.1341 -0.0756  1.1034
 4822TIP3    H235882   3.543  -0.054  12.334 -1.3378  0.0728 -1.4446
 4823TIP3   OH235883   6.718   3.422  13.977 -0.2913  0.5410 -0.1219
 4823TIP3    H135884   6.745   3.491  13.916 -1.2846 -0.4232 -1.7223
 4823TIP3    H235885   6.633   3.451  14.010  0.1062  0.9154  0.5978
 4824TIP3   OH235886   5.721   6.666  15.545 -0.2946 -0.0361 -0.9528
 4824TIP3    H135887   5.739   6.699  15.633 -1.2278  0.1077 -0.8048
 4824TIP3    H235888   5.805   6.635  15.513  0.5588  2.1734 -0.9705
 4825TIP3   OH235889   6.017   2.628   2.106  0.0123 -0.2042  0.2532
 4825TIP3    H135890   6.086   2.590   2.160  0.1872  0.2998  0.3900
 4825TIP3    H235891   6.034   2.722   2.107 -0.4021 -0.1189 -0.0977
 4826TIP3   OH235892   0.649   4.770  11.267  0.2477  0.3179  0.1254
 4826TIP3    H135893   0.665   4.718  11.188  3.2896  1.5274 -0.1921
 4826TIP3    H235894   0.724   4.829  11.273  0.8221 -0.4942  4.5773
 4827TIP3   OH235895   5.032   4.593  17.030 -0.0097  0.0440 -0.1871
 4827TIP3    H135896   5.112   4.620  17.074  0.0740 -0.2343 -0.1659
 4827TIP3    H235897   5.048   4.502  17.004 -0.0931  0.1765 -0.7132
 4828TIP3   OH235898   6.206   3.203   2.852 -0.1246 -0.8562 -0.9357
 4828TIP3    H135899   6.297   3.209   2.822  0.2317  1.1756  0.3674
 4828TIP3    H235900   6.211   3.161   2.938 -0.4082 -0.6645 -0.8218
 4829TIP3   OH235901   4.758   0.924   2.388  0.6708 -0.2460  0.3055
 4829TIP3    H135902   4.707   0.868   2.446  0.7015 -0.7256 -0.1189
 4829TIP3    H235903   4.805   0.983   2.446 -1.3351  1.0646  0.6489
 4830TIP3   OH235904   4.309   1.459   0.802  0.2349  0.5084 -0.3878
 4830TIP3    H135905   4.321   1.550   0.774 -2.9150  0.8166 -1.0185
 4830TIP3    H235906   4.216   1.442   0.791  0.7425 -2.8958 -0.4500
 4831TIP3   OH235907   1.270   3.339  16.344  0.5463  0.6186  0.0736
 4831TIP3    H135908   1.350   3.359  16.296  0.6469  0.1342  0.0362
 4831TIP3    H235909   1.252   3.247  16.325  0.6281  0.3953  1.0227
 4832TIP3   OH235910   5.838   5.243  12.061 -0.1268  0.2047  0.1406
 4832TIP3    H135911   5.905   5.176  12.049  0.5285  0.9055 -0.1446
 4832TIP3    H235912   5.764   5.195  12.100 -0.1950 -0.9582 -1.3080
 4833TIP3   OH235913   5.022   4.874   4.061  0.2196 -0.1148  0.2860
 4833TIP3    H135914   5.038   4.797   4.006  0.9803  0.2818 -0.0599
 4833TIP3    H235915   5.005   4.838   4.148  3.2628 -0.6120  0.7732
 4834TIP3   OH235916   5.357   5.134  14.160 -0.0271  0.9319  0.0762
 4834TIP3    H135917   5.384   5.128  14.251 -2.0356  0.7794  0.6970
 4834TIP3    H235918   5.327   5.046  14.138  0.8867  0.8417 -0.9182
 4835TIP3   OH235919   5.418   1.069  11.050  0.4166 -0.1792  0.1576
 4835TIP3    H135920   5.504   1.092  11.016 -0.3906  0.2078 -1.7278
 4835TIP3    H235921   5.397   0.985  11.008 -0.6327  0.3445 -0.4139
 4836TIP3   OH235922   1.221   5.037  17.255 -0.4334  0.6468  0.8761
 4836TIP3    H135923   1.218   5.129  17.229 -2.4872  0.2004 -0.7749
 4836TIP3    H235924   1.314   5.015  17.256  0.0329  2.3439 -0.1851
 4837TIP3   OH235925   6.395   2.854  14.485  0.4142  0.3944 -0.3871
 4837TIP3    H135926   6.417   2.870  14.393  1.0167  0.5034 -0.2328
 4837TIP3    H235927   6.438   2.926  14.532  1.6277 -0.6359  0.1478
 4838TIP3   OH235928   2.170   2.926   0.597 -0.1137 -0.6381 -0.3054
 4838TIP3    H135929   2.238   2.961   0.539 -1.4055 -2.5832 -3.2073
 4838TIP3    H235930   2.219   2.879   0.664  1.4448  1.7432  0.3661
 4839TIP3   OH235931   3.131   3.470  16.581 -0.3607 -0.2629 -0.1061
 4839TIP3    H135932   3.106   3.498  16.493  0.1498 -1.2674 -0.5964
 4839TIP3    H235933   3.220   3.436  16.571 -0.1888 -0.1232  0.8572
 4840TIP3   OH235934   3.878   1.191   1.057 -0.5925  0.7514  0.3450
 4840TIP3    H135935   3.900   1.261   0.995  0.1435 -0.5155 -0.8764
 4840TIP3    H235936   3.782   1.184   1.052 -0.5889  1.0418 -0.2290
 4841TIP3   OH235937   2.809   0.525   4.538 -0.2391 -0.0341 -0.2118
 4841TIP3    H135938   2.787   0.528   4.445  0.2706 -1.5383 -0.4018
 4841TIP3    H235939   2.748   0.587   4.578 -1.4180 -0.3800 -1.3763
 4842TIP3   OH235940   4.501   0.133  15.900  0.1306  0.0071 -0.5199
 4842TIP3    H135941   4.476   0.182  15.979 -0.6850 -0.4396 -0.4962
 4842TIP3    H235942   4.525   0.200  15.837  0.0316  0.4003 -0.1462
 4843TIP3   OH235943   6.277   5.036   2.702  0.4959 -0.2601  0.4811
 4843TIP3    H135944   6.326   4.996   2.774  0.2040  0.6107  1.1836
 4843TIP3    H235945   6.239   5.115   2.740  0.4080  0.2671 -0.6613
 4844TIP3   OH235946   5.478   0.831  16.173 -0.0084 -0.2484  0.2906
 4844TIP3    H135947   5.470   0.923  16.200 -1.2971 -0.2620  0.0427
 4844TIP3    H235948   5.553   0.798  16.222  0.8099  1.0735 -0.0283
 4845TIP3   OH235949   2.787   4.524   3.210  0.4143  0.3195  0.3421
 4845TIP3    H135950   2.775   4.433   3.235  2.2026  0.1190  0.5773
 4845TIP3    H235951   2.876   4.529   3.176 -0.1485  1.6749 -1.1361
 4846TIP3   OH235952   6.537   4.036   2.748 -0.1326 -0.1864  0.2411
 4846TIP3    H135953   6.519   4.029   2.841  0.6979 -0.9183  0.3542
 4846TIP3    H235954   6.605   3.971   2.731 -0.3346 -0.1311 -0.8900
 4847TIP3   OH235955   5.140   5.785   1.679  0.4889  0.0917  0.8559
 4847TIP3    H135956   5.198   5.813   1.750  0.1956  1.3628  0.6087
 4847TIP3    H235957   5.164   5.693   1.664  3.2119  0.8237  0.0379
 4848TIP3   OH235958   6.289   2.473  12.085 -0.0042  0.0509  0.3364
 4848TIP3    H135959   6.220   2.540  12.082  0.1102  0.1192 -1.6396
 4848TIP3    H235960   6.367   2.518  12.051  0.1425 -0.9995 -0.7463
 4849TIP3   OH235961   0.606   3.013   4.423 -0.4258 -0.4383  0.2829
 4849TIP3    H135962   0.645   2.926   4.431 -0.7556 -0.5054  1.4193
 4849TIP3    H235963   0.662   3.069   4.477 -0.5763 -0.0747  0.0645
 4850TIP3   OH235964   2.072   1.123  14.937  0.7964  0.3070  0.0485
 4850TIP3    H135965   2.122   1.122  15.019  0.8396  0.4535  0.0234
 4850TIP3    H235966   2.032   1.210  14.935 -2.1722 -0.8752  1.7324
 4851TIP3   OH235967   2.919   0.668  15.534  0.1080  0.5802 -0.1945
 4851TIP3    H135968   2.891   0.759  15.549 -0.6968  0.7220 -2.1757
 4851TIP3    H235969   2.890   0.649  15.444  0.2394 -1.6517  0.1802
 4852TIP3   OH235970   0.838   1.530  16.417  0.2355 -0.1276  0.1227
 4852TIP3    H135971   0.800   1.446  16.394 -0.4198  0.0637  0.4582
 4852TIP3    H235972   0.781   1.594  16.374 -1.2915  0.2596  2.4858
 4853TIP3   OH235973   2.556   0.581  13.325  0.6028  0.4403 -0.4064
 4853TIP3    H135974   2.612   0.620  13.258 -0.3807  1.3326 -0.7347
 4853TIP3    H235975   2.477   0.555  13.278 -0.0698  1.0061  0.3853
 4854TIP3   OH235976   2.631   2.419   4.729  0.2496 -0.1653  0.3751
 4854TIP3    H135977   2.698   2.359   4.761 -1.2735 -1.6601  0.9165
 4854TIP3    H235978   2.592   2.456   4.808 -1.9689 -2.1070  0.2756
 4855TIP3   OH235979   1.286   6.026   4.207 -0.3024  0.1292  0.1504
 4855TIP3    H135980   1.370   6.061   4.235 -1.3887 -0.5252  5.2742
 4855TIP3    H235981   1.295   5.931   4.216 -1.5052  0.0501  0.8139
 4856TIP3   OH235982   5.938   1.496   5.835  0.6011 -0.0850 -0.2718
 4856TIP3    H135983   5.997   1.466   5.905 -1.5265 -0.3347  1.5320
 4856TIP3    H235984   5.869   1.543   5.881  0.7334  2.6042 -2.5452
 4857TIP3   OH235985   1.437   1.612   3.758  0.1670  0.2412 -0.2685
 4857TIP3    H135986   1.353   1.657   3.756  0.8338  1.6274  0.9264
 4857TIP3    H235987   1.499   1.678   3.790  0.9924 -1.8495  2.8889
 4858TIP3   OH235988   4.665   4.867  14.392  0.2101  0.0098 -0.9757
 4858TIP3    H135989   4.711   4.790  14.358  0.2843  0.0898 -1.0569
 4858TIP3    H235990   4.606   4.832  14.458 -2.3200 -0.6038 -3.3980
 4859TIP3   OH235991   1.837   5.875   3.044  0.2525  0.5662 -0.3231
 4859TIP3    H135992   1.864   5.837   3.128 -0.5207  0.9217  0.0922
 4859TIP3    H235993   1.902   5.944   3.028  0.5219  0.3661 -0.1177
 4860TIP3   OH235994   1.026   3.813  12.332  0.3936  0.0723  0.3028
 4860TIP3    H135995   1.097   3.797  12.394  1.8699 -0.4588 -1.4223
 4860TIP3    H235996   0.969   3.876  12.375 -0.1736 -2.2629  3.2895
 4861TIP3   OH235997   6.042   1.482   2.528 -0.2465  0.5394 -0.1990
 4861TIP3    H135998   5.978   1.446   2.467 -0.3000  0.1806  0.0676
 4861TIP3    H235999   6.120   1.499   2.474  0.8502 -2.6915  0.1151
 4862TIP3   OH236000   2.008   1.107   1.530 -0.4154  0.2450  0.0155
 4862TIP3    H136001   2.084   1.048   1.535  0.3449  1.0245 -1.5629
 4862TIP3    H236002   1.941   1.065   1.585  0.9649 -0.7350  1.0188
 4863TIP3   OH236003   2.637   3.105  10.494  0.8383  0.3750  0.1686
 4863TIP3    H136004   2.694   3.037  10.531 -0.2166  0.8654  2.9151
 4863TIP3    H236005   2.608   3.068  10.410  1.9564 -1.6422  0.5986
 4864TIP3   OH236006   6.744   1.321  11.447  0.0698  0.4737 -0.0977
 4864TIP3    H136007   6.785   1.331  11.533  0.9228  0.4308 -0.4963
 4864TIP3    H236008   6.663   1.373  11.453 -0.5609 -0.5785  1.1627
 4865TIP3   OH236009   3.681   2.152  11.000  0.1918  0.0418 -0.3471
 4865TIP3    H136010   3.616   2.184  11.062 -0.0364 -2.2774  0.7132
 4865TIP3    H236011   3.748   2.110  11.054  0.3738 -1.3809 -1.6073
 4866TIP3   OH236012   5.222   3.085  12.537  0.2309  0.1340 -0.2682
 4866TIP3    H136013   5.206   3.164  12.486 -0.2557  2.3242  2.9896
 4866TIP3    H236014   5.316   3.087  12.556  0.1946  0.0189 -0.0710
 4867TIP3   OH236015   3.928   4.147  11.610 -0.2607  0.1293 -0.7577
 4867TIP3    H136016   4.012   4.189  11.589  0.2752 -0.8183 -0.5467
 4867TIP3    H236017   3.891   4.125  11.524  0.4422 -0.8614 -0.8210
 4868TIP3   OH236018   2.295   4.831   3.641 -0.1178 -0.3218 -0.0693
 4868TIP3    H136019   2.320   4.750   3.596  1.4515 -1.4989  2.6525
 4868TIP3    H236020   2.265   4.802   3.727  0.0068  1.9669  0.8069
 4869TIP3   OH236021   5.289   3.913  13.820 -0.1827 -0.2755  0.3977
 4869TIP3    H136022   5.268   3.852  13.890  0.8271  0.0993  1.0565
 4869TIP3    H236023   5.299   3.998  13.864 -0.2780  0.1058 -0.3045
 4870TIP3   OH236024   4.300   3.723   5.783 -0.2420 -0.5204  0.1550
 4870TIP3    H136025   4.205   3.732   5.792 -0.3566 -0.7056 -0.8056
 4870TIP3    H236026   4.313   3.682   5.698  0.6808 -1.1592  0.5806
 4871TIP3   OH236027   6.251   0.675   0.394  0.2147 -0.1598  0.9488
 4871TIP3    H136028   6.270   0.734   0.321  0.1818 -0.2972  0.8302
 4871TIP3    H236029   6.337   0.645   0.424  0.1806 -1.0235  0.2148
 4872TIP3   OH236030   2.693   0.224  13.828 -0.0269 -0.2458  0.1891
 4872TIP3    H136031   2.731   0.295  13.879  1.7026  0.5886 -2.0657
 4872TIP3    H236032   2.723   0.144  13.871  0.6325  0.4137  0.9726
 4873TIP3   OH236033   4.780   3.142   3.969 -0.0721  0.0759 -0.3376
 4873TIP3    H136034   4.690   3.139   3.936 -0.1102  2.2943 -0.5727
 4873TIP3    H236035   4.835   3.140   3.890 -0.0303  1.3780 -0.3599
 4874TIP3   OH236036   0.600   3.557  17.139 -0.7958  0.1975 -0.2189
 4874TIP3    H136037   0.675   3.536  17.082 -0.4415 -0.4396  0.4608
 4874TIP3    H236038   0.619   3.510  17.221 -1.1990  1.2448  0.4931
 4875TIP3   OH236039   0.548   6.536   4.780 -0.3983 -0.0344 -0.2829
 4875TIP3    H136040   0.630   6.586   4.784  0.2334 -0.9261 -1.3734
 4875TIP3    H236041   0.526   6.534   4.687  0.3984 -2.9952 -0.4875
 4876TIP3   OH236042   0.751   2.141  13.581 -0.3001  0.3344 -0.5339
 4876TIP3    H136043   0.814   2.087  13.630 -1.2313  0.4458  0.8476
 4876TIP3    H236044   0.804   2.213  13.547  0.1214  1.1885  1.7789
 4877TIP3   OH236045   3.530   2.049  16.714 -0.2950  0.0066  0.2070
 4877TIP3    H136046   3.597   2.082  16.773 -0.8406  2.2874 -0.3344
 4877TIP3    H236047   3.461   2.016  16.772 -0.7747  2.1026  0.9042
 4878TIP3   OH236048   6.525   5.614   4.691 -0.3647  0.4778 -0.9811
 4878TIP3    H136049   6.582   5.607   4.768 -2.0045  1.7045  0.4483
 4878TIP3    H236050   6.489   5.527   4.679  1.8886 -0.3917 -2.0699
 4879TIP3   OH236051   6.261   4.669  15.845 -0.1660 -0.0898  0.1028
 4879TIP3    H136052   6.273   4.580  15.880 -1.2536 -0.5034 -0.5322
 4879TIP3    H236053   6.262   4.726  15.921 -2.4252 -0.9623  0.8655
 4880TIP3   OH236054   1.682   5.662   5.633  0.6095  0.0815 -0.0233
 4880TIP3    H136055   1.696   5.593   5.698 -1.1202 -0.1576  0.1534
 4880TIP3    H236056   1.587   5.663   5.620  0.8382  0.7216 -1.9077
 4881TIP3   OH236057   6.035   3.989  14.723 -0.4085  0.3023  0.0647
 4881TIP3    H136058   6.097   4.033  14.781  2.5814 -2.7957 -0.4746
 4881TIP3    H236059   5.969   3.952  14.782  0.4633  0.3798  1.1117
 4882TIP3   OH236060   1.386   2.279  14.757 -0.0408 -0.9107 -0.1882
 4882TIP3    H136061   1.319   2.215  14.734 -1.6963  1.1492 -1.5271
 4882TIP3    H236062   1.418   2.311  14.673  0.7763 -0.0259  0.4378
 4883TIP3   OH236063   1.507   4.528   4.354 -0.4995  0.3217 -0.0085
 4883TIP3    H136064   1.414   4.550   4.350 -0.6798 -0.5080 -0.5149
 4883TIP3    H236065   1.535   4.527   4.263 -0.2282 -0.3950  0.0773
 4884TIP3   OH236066   0.261   2.828  15.441 -0.5593  0.3058 -0.2919
 4884TIP3    H136067   0.167   2.813  15.438 -0.9146  2.3312 -0.7304
 4884TIP3    H236068   0.273   2.902  15.501  0.9057 -0.7616  0.8179
 4885TIP3   OH236069   3.686   6.399   5.012  0.1558 -0.6018  0.2981
 4885TIP3    H136070   3.600   6.439   4.998 -0.1440 -1.1877  0.4702
 4885TIP3    H236071   3.748   6.470   4.992 -0.3302 -0.5605 -1.1740
 4886TIP3   OH236072   3.467   3.292   6.070  0.5021 -0.5694  0.0888
 4886TIP3    H136073   3.533   3.234   6.108 -0.3957 -1.3864  0.4290
 4886TIP3    H236074   3.386   3.270   6.115  0.0042  0.5074 -0.2344
 4887TIP3   OH236075   5.916   2.387  14.274  0.1220 -0.0882  0.0983
 4887TIP3    H136076   5.881   2.474  14.258  1.3343  0.1294 -1.6772
 4887TIP3    H236077   6.009   2.402  14.291  0.4601 -1.0565 -0.8074
 4888TIP3   OH236078   0.506   6.109   5.271 -0.7036 -0.2474 -0.3288
 4888TIP3    H136079   0.411   6.104   5.257 -0.4678 -1.1550 -1.7942
 4888TIP3    H236080   0.533   6.188   5.224 -0.5384 -0.8432 -1.2657
 4889TIP3   OH236081   1.063   2.233   3.997  0.0313  0.1443  0.1387
 4889TIP3    H136082   1.006   2.157   4.007 -1.2443  0.8439 -1.3606
 4889TIP3    H236083   1.009   2.307   4.024  0.5142  0.7352 -0.4822
 4890TIP3   OH236084   4.165   5.437  14.948 -0.5136 -0.1119 -0.1064
 4890TIP3    H136085   4.203   5.452  15.035 -0.8000 -0.4174  0.0751
 4890TIP3    H236086   4.232   5.466  14.887 -1.0906  2.0624  0.2162
 4891TIP3   OH236087   1.325   3.118   5.607 -0.2147  0.2227 -0.4792
 4891TIP3    H136088   1.358   3.132   5.695 -0.8241 -1.5590  0.0679
 4891TIP3    H236089   1.395   3.073   5.561  0.0369  0.9974 -0.8852
 4892TIP3   OH236090   1.815   0.047   2.193  0.0594 -0.0869 -0.1627
 4892TIP3    H136091   1.763  -0.033   2.182  1.7269 -1.1399 -0.7118
 4892TIP3    H236092   1.887   0.037   2.132  0.8809  1.3708  0.5264
 4893TIP3   OH236093   1.596   1.618   4.723 -0.2289 -0.3692  0.0009
 4893TIP3    H136094   1.529   1.645   4.786 -1.4243  0.0386 -1.3849
 4893TIP3    H236095   1.679   1.644   4.763 -0.9506 -0.1763  1.4128
 4894TIP3   OH236096   3.906   3.443   0.178 -0.2217 -0.3124 -0.1053
 4894TIP3    H136097   3.822   3.401   0.157 -2.3459  1.8242  3.1057
 4894TIP3    H236098   3.947   3.385   0.242 -0.6293 -0.1006  0.3634
 4895TIP3   OH236099   2.881   0.865  12.647  0.3757 -0.3431 -0.5153
 4895TIP3    H136100   2.951   0.857  12.582  0.0410  0.9373 -1.0652
 4895TIP3    H236101   2.810   0.909  12.600  0.2263  0.8710  0.8035
 4896TIP3   OH236102   5.840   4.969  15.568  0.5714 -0.1099  0.0206
 4896TIP3    H136103   5.858   4.908  15.496 -0.8186  0.5374 -0.9203
 4896TIP3    H236104   5.811   4.913  15.640  0.5112 -0.6601 -0.4181
 4897TIP3   OH236105   3.029   1.614  16.360 -0.4685 -0.1766 -0.4350
 4897TIP3    H136106   3.028   1.646  16.450 -0.6211  0.5500 -0.6891
 4897TIP3    H236107   2.936   1.602  16.338 -0.4025 -1.4202 -0.1396
 4898TIP3   OH236108   0.366   3.596  12.454 -0.4423 -0.6762 -0.1044
 4898TIP3    H136109   0.460   3.587  12.433 -0.2553 -0.6090  0.6816
 4898TIP3    H236110   0.322   3.567  12.375  0.2466 -0.8695 -0.4313
 4899TIP3   OH236111   0.182   1.725  16.789 -0.1759 -0.0128  0.2534
 4899TIP3    H136112   0.274   1.704  16.773  0.1030  1.5853 -0.5177
 4899TIP3    H236113   0.167   1.805  16.738 -2.1337 -0.5141 -0.0236
 4900TIP3   OH236114   3.396   0.958   1.139  0.4313  0.0662  0.1719
 4900TIP3    H136115   3.432   0.930   1.223 -0.5332 -0.1055  0.5351
 4900TIP3    H236116   3.319   0.903   1.126  0.0815  0.6855 -0.4136
 4901TIP3   OH236117   3.863   1.343  17.307  0.1390  0.2005 -0.3023
 4901TIP3    H136118   3.843   1.292  17.229 -0.0949 -0.0249 -0.0969
 4901TIP3    H236119   3.927   1.290  17.355 -0.0148  0.1534 -0.1472
 4902TIP3   OH236120   4.367   2.286   4.271 -0.6810  0.6958 -0.2942
 4902TIP3    H136121   4.357   2.251   4.359 -2.8534  3.8212  0.8946
 4902TIP3    H236122   4.461   2.304   4.262 -0.0388 -2.0389  0.2814
 4903TIP3   OH236123   1.803   4.544   6.169 -0.4489  0.4943  0.0496
 4903TIP3    H136124   1.823   4.521   6.079  2.1305  0.3148  0.5990
 4903TIP3    H236125   1.812   4.640   6.172 -3.4831  0.9115 -0.4618
 4904TIP3   OH236126   0.693   2.466   5.160  0.1243  0.4528  0.6479
 4904TIP3    H136127   0.689   2.545   5.107  1.1553  0.9596  1.2844
 4904TIP3    H236128   0.603   2.434   5.163 -0.0891  0.8721 -0.6941
 4905TIP3   OH236129   0.167   0.647  15.696  0.5007 -0.9040 -0.2175
 4905TIP3    H136130   0.260   0.639  15.715  0.6275  1.0844  0.2127
 4905TIP3    H236131   0.161   0.650  15.601  1.0468  0.5453 -0.2124
 4906TIP3   OH236132   0.433   4.267  12.807 -0.2080 -0.4412  0.1179
 4906TIP3    H136133   0.356   4.209  12.809 -0.2638 -0.3590  2.7643
 4906TIP3    H236134   0.508   4.207  12.805 -0.2941 -0.6292  1.5795
 4907TIP3   OH236135   0.994   0.221   5.182 -0.2134 -0.6308  0.3113
 4907TIP3    H136136   0.989   0.317   5.183  1.5180 -0.5047  0.2189
 4907TIP3    H236137   1.074   0.201   5.230  0.2703 -1.9483 -0.9873
 4908TIP3   OH236138   1.006   1.504  12.163  0.2400  0.4719  0.1200
 4908TIP3    H136139   1.017   1.445  12.089  1.2350  0.7200  0.0592
 4908TIP3    H236140   0.936   1.464  12.216  0.5189 -0.4592 -0.2034
 4909TIP3   OH236141   2.926   2.610  11.392  0.2400  0.8217  0.2991
 4909TIP3    H136142   3.000   2.604  11.452 -0.2718 -0.0688  0.8793
 4909TIP3    H236143   2.856   2.648  11.445 -0.6161 -1.2079  0.7114
 4910TIP3   OH236144   2.293   6.201   3.085 -0.5852 -0.1914 -0.5177
 4910TIP3    H136145   2.258   6.280   3.126 -2.5277 -1.7799  1.0838
 4910TIP3    H236146   2.387   6.204   3.102 -0.8573  0.9598  0.9453
 4911TIP3   OH236147   2.555   3.351   5.368 -0.1087  0.2095  0.2626
 4911TIP3    H136148   2.586   3.261   5.367 -1.2919 -0.2467  1.6253
 4911TIP3    H236149   2.621   3.398   5.420 -0.5534 -0.3133  1.3306
 4912TIP3   OH236150   5.103   6.020  16.313  0.2351  0.4638 -0.3813
 4912TIP3    H136151   5.053   6.101  16.323 -0.1126  0.1548  0.4569
 4912TIP3    H236152   5.100   5.978  16.399  2.1411  0.5456 -0.2171
 4913TIP3   OH236153   3.531   5.501  15.142  0.0140 -0.0674 -0.1132
 4913TIP3    H136154   3.513   5.437  15.211 -1.0788 -0.1678 -0.4581
 4913TIP3    H236155   3.562   5.578  15.189 -1.1128  0.0115  0.5474
 4914TIP3   OH236156   6.522   1.249  14.600 -0.7398  0.0986 -0.3019
 4914TIP3    H136157   6.509   1.161  14.564  2.0131 -0.0398 -1.1308
 4914TIP3    H236158   6.433   1.284  14.610 -1.8647 -2.4010 -0.8353
 4915TIP3   OH236159   5.408   0.675  11.898 -0.2640 -0.1635 -0.2071
 4915TIP3    H136160   5.496   0.696  11.868  0.1713 -0.6458  0.6948
 4915TIP3    H236161   5.358   0.755  11.884  0.5753  0.4509  0.2464
 4916TIP3   OH236162   1.818   1.970   0.654  0.4018  0.2674 -0.0521
 4916TIP3    H136163   1.838   2.058   0.624 -0.9508  0.0836 -1.6251
 4916TIP3    H236164   1.724   1.960   0.639  0.2090 -0.8957  1.6079
 4917TIP3   OH236165   2.240   1.276   4.202 -1.0179 -0.3001  0.0077
 4917TIP3    H136166   2.273   1.208   4.144  1.0799  0.1214  0.6133
 4917TIP3    H236167   2.244   1.356   4.150  0.1450 -0.0468  0.4629
 4918TIP3   OH236168   5.822   4.226  15.674  0.2341  0.5777  0.2541
 4918TIP3    H136169   5.744   4.184  15.637  0.7923  0.2059 -0.5514
 4918TIP3    H236170   5.881   4.236  15.599  1.3084  0.0602  1.0024
 4919TIP3   OH236171   6.025   0.916   0.242  0.2484 -0.0478  0.2855
 4919TIP3    H136172   6.038   0.996   0.192 -0.3859  0.4559  0.9063
 4919TIP3    H236173   6.104   0.864   0.226  0.9654  0.9813  0.3960
 4920TIP3   OH236174   0.050   5.952  13.302  0.1165  0.1444 -0.2191
 4920TIP3    H136175  -0.019   6.018  13.317 -1.3830 -0.8674 -2.1830
 4920TIP3    H236176   0.003   5.869  13.294  1.8182 -0.9648  0.6419
 4921TIP3   OH236177   3.827   6.638  11.323  0.5752 -0.2724  0.5603
 4921TIP3    H136178   3.819   6.547  11.351  2.2479 -0.5039  0.4175
 4921TIP3    H236179   3.907   6.639  11.270 -1.0811  0.6733 -2.0929
 4922TIP3   OH236180   5.277   0.051  15.437  0.5590  0.4407  0.2171
 4922TIP3    H136181   5.301   0.095  15.519  0.7744  2.0812 -0.6770
 4922TIP3    H236182   5.332  -0.027  15.434  1.1740  0.8150  1.2210
 4923TIP3   OH236183   3.374   5.595  13.415  0.6182 -0.0597 -0.2327
 4923TIP3    H136184   3.315   5.654  13.462  1.2626 -0.0972  0.6322
 4923TIP3    H236185   3.319   5.558  13.345 -0.3585 -0.0117  0.4857
 4924TIP3   OH236186   4.952   0.658  11.490  0.3211 -0.6700 -0.2986
 4924TIP3    H136187   4.974   0.664  11.583  1.7650  1.3584 -0.7050
 4924TIP3    H236188   5.028   0.695  11.445 -0.4452 -1.3895 -2.2850
 4925TIP3   OH236189   2.302   4.109  12.324  0.2882  0.0799  0.3646
 4925TIP3    H136190   2.261   4.029  12.292 -0.2174  0.2709  0.5161
 4925TIP3    H236191   2.343   4.148  12.246 -1.2236  0.7156 -0.1504
 4926TIP3   OH236192   0.740   3.412  16.558 -0.5079  0.0996  0.3545
 4926TIP3    H136193   0.681   3.421  16.633 -1.1980 -0.8213 -0.0604
 4926TIP3    H236194   0.778   3.325  16.567  1.0519  0.7942  0.7789
 4927TIP3   OH236195   3.816   2.319  14.452 -0.4516  0.2487 -0.3737
 4927TIP3    H136196   3.741   2.280  14.497 -1.0656  0.4666 -1.1970
 4927TIP3    H236197   3.830   2.402  14.498 -0.4996  0.0541 -0.0038
 4928TIP3   OH236198   2.441   3.715  14.761  0.5392  1.0101  0.2706
 4928TIP3    H136199   2.413   3.806  14.770 -0.5111  0.6928  0.3582
 4928TIP3    H236200   2.406   3.671  14.838  1.7649  0.6849  0.6669
 4929TIP3   OH236201   3.855   0.677   3.762 -0.0886 -0.1547  1.0719
 4929TIP3    H136202   3.852   0.743   3.832  2.6397  0.7586  0.4569
 4929TIP3    H236203   3.880   0.726   3.684 -0.4256 -1.5805  0.0229
 4930TIP3   OH236204   3.140   6.694  12.485 -0.3462 -0.0848 -0.2762
 4930TIP3    H136205   3.077   6.622  12.479 -0.2163 -0.4604  1.9019
 4930TIP3    H236206   3.225   6.653  12.472 -0.4235  0.2643 -2.2399
 4931TIP3   OH236207   4.402   4.066   0.905  0.6938 -0.3298 -0.0834
 4931TIP3    H136208   4.440   4.046   0.819  2.1445  1.5959  0.0622
 4931TIP3    H236209   4.477   4.065   0.965  0.3650  2.1374  0.4647
 4932TIP3   OH236210   1.163   4.742   4.157 -0.6125 -0.5321  0.2714
 4932TIP3    H136211   1.078   4.744   4.111 -0.7274 -1.0001  0.4627
 4932TIP3    H236212   1.185   4.835   4.169  0.4075 -0.3111 -2.5239
 4933TIP3   OH236213   4.212   3.411  14.268 -0.0702 -0.4753 -0.1906
 4933TIP3    H136214   4.231   3.374  14.182  1.7675  0.3076 -0.1634
 4933TIP3    H236215   4.156   3.346  14.310 -1.1419 -0.7930 -2.0172
 4934TIP3   OH236216   2.786   0.011   3.248 -0.1097  0.1768  0.5576
 4934TIP3    H136217   2.746   0.084   3.296 -2.0917 -1.8454  2.1808
 4934TIP3    H236218   2.840  -0.034   3.312  0.0016 -0.5762 -0.0484
 4935TIP3   OH236219   3.680   5.518   0.407  0.1029  0.2879  0.1633
 4935TIP3    H136220   3.608   5.536   0.346  0.0572 -1.3058 -0.2960
 4935TIP3    H236221   3.730   5.599   0.410 -2.4471  1.9231  1.5417
 4936TIP3   OH236222   0.096   6.576   2.730 -0.4171 -0.1843  0.4367
 4936TIP3    H136223   0.186   6.544   2.720 -0.3799 -0.0930  0.4785
 4936TIP3    H236224   0.043   6.497   2.736 -0.1819 -0.2579  1.9064
 4937TIP3   OH236225   0.640   3.831  14.845  0.0781 -0.5077  0.2949
 4937TIP3    H136226   0.633   3.860  14.936 -1.4762  1.4166 -0.3752
 4937TIP3    H236227   0.672   3.908  14.798 -0.6801 -0.9716 -1.0196
 4938TIP3   OH236228   1.461   6.241  13.497 -0.0849  0.2062 -0.1038
 4938TIP3    H136229   1.430   6.184  13.568  1.6604 -0.5076  0.1237
 4938TIP3    H236230   1.542   6.201  13.468 -0.0688  1.2627 -1.6028
 4939TIP3   OH236231   2.359   0.643   4.705 -0.3179 -0.3595 -0.2121
 4939TIP3    H136232   2.407   0.718   4.740  0.3183 -0.4101 -0.9508
 4939TIP3    H236233   2.426   0.575   4.694 -1.1915 -1.8333  2.4703
 4940TIP3   OH236234   6.617   5.271   0.605  0.1104 -0.0211  0.0348
 4940TIP3    H136235   6.644   5.341   0.664  0.0157  0.5025 -0.5318
 4940TIP3    H236236   6.652   5.191   0.644 -1.3473  0.0805  1.7018
 4941TIP3   OH236237   1.199   5.366   2.271  0.3773  0.0231  0.0197
 4941TIP3    H136238   1.273   5.324   2.316 -0.8915  0.6860  3.0235
 4941TIP3    H236239   1.206   5.458   2.295  0.0193  0.5729 -1.8591
 4942TIP3   OH236240   5.909   2.776   1.826  0.0728  0.1812 -0.2753
 4942TIP3    H136241   5.839   2.841   1.826 -0.5325 -0.4558 -0.2846
 4942TIP3    H236242   5.976   2.813   1.884 -1.4378 -0.4108  1.9798
 4943TIP3   OH236243   2.393   3.420   4.566  0.0116  0.2706 -0.6270
 4943TIP3    H136244   2.461   3.487   4.569 -2.9878  3.6367  0.0670
 4943TIP3    H236245   2.404   3.370   4.647  0.8841  1.5594  0.0755
 4944TIP3   OH236246   3.701   3.016  13.353 -0.1096  0.1865 -0.3410
 4944TIP3    H136247   3.758   3.069  13.409 -3.6634  2.8485  1.1818
 4944TIP3    H236248   3.627   2.993  13.409 -1.2843 -1.8185 -2.5403
 4945TIP3   OH236249   5.016   2.269  15.605 -0.3535 -0.6044  0.3998
 4945TIP3    H136250   5.077   2.219  15.659  0.6435  0.5254  0.3681
 4945TIP3    H236251   4.959   2.313  15.669  0.7980  0.6984  0.5757
 4946TIP3   OH236252   6.371   6.372  15.318  0.3823  0.0173 -0.5511
 4946TIP3    H136253   6.351   6.442  15.256  0.2075 -0.3653 -0.9343
 4946TIP3    H236254   6.453   6.335  15.286 -0.2430 -0.8667 -1.1786
 4947TIP3   OH236255   1.627   1.503   0.985  0.5549 -0.2000 -0.2646
 4947TIP3    H136256   1.555   1.484   1.044  1.5572  0.6470  1.3233
 4947TIP3    H236257   1.603   1.586   0.944  0.9935  0.5574  0.9544
 4948TIP3   OH236258   4.109   4.887  14.636 -0.2915  0.1614 -0.4719
 4948TIP3    H136259   4.053   4.817  14.603  0.6007 -0.8721  0.1478
 4948TIP3    H236260   4.192   4.875  14.590  0.2645  0.0389  0.5399
 4949TIP3   OH236261   6.508   5.723  12.428 -0.2301 -0.3477 -0.0509
 4949TIP3    H136262   6.457   5.707  12.507 -1.6153 -0.6394 -0.9515
 4949TIP3    H236263   6.496   5.816  12.410  0.1137 -0.2737  0.0967
 4950TIP3   OH236264   0.227   2.246   2.382 -0.0411  0.0709 -0.1827
 4950TIP3    H136265   0.139   2.279   2.363 -0.4207 -1.0240 -0.3579
 4950TIP3    H236266   0.216   2.190   2.459  0.3390 -0.7920 -0.7445
 4951TIP3   OH236267   0.607   1.830  16.987  0.1947 -0.0498 -0.0440
 4951TIP3    H136268   0.692   1.871  17.001  1.5634 -2.4600 -0.7274
 4951TIP3    H236269   0.607   1.804  16.895 -0.3871 -1.8634  0.4127
 4952TIP3   OH236270   5.058   3.023  17.110 -0.2625  0.4193 -0.5726
 4952TIP3    H136271   5.111   2.946  17.089 -1.0350  0.0066 -1.0553
 4952TIP3    H236272   5.067   3.033  17.204 -0.0219 -0.1675 -0.5274
 4953TIP3   OH236273   5.038   6.426  14.979  0.6591 -0.2113 -0.0774
 4953TIP3    H136274   5.116   6.371  14.976  0.0086 -1.1707  0.3263
 4953TIP3    H236275   4.965   6.365  14.977 -0.0876  0.6518  0.1050
 4954TIP3   OH236276   5.371   4.027  17.216 -0.2782  0.3755 -0.0992
 4954TIP3    H136277   5.409   3.971  17.149 -0.9764 -1.3923  0.9038
 4954TIP3    H236278   5.424   4.009  17.294 -1.1561  0.3214  0.4934
 4955TIP3   OH236279   4.119   2.184  15.132 -0.2219  0.4561 -0.4915
 4955TIP3    H136280   4.208   2.151  15.140 -0.0136  1.1491  0.0897
 4955TIP3    H236281   4.112   2.253  15.197 -1.8359 -0.9556  0.9270
 4956TIP3   OH236282   2.520   4.479   3.621  0.0894  0.5522 -0.4641
 4956TIP3    H136283   2.554   4.488   3.710 -2.9554 -1.0436  1.0702
 4956TIP3    H236284   2.561   4.399   3.588 -1.6953 -1.1844  1.2255
 4957TIP3   OH236285   4.502   1.359  10.525  0.0482 -0.2851  0.1590
 4957TIP3    H136286   4.531   1.437  10.571  1.4067 -0.3306 -0.5887
 4957TIP3    H236287   4.574   1.297  10.534 -0.4130 -0.9350 -0.4864
 4958TIP3   OH236288   2.424   4.755   5.386  0.1466 -0.4564 -0.0154
 4958TIP3    H136289   2.362   4.690   5.419 -0.4857 -0.3439 -0.9682
 4958TIP3    H236290   2.398   4.770   5.295  2.5426 -1.6505 -0.9981
 4959TIP3   OH236291   3.686   5.378   3.677  0.4407 -0.2125  0.0327
 4959TIP3    H136292   3.665   5.470   3.661 -1.5557 -0.8192 -1.1224
 4959TIP3    H236293   3.771   5.381   3.721  0.7645  2.1427 -0.5943
 4960TIP3   OH236294   0.323   4.713  12.514 -0.3760 -0.0112 -0.0823
 4960TIP3    H136295   0.367   4.708  12.599 -1.4738  0.4055  0.5213
 4960TIP3    H236296   0.357   4.637  12.466  1.1189  0.3817  0.2933
 4961TIP3   OH236297   3.185   3.329  11.778 -0.6822  0.3627  0.8034
 4961TIP3    H136298   3.159   3.404  11.831 -1.4824  0.9162 -0.3320
 4961TIP3    H236299   3.276   3.313  11.801 -0.4676  1.7592  0.9740
 4962TIP3   OH236300   6.394   0.994  12.615  0.2605  0.4283  0.2043
 4962TIP3    H136301   6.439   1.039  12.543  1.6538  1.2158  1.5075
 4962TIP3    H236302   6.451   1.007  12.690 -0.7189 -1.1476  1.2661
 4963TIP3   OH236303   3.561   4.658  12.193  0.1397 -0.2804  0.4062
 4963TIP3    H136304   3.650   4.638  12.223  0.1282  1.3251  1.6101
 4963TIP3    H236305   3.559   4.627  12.102  1.2919 -2.0852  0.9412
 4964TIP3   OH236306   3.839   0.263   4.231  0.2827 -0.0281  0.3887
 4964TIP3    H136307   3.756   0.219   4.214 -0.9417  1.7329  1.4648
 4964TIP3    H236308   3.857   0.246   4.323  0.6166  0.3903  0.4051
 4965TIP3   OH236309   2.533   4.537  16.251  0.4147  0.5439 -0.2294
 4965TIP3    H136310   2.600   4.504  16.190 -0.5816 -1.2102 -0.4487
 4965TIP3    H236311   2.568   4.515  16.337  0.3733  0.0852 -0.3234
 4966TIP3   OH236312   1.987   3.009  14.219  0.0539 -0.6033 -0.1718
 4966TIP3    H136313   2.031   3.089  14.191  0.8198 -0.5683  1.0696
 4966TIP3    H236314   1.895   3.024  14.200  0.4345 -0.3310 -2.0203
 4967TIP3   OH236315   4.747   0.744  13.799 -0.2604  0.3109  0.3779
 4967TIP3    H136316   4.838   0.764  13.779 -0.0503  0.6628  1.6217
 4967TIP3    H236317   4.696   0.793  13.734  0.4412 -0.6124 -0.9105
 4968TIP3   OH236318   0.512   4.404   2.507 -0.0513  0.4157 -0.1970
 4968TIP3    H136319   0.551   4.324   2.542 -0.7584  0.7929  1.5604
 4968TIP3    H236320   0.580   4.441   2.450  1.4991  0.1324  1.3605
 4969TIP3   OH236321   5.334   1.793   0.379  0.0557  0.1480 -0.7595
 4969TIP3    H136322   5.417   1.822   0.340  1.0165  0.8809  1.6406
 4969TIP3    H236323   5.321   1.705   0.345  1.3464  0.3556 -1.8928
 4970TIP3   OH236324   4.033   3.000   6.822  0.5188  0.4063 -0.5183
 4970TIP3    H136325   4.097   2.932   6.842  1.0488  0.1621 -2.7241
 4970TIP3    H236326   4.021   3.047   6.904  3.1414  0.1355  0.1264
 4971TIP3   OH236327   3.900   2.726   2.255  0.2942  0.0927 -0.2395
 4971TIP3    H136328   3.903   2.634   2.280 -1.5772 -0.5059 -1.9973
 4971TIP3    H236329   3.924   2.728   2.163 -0.0041  1.3230 -0.3171
 4972TIP3   OH236330   2.855   6.541   2.593  0.0109  0.3837  0.1744
 4972TIP3    H136331   2.791   6.495   2.538 -0.0034 -0.4552  0.8578
 4972TIP3    H236332   2.802   6.593   2.653 -0.2450 -2.2596  2.4630
 4973TIP3   OH236333   5.427   6.234   6.436 -0.2414  0.1404 -0.0754
 4973TIP3    H136334   5.398   6.243   6.345 -1.1547 -1.2304  0.0447
 4973TIP3    H236335   5.504   6.291   6.443  0.9207 -1.0404 -2.2121
 4974TIP3   OH236336   4.103   1.925  14.452 -0.5105 -0.0123 -0.4159
 4974TIP3    H136337   4.177   1.972  14.489  0.3190 -1.5914  0.0000
 4974TIP3    H236338   4.108   1.838  14.490 -1.5486 -0.6870 -1.7391
 4975TIP3   OH236339   5.824   5.634   2.075 -0.2132  0.0909  0.5948
 4975TIP3    H136340   5.734   5.627   2.105 -0.2523  0.4215  0.5585
 4975TIP3    H236341   5.821   5.603   1.984 -0.2848  0.0739  0.6028
 4976TIP3   OH236342   1.766   4.439   2.791 -0.3059 -0.1625 -0.5484
 4976TIP3    H136343   1.793   4.517   2.743  1.0869 -0.0754  0.3264
 4976TIP3    H236344   1.738   4.471   2.876  0.5725 -0.6200 -0.0709
 4977TIP3   OH236345   5.908   0.212   4.573  0.0927  0.3274 -0.1564
 4977TIP3    H136346   5.920   0.234   4.481 -0.4209 -1.0375 -0.5741
 4977TIP3    H236347   5.842   0.274   4.604  0.7680  1.2441 -0.5066
 4978TIP3   OH236348   2.625   0.645   4.938  0.3226  0.0100  0.0284
 4978TIP3    H136349   2.571   0.580   4.983 -1.2858  0.7223 -0.8099
 4978TIP3    H236350   2.657   0.702   5.008  0.6890 -0.9031  0.6245
 4979TIP3   OH236351   4.899   1.519  15.121  0.2644 -0.2085  0.5316
 4979TIP3    H136352   4.902   1.596  15.064 -1.1290 -0.8570 -0.4784
 4979TIP3    H236353   4.986   1.515  15.160  0.5615  1.5172  0.1308
 4980TIP3   OH236354   5.670   2.449  14.462 -0.8725 -0.0701  0.2208
 4980TIP3    H136355   5.664   2.360  14.429  1.9372  0.1002 -1.0401
 4980TIP3    H236356   5.700   2.501  14.387 -0.5559  1.5532  1.4139
 4981TIP3   OH236357   3.832   1.717  12.369 -0.1151 -0.1642  0.2417
 4981TIP3    H136358   3.921   1.746  12.390  0.2165 -1.1992  0.3487
 4981TIP3    H236359   3.804   1.774  12.298  0.3671  0.6326  0.6827
 4982TIP3   OH236360   1.838   5.139   1.276  0.0229 -0.0393  0.4239
 4982TIP3    H136361   1.748   5.115   1.251  0.5922 -0.5320 -1.2581
 4982TIP3    H236362   1.829   5.227   1.314 -1.1606 -0.0758  0.2780
 4983TIP3   OH236363   2.361   3.245   1.645 -0.1759  0.8331 -0.3486
 4983TIP3    H136364   2.319   3.170   1.687  1.1897 -0.1551 -0.6661
 4983TIP3    H236365   2.294   3.281   1.588 -1.0184  0.1598  0.1900
 4984TIP3   OH236366   2.869   3.442  16.665  0.2597  0.3647  0.0611
 4984TIP3    H136367   2.831   3.529  16.650  1.1588  0.9605  1.0689
 4984TIP3    H236368   2.958   3.448  16.629 -0.5765 -1.0845 -2.4849
 4985TIP3   OH236369   4.816   4.488  12.928 -0.0376  0.0925  0.1777
 4985TIP3    H136370   4.814   4.569  12.980  0.2910  0.5787 -0.5460
 4985TIP3    H236371   4.876   4.507  12.856 -0.7371 -0.4417 -0.5737
 4986TIP3   OH236372   2.226   6.588   6.218 -0.0357  0.7119  0.2568
 4986TIP3    H136373   2.177   6.586   6.300  0.9695 -0.0804  0.8666
 4986TIP3    H236374   2.236   6.496   6.194  2.4282  0.7352  0.9570
 4987TIP3   OH236375   2.816   0.674  14.872 -0.1985  0.8650  0.3115
 4987TIP3    H136376   2.755   0.619  14.824 -0.9938  0.7568  1.4168
 4987TIP3    H236377   2.898   0.669  14.822 -1.0361  0.8988 -1.1109
 4988TIP3   OH236378   6.322   1.058  13.131 -0.3444  0.3562 -0.5156
 4988TIP3    H136379   6.293   0.968  13.148  1.7005 -0.3521 -0.5176
 4988TIP3    H236380   6.287   1.079  13.044  0.1722 -0.8968 -1.0382
 4989TIP3   OH236381   2.275   3.315   5.284  0.0587 -0.1252  0.3247
 4989TIP3    H136382   2.237   3.228   5.300 -0.8410  0.2056  0.0875
 4989TIP3    H236383   2.357   3.315   5.333  0.0326 -1.0833  0.3856
 4990TIP3   OH236384   2.323   1.931  17.218  0.0896  0.0052  0.1313
 4990TIP3    H136385   2.259   1.964  17.281 -2.2178  1.3702 -2.6897
 4990TIP3    H236386   2.310   1.985  17.140  2.4922 -1.8385 -1.6979
 4991TIP3   OH236387   5.083   0.118  16.205  0.1724  0.3991 -0.1385
 4991TIP3    H136388   5.062   0.202  16.247  0.1714 -0.0930  0.8720
 4991TIP3    H236389   5.164   0.134  16.157  0.4390  0.8531  0.4519
 4992TIP3   OH236390   1.987   5.728   3.239  0.1205  0.3254  0.3528
 4992TIP3    H136391   1.969   5.642   3.201 -0.1034  0.5195  0.0090
 4992TIP3    H236392   1.962   5.720   3.331 -1.2864  0.4413  0.0018
 4993TIP3   OH236393   6.514   5.416  10.315 -0.2033 -0.3870 -0.6366
 4993TIP3    H136394   6.558   5.491  10.275  1.8184 -2.2872 -2.1578
 4993TIP3    H236395   6.519   5.433  10.409  0.6185  1.1477 -0.9306
 4994TIP3   OH236396   4.607   3.042   3.240 -0.1572 -0.4497  0.1993
 4994TIP3    H136397   4.634   3.134   3.244 -0.4278 -0.3883  1.0028
 4994TIP3    H236398   4.513   3.046   3.221 -0.0672 -0.5757 -0.2651
 4995TIP3   OH236399   2.882   4.151  12.768  0.3696 -0.1679 -0.3005
 4995TIP3    H136400   2.819   4.199  12.821  1.3972 -0.5595  1.3394
 4995TIP3    H236401   2.850   4.061  12.766  1.2016 -0.5335  1.1650
 4996TIP3   OH236402   4.321   1.135  17.212 -0.7702 -0.5826  0.1349
 4996TIP3    H136403   4.334   1.229  17.210  0.9798 -0.7686  0.9100
 4996TIP3    H236404   4.353   1.104  17.127  0.5815 -0.6533  0.6429
 4997TIP3   OH236405   5.746   0.661   6.209  0.2983  0.1617  0.0204
 4997TIP3    H136406   5.810   0.595   6.235  1.0131  0.7644 -0.1758
 4997TIP3    H236407   5.679   0.658   6.278  1.4968  0.8245  1.2615
 4998TIP3   OH236408   0.807   4.572  15.017 -0.6674  0.1775 -0.5379
 4998TIP3    H136409   0.726   4.574  14.966 -0.2584 -2.9935 -1.5012
 4998TIP3    H236410   0.854   4.650  14.990 -3.0248  1.7201 -0.4951
 4999TIP3   OH236411   1.354   1.720   1.143 -0.2074 -0.4128  0.1234
 4999TIP3    H136412   1.320   1.632   1.158 -2.9158  0.4956 -0.1992
 4999TIP3    H236413   1.334   1.767   1.224 -1.0571  0.5223 -0.6034
 5000TIP3   OH236414   5.533   4.140   4.653  0.1521 -0.1327 -0.5313
 5000TIP3    H136415   5.481   4.192   4.715  0.1401  0.2341 -0.8470
 5000TIP3    H236416   5.577   4.074   4.708 -0.1192 -0.0215 -0.1767
 5001TIP3   OH236417   4.237   1.230  11.917  0.0292 -0.5310 -0.3547
 5001TIP3    H136418   4.304   1.200  11.855  1.1735 -1.5884  1.3235
 5001TIP3    H236419   4.169   1.163  11.913  0.1638 -0.6678 -0.3509
 5002TIP3   OH236420   4.350   3.853  14.044 -0.6034 -0.5913 -0.1465
 5002TIP3    H136421   4.261   3.843  14.010 -0.4386 -1.4791 -0.3531
 5002TIP3    H236422   4.380   3.937  14.010 -0.6664 -1.1671 -1.6995
 5003TIP3   OH236423   2.261   4.254   1.665 -0.2852  0.7481  0.1149
 5003TIP3    H136424   2.304   4.168   1.670 -0.3453  0.5810 -1.7887
 5003TIP3    H236425   2.222   4.265   1.752  1.8936  0.0253  1.2641
 5004TIP3   OH236426   3.166   0.205  13.583 -0.8724  0.0073  1.1122
 5004TIP3    H136427   3.139   0.284  13.537 -0.8286  1.8680  3.9861
 5004TIP3    H236428   3.085   0.167  13.616 -0.6965  0.7788  2.5190
 5005TIP3   OH236429   5.948   6.338  15.882  0.4848 -0.0000  0.3803
 5005TIP3    H136430   6.042   6.357  15.881  0.9897 -2.2686  0.5933
 5005TIP3    H236431   5.933   6.296  15.966 -0.2983 -1.4706 -0.4618
 5006TIP3   OH236432   6.309   2.954  16.319  0.7666  0.0313  0.2338
 5006TIP3    H136433   6.294   3.008  16.397 -0.1345  0.2732 -0.0981
 5006TIP3    H236434   6.225   2.911  16.302  1.0535 -0.2998 -0.3956
 5007TIP3   OH236435   4.099   2.719  16.546 -0.1722 -0.1730 -0.2277
 5007TIP3    H136436   4.126   2.788  16.607  1.7812  0.2096 -1.4401
 5007TIP3    H236437   4.141   2.640  16.580 -0.2857 -0.2472 -0.2631
 5008TIP3   OH236438   3.966   2.199   2.873 -0.5164  0.4269 -0.3274
 5008TIP3    H136439   3.936   2.215   2.784  0.5703 -1.9976 -1.2013
 5008TIP3    H236440   4.060   2.218   2.870 -0.5450  0.7394  0.4377
 5009TIP3   OH236441   0.799   6.614  16.984 -0.6086 -0.3542 -0.3944
 5009TIP3    H136442   0.887   6.641  16.955 -0.6806 -0.7930 -1.0538
 5009TIP3    H236443   0.762   6.569  16.908 -0.2959 -2.8039  0.8091
 5010TIP3   OH236444   3.234   5.035   4.946  0.5878 -0.0515 -0.6590
 5010TIP3    H136445   3.236   5.124   4.982  2.4516 -0.6397  0.8862
 5010TIP3    H236446   3.249   5.047   4.852  1.6997  1.2577 -0.3574
 5011TIP3   OH236447   3.215   6.626  17.044 -0.3487  0.4432  0.2564
 5011TIP3    H136448   3.146   6.686  17.073 -0.4356  0.5668 -0.1955
 5011TIP3    H236449   3.170   6.564  16.987  0.0451  1.0297 -0.7198
 5012TIP3   OH236450   4.050   2.445   5.366 -0.1766 -0.4262  0.7260
 5012TIP3    H136451   4.068   2.362   5.322 -0.3067 -0.3433  0.5148
 5012TIP3    H236452   4.038   2.508   5.295 -0.1333 -0.2366  0.8835
 5013TIP3   OH236453   1.229   3.624  12.937  0.1869  0.9460  0.2501
 5013TIP3    H136454   1.194   3.539  12.912  0.5626  1.4476 -2.2484
 5013TIP3    H236455   1.320   3.606  12.961 -0.0639  0.5026  0.9018
 5014TIP3   OH236456   4.444   1.791  15.524 -0.5310  0.1940 -0.0517
 5014TIP3    H136457   4.474   1.823  15.439 -1.2411 -0.6521 -0.6311
 5014TIP3    H236458   4.524   1.781  15.575 -0.1326  1.0810 -0.4770
 5015TIP3   OH236459   0.761   6.236  11.450  0.3403  0.0897  0.1151
 5015TIP3    H136460   0.765   6.243  11.354 -0.0800  0.1787  0.1020
 5015TIP3    H236461   0.706   6.310  11.477  1.9038  1.1362  0.5701
 5016TIP3   OH236462   0.629   4.342   2.106 -0.1683  0.7631  0.0051
 5016TIP3    H136463   0.631   4.314   2.197  2.4991 -1.0174 -0.4985
 5016TIP3    H236464   0.546   4.308   2.072  0.0359 -0.9356  1.1156
 5017TIP3   OH236465   2.119   4.059  13.772 -0.3160 -0.1597 -0.0068
 5017TIP3    H136466   2.131   3.987  13.834 -0.2278 -0.3006 -0.1858
 5017TIP3    H236467   2.037   4.100  13.799 -0.0966  0.0070  0.4277
 5018TIP3   OH236468   2.738   0.923  16.112  0.2290  0.0295  0.7467
 5018TIP3    H136469   2.801   0.862  16.073 -2.3526 -1.9501 -0.7273
 5018TIP3    H236470   2.742   0.906  16.206  2.1617  0.3163  0.7562
 5019TIP3   OH236471   6.515   5.006  10.611  0.5081 -0.1764 -0.3707
 5019TIP3    H136472   6.489   5.080  10.557  0.9838  0.2955  0.0348
 5019TIP3    H236473   6.434   4.979  10.655  0.3616  0.2102 -0.3968
 5020TIP3   OH236474   0.201   3.088  12.510  0.2060 -0.1338 -1.0915
 5020TIP3    H136475   0.266   3.150  12.543  0.9301 -1.0603 -0.7338
 5020TIP3    H236476   0.244   3.045  12.436 -0.5433  0.2609 -1.7715
 5021TIP3   OH236477   5.226   3.989   4.315  0.1414  0.6371 -0.0192
 5021TIP3    H136478   5.185   4.026   4.236  0.3435  0.3577 -0.2558
 5021TIP3    H236479   5.192   4.043   4.386  0.9527  1.7132 -0.4198
 5022TIP3   OH236480   4.763   1.079  16.716 -0.2294 -0.4151 -0.0045
 5022TIP3    H136481   4.819   1.038  16.651  0.4267  0.8284 -0.2645
 5022TIP3    H236482   4.802   1.165  16.731 -1.0699 -0.1961  1.1242
 5023TIP3   OH236483   1.644   4.378  14.360  0.1141 -0.2493  0.1102
 5023TIP3    H136484   1.711   4.320  14.397  0.3973 -0.6073 -0.9027
 5023TIP3    H236485   1.583   4.319  14.317  1.1974  0.1946 -2.2285
 5024TIP3   OH236486   0.925   3.070   5.622  0.1366  0.1782  0.5974
 5024TIP3    H136487   0.831   3.064   5.642 -0.0405 -0.1569 -0.2633
 5024TIP3    H236488   0.964   3.111   5.699 -0.9203  1.5947  0.4261
 5025TIP3   OH236489   0.815   1.245   2.267  0.0078  0.3627 -0.0449
 5025TIP3    H136490   0.804   1.190   2.189  1.9273  1.3744 -1.1097
 5025TIP3    H236491   0.810   1.184   2.341  1.6968 -1.2193 -1.1546
 5026TIP3   OH236492   3.640   1.302  16.420 -0.3669 -0.0900 -0.0463
 5026TIP3    H136493   3.587   1.284  16.497  3.8198 -0.3306  3.1414
 5026TIP3    H236494   3.665   1.216  16.387  0.0267 -0.0247  0.0681
 5027TIP3   OH236495   0.745   1.030  12.863  0.3586  0.4781 -0.5762
 5027TIP3    H136496   0.734   0.997  12.774  1.6272 -1.7139 -0.0092
 5027TIP3    H236497   0.787   0.957  12.910 -1.9414  0.8365  2.2973
 5028TIP3   OH236498   0.898   6.397  15.746 -0.2013 -0.1790 -0.5965
 5028TIP3    H136499   0.910   6.315  15.697  0.3865  0.3379 -1.3449
 5028TIP3    H236500   0.857   6.457  15.684  1.8466  0.9423 -0.9793
 5029TIP3   OH236501   3.981   3.631  11.443 -0.4852 -0.4292 -0.1460
 5029TIP3    H136502   3.899   3.598  11.405 -0.3202  0.1616 -1.0445
 5029TIP3    H236503   4.049   3.600  11.383  0.0442 -1.5504  0.9895
 5030TIP3   OH236504   1.237   1.132  11.837  0.4483 -0.8243 -0.0397
 5030TIP3    H136505   1.255   1.169  11.750 -1.1843  0.2220  0.0245
 5030TIP3    H236506   1.218   1.040  11.820  0.6995 -0.7518 -0.7369
 5031TIP3   OH236507   2.413   2.202   6.471 -0.0968  0.8280 -0.5391
 5031TIP3    H136508   2.332   2.155   6.449 -0.0249 -0.3612  1.4380
 5031TIP3    H236509   2.389   2.294   6.468 -1.2514  0.5299 -1.0210
 5032TIP3   OH236510   6.192   4.835   2.915  0.0615  0.2299 -0.3184
 5032TIP3    H136511   6.203   4.744   2.888  1.4160  0.7533 -1.6783
 5032TIP3    H236512   6.126   4.871   2.856 -1.1475 -0.0821  0.8108
 5033TIP3   OH236513   4.011   2.053   6.399 -0.3250  0.0402 -0.2401
 5033TIP3    H136514   3.975   2.116   6.461 -2.4331 -0.7462 -0.5687
 5033TIP3    H236515   4.009   2.098   6.315  0.8390  0.4832 -0.0448
 5034TIP3   OH236516   5.294   1.723   2.404 -0.1090  0.8348 -0.4460
 5034TIP3    H136517   5.258   1.745   2.490 -0.6168 -0.0024 -0.4353
 5034TIP3    H236518   5.218   1.692   2.354  0.5609 -0.8623 -0.4560
 5035TIP3   OH236519   5.964   6.317   3.390  0.4451  0.5072  0.0200
 5035TIP3    H136520   5.874   6.343   3.411  0.6625  2.6080 -1.3191
 5035TIP3    H236521   5.955   6.262   3.313  0.2846  0.6763 -0.0841
 5036TIP3   OH236522   1.073   0.711  17.296  0.3378 -0.0908 -0.4082
 5036TIP3    H136523   1.019   0.762  17.356 -1.2076 -0.7616 -1.1751
 5036TIP3    H236524   1.151   0.690  17.347  0.0892  1.2650  0.5982
 5037TIP3   OH236525   0.093   3.027  14.583 -0.1497  0.4950  0.0241
 5037TIP3    H136526  -0.000   3.034  14.564 -0.2613 -0.2491  0.2938
 5037TIP3    H236527   0.105   2.939  14.617  0.8551  0.1597 -1.1217
 5038TIP3   OH236528   6.040   2.661  13.848 -0.4105 -0.0554  0.3820
 5038TIP3    H136529   5.987   2.639  13.771  1.0648  0.0473 -0.6981
 5038TIP3    H236530   6.055   2.577  13.892  1.2727 -0.6236 -1.1536
 5039TIP3   OH236531   2.703   2.849   3.295 -0.1626  0.2450 -0.5708
 5039TIP3    H136532   2.781   2.903   3.305  0.3287 -0.5501  0.0884
 5039TIP3    H236533   2.638   2.889   3.353 -0.8079  1.8458 -2.3000
 5040TIP3   OH236534   5.615   5.037  13.419 -0.3493 -0.3144  0.4371
 5040TIP3    H136535   5.665   5.118  13.426 -0.5079 -0.1666 -0.0905
 5040TIP3    H236536   5.569   5.030  13.502 -1.3561  0.8198  0.0014
 5041TIP3   OH236537   0.685   2.900  14.013 -0.0854 -0.4054  0.4212
 5041TIP3    H136538   0.655   2.974  14.068  0.6399  0.0645  0.1917
 5041TIP3    H236539   0.660   2.822  14.063  1.0773  0.0120  1.7295
 5042TIP3   OH236540   6.154   2.319   4.155 -0.2508 -0.3196 -0.4450
 5042TIP3    H136541   6.163   2.342   4.247 -1.4182  0.0325 -0.4131
 5042TIP3    H236542   6.209   2.241   4.145  0.3561 -0.0171  0.3994
 5043TIP3   OH236543   4.607   5.065  12.674 -0.3017 -0.3511 -0.0008
 5043TIP3    H136544   4.667   5.100  12.608  1.4390  0.6637  1.9934
 5043TIP3    H236545   4.657   4.994  12.716 -1.1054 -0.5570  0.6359
 5044TIP3   OH236546   1.442   3.545  16.229 -0.2918  0.4177  0.0692
 5044TIP3    H136547   1.418   3.541  16.137 -1.4684  2.1987  0.2571
 5044TIP3    H236548   1.368   3.588  16.272  0.8407  0.9293  1.6013
 5045TIP3   OH236549   3.539   5.830   2.300 -0.3711 -0.0020  0.0639
 5045TIP3    H136550   3.489   5.905   2.334 -0.4204 -0.1711  0.3624
 5045TIP3    H236551   3.487   5.799   2.226  1.4644  2.5818 -2.5601
 5046TIP3   OH236552   2.862   1.848  15.176 -0.1305  0.4722  0.2417
 5046TIP3    H136553   2.780   1.833  15.129 -0.0472  0.8571 -0.0380
 5046TIP3    H236554   2.910   1.908  15.120  0.9938 -0.9228 -0.3333
 5047TIP3   OH236555   3.333   1.117  16.047 -0.4686  0.0468 -0.1072
 5047TIP3    H136556   3.375   1.196  16.015 -1.5346  0.1970 -1.1885
 5047TIP3    H236557   3.272   1.092  15.978 -0.7554 -1.2529  0.5784
 5048TIP3   OH236558   1.727   3.747  15.469 -0.1147  0.4006  0.2811
 5048TIP3    H136559   1.693   3.661  15.446  1.4811 -0.0588 -0.4654
 5048TIP3    H236560   1.817   3.747  15.437  0.2537  1.9662  1.2177
 5049TIP3   OH236561   4.517   0.716  11.862 -0.1712 -0.0264 -0.2755
 5049TIP3    H136562   4.544   0.734  11.772  0.4956  3.1416  0.4296
 5049TIP3    H236563   4.423   0.735  11.864 -0.0291  0.6884 -0.1543
 5050TIP3   OH236564   1.193   0.320   1.469 -0.4727  0.6147 -0.1974
 5050TIP3    H136565   1.250   0.386   1.508  0.6727 -0.7536  0.5563
 5050TIP3    H236566   1.248   0.277   1.403 -0.3872 -1.0937  0.9108
 5051TIP3   OH236567   6.537   5.789  13.878  0.2542  0.1354 -0.3228
 5051TIP3    H136568   6.467   5.778  13.814 -0.1102  0.9033 -0.0686
 5051TIP3    H236569   6.501   5.755  13.960  1.2269 -2.2228 -0.7795
 5052TIP3   OH236570   5.152   0.359   4.119 -0.1282  0.2714 -0.0747
 5052TIP3    H136571   5.221   0.370   4.053 -1.4448  1.6136 -1.2900
 5052TIP3    H236572   5.137   0.264   4.122  1.3299  0.0075 -0.2081
 5053TIP3   OH236573   5.059   0.379  13.242 -0.5501 -0.2305  0.5038
 5053TIP3    H136574   4.994   0.427  13.191 -0.4867 -0.7470 -0.0806
 5053TIP3    H236575   5.014   0.355  13.323 -0.8897 -0.0423  0.3715
 5054TIP3   OH236576   1.214   3.570  13.452 -0.2097  0.5329 -0.4717
 5054TIP3    H136577   1.268   3.500  13.490 -0.3396  1.4733  1.5764
 5054TIP3    H236578   1.143   3.524  13.407 -0.6916 -0.6914  1.4383
 5055TIP3   OH236579   1.387   2.086  13.066 -0.1672 -0.5891  0.0759
 5055TIP3    H136580   1.426   2.172  13.082  2.2490 -1.4146 -0.8872
 5055TIP3    H236581   1.349   2.094  12.978 -0.5248 -0.3230  0.2520
 5056TIP3   OH236582   6.128   1.738  17.212 -0.5780  0.2766 -0.4861
 5056TIP3    H136583   6.092   1.819  17.249  1.2213  2.3356 -2.9641
 5056TIP3    H236584   6.052   1.680  17.205 -1.7644  1.3505  2.1824
 5057TIP3   OH236585   2.662   6.641   6.280  0.3141  0.2801 -0.0292
 5057TIP3    H136586   2.660   6.587   6.359  2.2885  1.1652  0.6960
 5057TIP3    H236587   2.697   6.583   6.212  0.8359  0.1600  0.3376
 5058TIP3   OH236588   5.305   2.659  14.029  0.5526 -0.0133  0.2532
 5058TIP3    H136589   5.330   2.644  13.937  2.1704 -0.3554  0.7067
 5058TIP3    H236590   5.309   2.572  14.069 -2.3448 -0.2489  0.2074
 5059TIP3   OH236591   1.398   5.773  12.870  0.3335  0.9159 -0.9499
 5059TIP3    H136592   1.427   5.730  12.951 -0.8136  2.0281  0.1117
 5059TIP3    H236593   1.365   5.858  12.899 -1.4231  0.7848 -2.3872
 5060TIP3   OH236594   1.632   0.977  12.499 -0.4256  1.0980 -0.4600
 5060TIP3    H136595   1.599   1.039  12.434 -1.6108 -0.9447 -1.9218
 5060TIP3    H236596   1.589   0.895  12.478  3.1709 -1.0275 -0.4579
 5061TIP3   OH236597   6.415   6.771  12.772  0.2329 -0.2289  0.0038
 5061TIP3    H136598   6.356   6.702  12.804 -2.5473  2.0571  0.1626
 5061TIP3    H236599   6.382   6.793  12.685  0.0871  1.8873  0.5399
 5062TIP3   OH236600   2.500   4.017   0.032  0.0245  0.0344  0.3201
 5062TIP3    H136601   2.588   4.053   0.016 -0.3073  0.7361  0.0097
 5062TIP3    H236602   2.459   4.079   0.092 -0.7794  0.5336 -0.7171
 5063TIP3   OH236603   2.327   5.969   4.391  0.0859  0.0613  0.3119
 5063TIP3    H136604   2.344   6.045   4.336  1.2463 -0.2805  0.1591
 5063TIP3    H236605   2.248   5.991   4.440  1.1010  1.9135  1.2262
 5064TIP3   OH236606   0.813   1.561   2.804 -0.1255 -0.1175 -0.0425
 5064TIP3    H136607   0.800   1.629   2.738 -1.4860  0.2185  0.5410
 5064TIP3    H236608   0.876   1.599   2.866 -0.0105  0.1501 -0.3206
 5065TIP3   OH236609   4.668   4.524  16.016 -0.0659 -0.2075 -0.2100
 5065TIP3    H136610   4.676   4.565  16.102 -2.1580 -0.5536  0.2004
 5065TIP3    H236611   4.604   4.579  15.970 -0.1714 -0.9486 -0.9615
 5066TIP3   OH236612   5.975   4.583  12.879  0.6796  1.2005 -0.1090
 5066TIP3    H136613   5.969   4.524  12.954 -0.9177  0.8446 -0.4799
 5066TIP3    H236614   5.902   4.644  12.890  1.6443  2.4344 -0.3221
 5067TIP3   OH236615   5.640   0.610   3.252 -0.2798 -0.7543 -0.4430
 5067TIP3    H136616   5.676   0.699   3.252 -0.0098 -0.8611 -0.0143
 5067TIP3    H236617   5.717   0.553   3.263 -0.5828 -0.9793  0.5788
 5068TIP3   OH236618   2.079   4.319   3.023  0.3553  0.2968 -0.1581
 5068TIP3    H136619   2.160   4.361   2.994  0.3833  1.1458  1.0511
 5068TIP3    H236620   2.018   4.391   3.038 -1.0441 -0.3998 -2.1624
 5069TIP3   OH236621   2.914   3.078  13.479  0.4109 -0.0140 -0.0862
 5069TIP3    H136622   2.959   3.025  13.546 -0.2723 -0.1791  0.2460
 5069TIP3    H236623   2.971   3.071  13.402  0.6727 -0.6934  0.1561
 5070TIP3   OH236624   2.514   5.495   1.489  0.3572  0.4518  0.3156
 5070TIP3    H136625   2.428   5.537   1.486  0.3602  0.4158 -0.8008
 5070TIP3    H236626   2.576   5.567   1.501  0.3348  0.7819 -1.2660
 5071TIP3   OH236627   6.462   2.224  16.341 -0.4394  0.3767  0.4220
 5071TIP3    H136628   6.420   2.303  16.375 -1.6769 -0.0984  0.0281
 5071TIP3    H236629   6.400   2.189  16.277  1.4554  0.8083 -1.7798
 5072TIP3   OH236630   3.857   5.740   4.709 -0.0068  0.5485 -0.2489
 5072TIP3    H136631   3.882   5.831   4.727 -3.1862  1.3297  0.8558
 5072TIP3    H236632   3.856   5.698   4.795 -0.6182  0.0821 -0.4779
 5073TIP3   OH236633   2.495   3.805   1.553  0.4352  0.5542 -0.8543
 5073TIP3    H136634   2.445   3.744   1.499  0.2484 -0.7576  0.7029
 5073TIP3    H236635   2.582   3.807   1.513  1.1045 -2.4445  0.1784
 5074TIP3   OH236636   5.919   5.693   4.593  0.2755  0.1332  0.0867
 5074TIP3    H136637   5.921   5.602   4.623  0.7404  0.1894  0.2361
 5074TIP3    H236638   5.835   5.726   4.625 -0.0783 -0.3573 -0.3199
 5075TIP3   OH236639   0.889   2.600  11.704  0.1750 -0.5770  0.0756
 5075TIP3    H136640   0.917   2.514  11.674 -2.5113 -1.4665 -0.0783
 5075TIP3    H236641   0.867   2.647  11.624 -0.3826 -0.5123  0.2610
 5076TIP3   OH236642   2.187   2.247  16.192  0.9703 -0.0526 -0.5194
 5076TIP3    H136643   2.121   2.316  16.201  0.6205 -0.3915 -0.4381
 5076TIP3    H236644   2.146   2.184  16.133  1.1530 -0.3519 -0.3236
 5077TIP3   OH236645   2.329   1.749   1.297  0.4394  0.4496 -0.1224
 5077TIP3    H136646   2.359   1.706   1.377  1.2155 -1.4852 -1.4017
 5077TIP3    H236647   2.391   1.821   1.285  1.6773 -0.5769 -0.1310
 5078TIP3   OH236648   0.084   0.266   2.887  0.1748 -0.2604 -0.6502
 5078TIP3    H136649   0.033   0.186   2.871  1.9550 -1.2799 -1.5909
 5078TIP3    H236650   0.090   0.308   2.801 -0.0073  0.4090 -0.3345
 5079TIP3   OH236651   0.327   5.762   4.015  0.1796  0.2707  0.5994
 5079TIP3    H136652   0.270   5.793   3.944 -1.6206 -1.5464  1.1766
 5079TIP3    H236653   0.319   5.829   4.083  0.7857  1.3014 -0.3106
 5080TIP3   OH236654   3.550   3.732  15.625  0.2239 -0.5020  0.5604
 5080TIP3    H136655   3.531   3.699  15.538  0.5997 -0.3651  0.4233
 5080TIP3    H236656   3.502   3.815  15.631  1.8447  0.5569 -0.3034
 5081TIP3   OH236657   0.528   0.414  16.897  0.0030 -0.1508 -0.0498
 5081TIP3    H136658   0.438   0.382  16.897  0.5000 -1.6851  1.6111
 5081TIP3    H236659   0.528   0.485  16.832 -1.8713 -1.5480 -1.7081
 5082TIP3   OH236660   6.572   6.471  16.527  0.2083 -0.8938  0.2196
 5082TIP3    H136661   6.611   6.392  16.565  1.4508 -0.1976  0.4518
 5082TIP3    H236662   6.520   6.439  16.453  1.0146 -1.8951  0.0648
 5083TIP3   OH236663   6.392   1.571  15.611  0.0126 -0.2321  0.1041
 5083TIP3    H136664   6.394   1.628  15.688  0.0013 -1.0451  0.7296
 5083TIP3    H236665   6.341   1.619  15.546 -0.7896  0.0850  0.9445
 5084TIP3   OH236666   2.451   1.226   5.784  0.2142  0.4839  0.6300
 5084TIP3    H136667   2.381   1.206   5.721  1.2343 -2.9129  0.4308
 5084TIP3    H236668   2.448   1.155   5.847  1.3956  2.0722  2.5875
 5085TIP3   OH236669   2.954   4.341  10.847 -0.6541  0.0246  0.0103
 5085TIP3    H136670   2.868   4.381  10.840 -0.3136  0.8169  0.2736
 5085TIP3    H236671   2.942   4.272  10.913 -0.8446  0.8259  0.8340
 5086TIP3   OH236672   0.241   0.648  14.878 -0.1101  0.6865  0.1645
 5086TIP3    H136673   0.323   0.603  14.895 -0.3915 -0.2303 -0.8102
 5086TIP3    H236674   0.249   0.731  14.925  0.8286  0.0607  1.1589
 5087TIP3   OH236675   2.289   0.607   5.269 -0.0422 -0.2206 -0.4968
 5087TIP3    H136676   2.215   0.664   5.291  1.5298  0.7121  2.9766
 5087TIP3    H236677   2.346   0.660   5.214 -1.0876 -0.3790 -1.7842
 5088TIP3   OH236678   1.467   5.318  12.016  0.0272 -0.0198 -0.7450
 5088TIP3    H136679   1.416   5.266  12.079  1.6066 -0.5208  0.1880
 5088TIP3    H236680   1.524   5.254  11.974 -0.8376  0.3577 -2.5712
 5089TIP3   OH236681   1.482   6.534   2.370 -0.3941  0.3082  0.6425
 5089TIP3    H136682   1.485   6.555   2.464 -2.4547  0.4728  0.7266
 5089TIP3    H236683   1.402   6.483   2.360  0.6421 -1.1264 -0.7998
 5090TIP3   OH236684   4.788   6.708  13.221  0.0246  0.5486 -0.6513
 5090TIP3    H136685   4.747   6.700  13.135  2.2134 -0.0777 -1.6815
 5090TIP3    H236686   4.744   6.641  13.274 -0.4651  0.0798 -1.6261
 5091TIP3   OH236687   2.389   5.286  13.935 -0.1940 -0.6336  0.2550
 5091TIP3    H136688   2.340   5.247  14.007 -1.3395  0.0444 -0.1355
 5091TIP3    H236689   2.339   5.264  13.856 -0.7542  1.3685  0.0003
 5092TIP3   OH236690   4.071   1.486   5.226  0.0800 -0.0098  0.0676
 5092TIP3    H136691   4.082   1.394   5.202 -1.4001 -0.0832 -0.4556
 5092TIP3    H236692   4.138   1.532   5.175 -0.5556 -0.5866 -1.3620
 5093TIP3   OH236693   2.535   2.065   4.507 -0.2629  0.0563  0.2716
 5093TIP3    H136694   2.456   2.011   4.509 -0.1933 -0.0488  0.1886
 5093TIP3    H236695   2.503   2.154   4.493 -0.2715 -0.1934 -1.5470
 5094TIP3   OH236696   5.149   6.257   3.561 -0.4528  0.0174 -0.1429
 5094TIP3    H136697   5.077   6.236   3.502 -1.9674 -1.6625  2.1081
 5094TIP3    H236698   5.151   6.353   3.565 -3.9851  0.1875  1.1887
 5095TIP3   OH236699   0.650   6.707   5.582 -0.0137  0.1279  0.5006
 5095TIP3    H136700   0.677   6.660   5.503  0.2007  0.5167  0.3407
 5095TIP3    H236701   0.653   6.800   5.557 -1.5052  0.1950  0.4786
 5096TIP3   OH236702   1.616   3.945  13.617  0.0838  0.0130  0.1585
 5096TIP3    H136703   1.574   3.889  13.682 -0.6405  2.0038  1.4990
 5096TIP3    H236704   1.583   3.914  13.533  0.3628 -2.0624  0.7598
 5097TIP3   OH236705   4.754   2.791   2.280 -0.0268  0.0431 -0.2579
 5097TIP3    H136706   4.747   2.874   2.233 -0.5363 -0.0468 -0.3468
 5097TIP3    H236707   4.687   2.735   2.241 -0.7035  0.0820  0.8131
 5098TIP3   OH236708   4.934   3.860  11.054 -0.0320 -0.8157  0.2953
 5098TIP3    H136709   5.000   3.791  11.054 -0.0487 -0.8472 -0.7704
 5098TIP3    H236710   4.879   3.840  10.977  0.1127  0.5243 -0.1744
 5099TIP3   OH236711   4.638   0.196  15.643  0.1243 -0.0400  0.8224
 5099TIP3    H136712   4.708   0.137  15.617 -0.2762 -0.7074  1.2203
 5099TIP3    H236713   4.665   0.282  15.610  1.3875 -0.1745  1.4281
 5100TIP3   OH236714   0.808   2.837   3.236 -0.2333  0.0024 -0.1247
 5100TIP3    H136715   0.866   2.863   3.307  0.5321 -0.7437 -0.4560
 5100TIP3    H236716   0.752   2.770   3.274 -2.1607  1.9586  0.7103
 5101TIP3   OH236717   5.686   3.780   6.431  0.3809 -0.0797 -0.1849
 5101TIP3    H136718   5.674   3.846   6.499 -1.2735 -1.3635  0.8544
 5101TIP3    H236719   5.629   3.809   6.360 -0.8029 -0.6477  0.5041
 5102TIP3   OH236720   5.772   0.819   3.819 -0.7098  0.3262 -0.4698
 5102TIP3    H136721   5.828   0.880   3.771 -1.2577  1.5034  0.3434
 5102TIP3    H236722   5.830   0.779   3.884 -0.1644 -0.6422 -1.5187
 5103TIP3   OH236723   6.037   1.223  15.279 -0.0064  0.0656 -0.3443
 5103TIP3    H136724   6.077   1.268  15.354  0.2458  1.4324 -1.2711
 5103TIP3    H236725   6.075   1.265  15.202 -2.8693  1.1891 -1.2978
 5104TIP3   OH236726   6.496   4.388   0.413  0.7517  0.2048  0.2605
 5104TIP3    H136727   6.587   4.412   0.431  0.6920 -0.3040  1.3565
 5104TIP3    H236728   6.497   4.293   0.409  0.1594  0.1648  0.9645
 5105TIP3   OH236729   4.343   2.152   2.315 -0.1388  0.0510  0.6615
 5105TIP3    H136730   4.368   2.233   2.270  1.5474 -1.1903 -0.8121
 5105TIP3    H236731   4.257   2.130   2.279  0.3549  0.0851 -0.5938
 5106TIP3   OH236732   1.903   2.200   2.772  0.7545 -0.0318  0.1227
 5106TIP3    H136733   1.975   2.263   2.771  1.4609 -0.8286  0.3335
 5106TIP3    H236734   1.828   2.251   2.803  1.2570  0.7643  0.0613
 5107TIP3   OH236735   2.724   5.004  16.200  0.3051 -0.1675  0.1462
 5107TIP3    H136736   2.696   5.095  16.190  0.8780 -0.0645 -0.6456
 5107TIP3    H236737   2.695   4.979  16.288 -1.4869  0.1867 -0.3023
 5108TIP3   OH236738   2.063   1.228  16.358  0.3769  0.7763  0.2200
 5108TIP3    H136739   1.980   1.192  16.387  0.4570  0.0673 -0.4115
 5108TIP3    H236740   2.101   1.160  16.302  2.7088 -0.1527  2.7147
 5109TIP3   OH236741   1.368   4.990  13.507 -0.2788  0.1485 -0.1441
 5109TIP3    H136742   1.288   4.938  13.514 -0.6873  0.9911  2.1269
 5109TIP3    H236743   1.439   4.926  13.517 -0.5102 -0.7506 -3.0702
 5110TIP3   OH236744   2.534   0.452  12.845 -0.4988  0.1131 -0.0785
 5110TIP3    H136745   2.508   0.385  12.781  0.1769  1.0816 -1.4009
 5110TIP3    H236746   2.589   0.513  12.796  3.8732 -1.4220  2.3474
 5111TIP3   OH236747   2.574   0.928   4.149  0.1034 -0.6496  0.1788
 5111TIP3    H136748   2.544   0.863   4.212  1.8757 -0.2221  1.5349
 5111TIP3    H236749   2.652   0.890   4.110  1.1501  0.5965  0.9627
 5112TIP3   OH236750   4.248   0.634   3.163  0.2786 -0.2709 -0.1202
 5112TIP3    H136751   4.216   0.594   3.244 -0.1899 -0.1023 -0.2168
 5112TIP3    H236752   4.183   0.610   3.097 -0.2533  0.9985 -0.0889
 5113TIP3   OH236753   3.679   1.966   4.076 -0.0095  0.2326  0.0181
 5113TIP3    H136754   3.674   2.035   4.142  0.7094 -0.8338  1.2345
 5113TIP3    H236755   3.590   1.959   4.041 -0.1408  1.5940  0.0496
 5114TIP3   OH236756   6.302   6.023  10.813 -0.0611  0.4115  0.0958
 5114TIP3    H136757   6.255   5.983  10.740  0.2523 -2.1470  1.1916
 5114TIP3    H236758   6.385   6.053  10.775 -0.7760  1.0918 -0.9881
 5115TIP3   OH236759   1.005   3.358  11.662  0.0080  0.7089  0.3720
 5115TIP3    H136760   1.013   3.278  11.609 -0.5866  0.5178  0.5662
 5115TIP3    H236761   1.084   3.408  11.642  0.6581 -0.1829  0.6788
 5116TIP3   OH236762   1.693   1.279  17.187 -0.3673  0.0718 -0.3185
 5116TIP3    H136763   1.632   1.240  17.249 -0.6413  0.2415 -0.4785
 5116TIP3    H236764   1.640   1.297  17.109 -0.1379  0.3127 -0.4206
 5117TIP3   OH236765   2.607   0.028   3.603  0.4106 -0.5104 -0.3191
 5117TIP3    H136766   2.703   0.031   3.604  0.4192 -0.6681 -0.5936
 5117TIP3    H236767   2.580   0.120   3.607  0.6090 -0.2556 -3.2038
 5118TIP3   OH236768   0.776   0.402   4.366  0.1355  0.1420  0.5996
 5118TIP3    H136769   0.840   0.337   4.395  2.1435  1.8967  0.3273
 5118TIP3    H236770   0.716   0.353   4.310  2.1813 -1.3004 -0.4608
 5119TIP3   OH236771   2.151   6.560  12.573  0.2632 -0.5243 -0.4327
 5119TIP3    H136772   2.198   6.626  12.624  0.8850 -0.1825 -1.4294
 5119TIP3    H236773   2.124   6.495  12.638  1.4006 -0.3187  0.2692
 5120TIP3   OH236774   3.794   6.724   5.432 -0.0481  0.2079 -0.1816
 5120TIP3    H136775   3.763   6.794   5.374  0.4949  0.2611 -0.4201
 5120TIP3    H236776   3.798   6.764   5.519 -0.7142  0.1751 -0.1295
 5121TIP3   OH236777   4.347   5.193   0.228 -0.2070  0.2280  0.0661
 5121TIP3    H136778   4.262   5.214   0.190 -0.4783 -3.6382 -2.0168
 5121TIP3    H236779   4.408   5.252   0.184 -1.2972 -0.0332 -1.9341
 5122TIP3   OH236780   5.968   4.607   3.908  0.6778  0.2814  0.0475
 5122TIP3    H136781   5.922   4.615   3.824  0.3088 -0.4089  0.1776
 5122TIP3    H236782   6.028   4.682   3.910 -1.3674  1.9949  0.4729
 5123TIP3   OH236783   0.123   3.958   2.094  0.2688 -0.3498  0.2134
 5123TIP3    H136784   0.143   3.932   2.184  3.1400  2.5239  0.6188
 5123TIP3    H236785   0.073   4.039   2.104  1.7730  0.7365 -0.6675
 5124TIP3   OH236786   5.109   2.742  11.349 -0.0024  0.1295  0.0287
 5124TIP3    H136787   5.079   2.704  11.266 -0.3754  0.0901  0.1792
 5124TIP3    H236788   5.199   2.770  11.332  0.8239 -2.1398  0.3094
 5125TIP3   OH236789   1.658   4.897  14.925 -0.6402  0.1270  0.1782
 5125TIP3    H136790   1.680   4.904  14.832 -1.1507  1.4600  0.1482
 5125TIP3    H236791   1.565   4.873  14.926 -0.8518  0.9414  0.3432
 5126TIP3   OH236792   5.888   3.279  16.723  0.0387  0.4758  0.4335
 5126TIP3    H136793   5.811   3.230  16.691  0.5900 -0.6212  0.7585
 5126TIP3    H236794   5.858   3.319  16.805  0.6259 -2.3660  2.1469
 5127TIP3   OH236795   0.507   6.592  15.224 -0.6522  0.1157  0.5651
 5127TIP3    H136796   0.520   6.660  15.290 -0.0346  0.1105  0.4592
 5127TIP3    H236797   0.413   6.575  15.224 -1.0377  2.0112 -0.4622
 5128TIP3   OH236798   4.048   3.381  17.172 -0.5579  0.1102 -0.3464
 5128TIP3    H136799   4.062   3.449  17.238  0.3822  0.2160 -0.6267
 5128TIP3    H236800   3.954   3.367  17.170 -0.7327  1.1573 -0.0268
 5129TIP3   OH236801   6.764   2.606   4.517  0.0731 -0.4886  0.3353
 5129TIP3    H136802   6.697   2.658   4.563 -1.5506 -2.6319  0.5754
 5129TIP3    H236803   6.716   2.562   4.447  0.9979 -2.6983  0.9771
 5130TIP3   OH236804   2.025   5.264  12.984 -0.3974  0.6853 -0.1307
 5130TIP3    H136805   2.069   5.330  13.038  1.2529  0.4327 -1.0807
 5130TIP3    H236806   1.976   5.211  13.047  0.5772  1.0666  1.0051
 5131TIP3   OH236807   3.624   2.071  10.436 -0.2825 -0.2862 -0.0273
 5131TIP3    H136808   3.716   2.053  10.414 -0.2675  0.5555 -0.6953
 5131TIP3    H236809   3.582   1.985  10.431 -0.2852 -0.2211 -3.4796
 5132TIP3   OH236810   2.709   1.903  16.981 -0.5364 -0.3756  0.6823
 5132TIP3    H136811   2.644   1.861  16.926  0.6710 -0.6504 -0.5928
 5132TIP3    H236812   2.742   1.976  16.928  0.5738 -0.5789  1.0562
 5133TIP3   OH236813   5.921   0.861   5.776  0.5156  0.1337  0.5383
 5133TIP3    H136814   5.890   0.849   5.866  0.5687  1.5176  0.7556
 5133TIP3    H236815   5.965   0.945   5.777  1.1514 -0.1714 -0.6277
 5134TIP3   OH236816   4.699   0.573  11.462  0.0247 -0.1508 -0.0117
 5134TIP3    H136817   4.703   0.510  11.391 -1.9363  0.5081 -0.7793
 5134TIP3    H236818   4.782   0.620  11.458  0.1862 -0.5229 -1.4862
 5135TIP3   OH236819   5.308   3.128   2.429  0.0661  0.7033 -0.1531
 5135TIP3    H136820   5.300   3.033   2.436  0.8884  0.7378  2.2497
 5135TIP3    H236821   5.218   3.159   2.415 -0.1623 -0.4206 -1.3217
 5136TIP3   OH236822   4.791   3.548  12.737 -0.0258  0.5191 -0.3590
 5136TIP3    H136823   4.744   3.549  12.820  1.6398 -2.2150  0.7437
 5136TIP3    H236824   4.729   3.510  12.675 -0.2899 -0.2903  0.3777
 5137TIP3   OH236825   1.089   2.405  11.957 -0.4806 -0.2030 -0.3575
 5137TIP3    H136826   1.083   2.497  11.931  0.3097 -0.6965 -2.4806
 5137TIP3    H236827   1.183   2.389  11.967 -0.5196 -1.1117 -1.3690
 5138TIP3   OH236828   5.817   0.441   5.062  0.6041 -0.1996 -0.1995
 5138TIP3    H136829   5.795   0.358   5.020 -1.0762  0.2826 -0.3363
 5138TIP3    H236830   5.857   0.415   5.145  1.2165 -1.1351 -0.7599
 5139TIP3   OH236831   1.327   0.237   2.668 -0.4360  0.9506 -0.1437
 5139TIP3    H136832   1.249   0.191   2.636 -1.2443  0.4306  2.3664
 5139TIP3    H236833   1.301   0.273   2.753  2.2593  0.0782  1.1798
 5140TIP3   OH236834   3.824   1.400  14.006 -0.4730  0.2818  0.6553
 5140TIP3    H136835   3.888   1.336  14.038  0.3172  0.7726  0.0904
 5140TIP3    H236836   3.784   1.358  13.930 -1.3852 -0.3277  1.4308
 5141TIP3   OH236837   6.512   5.819  11.974 -0.0959  0.0333 -0.1471
 5141TIP3    H136838   6.560   5.893  11.935 -0.5817 -0.2389 -1.3160
 5141TIP3    H236839   6.523   5.748  11.911 -0.6646 -0.5189  0.3673
 5142TIP3   OH236840   0.728   3.078  16.143 -0.5707 -0.1710  0.2104
 5142TIP3    H136841   0.681   3.030  16.076 -0.5439 -0.7678  0.6106
 5142TIP3    H236842   0.659   3.113  16.200 -0.6290  0.9060 -0.4879
 5143TIP3   OH236843   4.175   3.788   2.268 -0.1997  0.3025  0.4607
 5143TIP3    H136844   4.214   3.702   2.277  0.2499  0.3922 -0.5508
 5143TIP3    H236845   4.080   3.772   2.272 -0.1094 -0.1502  0.8783
 5144TIP3   OH236846   4.186   4.944  17.291  0.1575  0.0390 -0.5180
 5144TIP3    H136847   4.278   4.940  17.266 -0.4242  1.2183 -3.3187
 5144TIP3    H236848   4.145   4.872  17.243 -0.2591 -1.2468  1.6642
 5145TIP3   OH236849   5.729   6.126   5.201 -0.4904  0.5977 -0.2097
 5145TIP3    H136850   5.653   6.182   5.218  1.1970  2.8522  0.3223
 5145TIP3    H236851   5.802   6.170   5.243  1.0155 -1.9856  0.1126
 5146TIP3   OH236852   4.359   4.756   2.939 -0.3715 -0.0252  0.2154
 5146TIP3    H136853   4.408   4.821   2.889 -0.6820  0.4830  0.5572
 5146TIP3    H236854   4.348   4.796   3.026 -0.1505 -0.7392  0.5837
 5147TIP3   OH236855   4.484   1.267   2.899 -0.0631 -0.4028  0.0591
 5147TIP3    H136856   4.427   1.265   2.975 -0.5139  2.5023 -0.1026
 5147TIP3    H236857   4.430   1.235   2.827 -0.5785 -0.3517  0.4233
 5148TIP3   OH236858   4.929   1.776   2.744 -0.1390 -0.1572  0.4502
 5148TIP3    H136859   4.970   1.839   2.803 -1.3167  0.9974  0.0767
 5148TIP3    H236860   4.835   1.786   2.759 -0.3915 -1.0410 -0.4138
 5149TIP3   OH236861   2.698   2.420   0.900 -0.1045 -0.7077 -0.0474
 5149TIP3    H136862   2.676   2.449   0.989  0.9510 -2.3569  0.7843
 5149TIP3    H236863   2.615   2.390   0.863 -0.8909  1.5687 -0.2968
 5150TIP3   OH236864   4.389   5.433   1.934 -0.5545  0.1905  0.4706
 5150TIP3    H136865   4.416   5.508   1.881  1.6524 -1.1617 -0.4700
 5150TIP3    H236866   4.314   5.397   1.887  0.9668 -0.6079 -1.5240
 5151TIP3   OH236867   5.215   5.497  16.701  0.3591 -0.0009 -0.2158
 5151TIP3    H136868   5.169   5.421  16.667 -0.4175  0.3268  0.0684
 5151TIP3    H236869   5.237   5.474  16.791 -0.2169  0.2361 -0.0026
 5152TIP3   OH236870   4.344   0.386   5.933  0.5857  0.1839 -0.5484
 5152TIP3    H136871   4.377   0.334   6.007  0.5200 -0.6351 -1.0816
 5152TIP3    H236872   4.249   0.391   5.947  0.6439  0.5467 -0.2620
 5153TIP3   OH236873   1.085   5.996   1.495 -0.1424  0.0523 -0.9404
 5153TIP3    H136874   1.015   5.938   1.524  0.6767  0.3108  1.8726
 5153TIP3    H236875   1.149   5.938   1.455 -0.8322 -0.5066 -1.2663
 5154TIP3   OH236876   1.948   3.993   5.803  0.0212  0.3875 -0.1154
 5154TIP3    H136877   2.017   3.976   5.739 -0.1882 -0.6054 -0.0861
 5154TIP3    H236878   1.885   4.049   5.757 -0.2446 -0.5084 -0.8611
 5155TIP3   OH236879   6.518   4.020   4.678  0.3679  0.3051  0.1358
 5155TIP3    H136880   6.439   3.970   4.657  1.4065 -1.0311 -0.7453
 5155TIP3    H236881   6.509   4.039   4.772 -1.4732  1.1089 -0.1563
 5156TIP3   OH236882   1.086   4.623   1.550 -0.3191 -0.4296  0.3841
 5156TIP3    H136883   1.179   4.618   1.525 -0.3150 -0.1427  0.3479
 5156TIP3    H236884   1.066   4.534   1.580 -0.7976 -1.3263 -2.2783
 5157TIP3   OH236885   4.348   4.510   1.511  0.1390 -0.0368  0.1669
 5157TIP3    H136886   4.257   4.539   1.519  0.0465 -0.0459 -0.7025
 5157TIP3    H236887   4.387   4.529   1.596 -0.5582  0.3879  0.4003
 5158TIP3   OH236888   1.520   2.680  16.339 -0.5103 -0.0425 -0.2006
 5158TIP3    H136889   1.471   2.693  16.421 -0.4626 -0.7788 -0.0558
 5158TIP3    H236890   1.472   2.612  16.293  0.3336 -0.7139 -0.0988
 5159TIP3   OH236891   1.954   2.838  15.124  0.1352  0.3202 -0.3725
 5159TIP3    H136892   1.886   2.787  15.169  0.0763 -0.1012 -0.9310
 5159TIP3    H236893   1.937   2.823  15.031  0.6214  0.7079 -0.5247
 5160TIP3   OH236894   4.154   2.594   1.283  0.0263  0.0883  0.1223
 5160TIP3    H136895   4.131   2.560   1.369 -4.0832  0.5878 -0.5859
 5160TIP3    H236896   4.127   2.686   1.285  1.4491  0.5922 -1.2240
 5161TIP3   OH236897   2.676   4.170  11.713 -0.2457  0.1854 -0.0292
 5161TIP3    H136898   2.631   4.218  11.782 -0.8066 -1.2747  0.6610
 5161TIP3    H236899   2.629   4.194  11.633  0.5239  2.0257  0.0169
 5162TIP3   OH236900   0.914   2.402   0.297  0.2676  0.6797 -0.3812
 5162TIP3    H136901   0.913   2.318   0.344 -0.6663  0.9062  0.0246
 5162TIP3    H236902   0.825   2.435   0.306  0.7917  2.0457  0.0677
 5163TIP3   OH236903   1.885   3.983  12.770 -0.4560  0.5574 -0.7831
 5163TIP3    H136904   1.922   4.070  12.788  1.1653 -0.5161  1.6421
 5163TIP3    H236905   1.852   3.954  12.855 -0.0657 -1.5866 -1.3190
 5164TIP3   OH236906   2.972   1.016   6.227  0.0295 -0.0195  0.0510
 5164TIP3    H136907   3.036   1.076   6.264  0.2625 -0.6861  0.7730
 5164TIP3    H236908   2.998   0.930   6.261  0.1663 -0.6507 -1.5577
 5165TIP3   OH236909   4.618   0.319  15.248 -0.5601 -0.0306  0.0621
 5165TIP3    H136910   4.588   0.230  15.234  0.8982 -0.4430 -0.6815
 5165TIP3    H236911   4.711   0.317  15.223 -0.5821  1.7611 -0.3136
 5166TIP3   OH236912   3.374   1.766   2.065 -0.0186  0.0927 -0.4530
 5166TIP3    H136913   3.298   1.762   2.122  0.5187  1.2739  0.3868
 5166TIP3    H236914   3.341   1.740   1.979 -0.6815 -2.5250  0.4988
 5167TIP3   OH236915   1.515   0.204   5.280 -0.3383 -0.0969 -0.6780
 5167TIP3    H136916   1.546   0.140   5.216  0.4472  0.7341 -1.1667
 5167TIP3    H236917   1.556   0.286   5.252  1.3003  0.0217  1.7702
 5168TIP3   OH236918   5.644   4.677   4.653  0.2021  0.0858 -0.6416
 5168TIP3    H136919   5.695   4.728   4.590  0.2230  0.0854 -0.6255
 5168TIP3    H236920   5.708   4.620   4.695  0.7718  2.1154  1.4809
 5169TIP3   OH236921   5.723   5.891   3.325  0.0699 -0.4047  0.1530
 5169TIP3    H136922   5.766   5.806   3.320  2.4429  0.5460  2.1515
 5169TIP3    H236923   5.671   5.887   3.405 -0.4129 -0.2344 -0.1503
 5170TIP3   OH236924   1.196   5.232  14.258 -0.2080  0.1719  0.0152
 5170TIP3    H136925   1.221   5.196  14.172  1.1698 -0.4145  0.6290
 5170TIP3    H236926   1.160   5.157  14.305 -0.8762  0.4754  0.0043
 5171TIP3   OH236927   2.712   1.439  16.542 -0.2350  0.5018  0.2071
 5171TIP3    H136928   2.635   1.427  16.485  0.1014 -0.0605 -0.1312
 5171TIP3    H236929   2.787   1.417  16.487 -0.0158 -2.6218  1.5412
 5172TIP3   OH236930   1.891   0.907   3.674 -0.2040  0.0783 -0.4178
 5172TIP3    H136931   1.804   0.890   3.711  0.7323 -0.5726  1.6312
 5172TIP3    H236932   1.915   0.994   3.707  0.6539 -0.5225  0.6318
 5173TIP3   OH236933   0.193   0.786  12.881  0.3802  0.6374  0.1900
 5173TIP3    H136934   0.288   0.788  12.870  0.3435  4.8212 -1.2197
 5173TIP3    H236935   0.179   0.814  12.971  0.4434 -0.0998  0.4363
 5174TIP3   OH236936   4.843   0.193   1.787 -0.2305 -0.2553  0.0309
 5174TIP3    H136937   4.932   0.158   1.776 -0.9835 -1.7284 -2.0766
 5174TIP3    H236938   4.826   0.238   1.704 -1.8006 -0.8590  0.0052
 5175TIP3   OH236939   1.223   4.883   4.987  0.8041 -0.6737  0.1095
 5175TIP3    H136940   1.216   4.815   4.920  1.2709 -0.0311 -0.6085
 5175TIP3    H236941   1.304   4.862   5.034  0.9202 -0.6503 -0.0781
 5176TIP3   OH236942   3.063   2.604   1.594  0.3689  0.7605  0.3714
 5176TIP3    H136943   3.105   2.636   1.674  0.0705  3.3458 -0.3939
 5176TIP3    H236944   2.970   2.621   1.607 -0.2688 -2.4874  0.9764
 5177TIP3   OH236945   1.901   5.024   0.798  0.0262 -0.0661  0.2968
 5177TIP3    H136946   1.908   4.929   0.788  0.6549  0.0856 -0.8543
 5177TIP3    H236947   1.816   5.038   0.841  0.5252 -1.2109  1.7402
 5178TIP3   OH236948   0.127   2.670   0.822 -0.4767  0.3019 -0.5948
 5178TIP3    H136949   0.145   2.680   0.916 -0.3392 -1.1849 -0.4416
 5178TIP3    H236950   0.182   2.737   0.781 -1.5034  1.8380  0.4353
 5179TIP3   OH236951   6.548   3.891  16.268  0.4480  0.0107  0.1550
 5179TIP3    H136952   6.640   3.892  16.296 -0.4675  0.6187  3.5562
 5179TIP3    H236953   6.536   3.804  16.229  2.6838  0.3462 -1.5340
 5180TIP3   OH236954   6.584   1.023   0.162 -0.0867  0.1877  0.1783
 5180TIP3    H136955   6.660   1.020   0.104 -0.7696  0.6421 -0.7707
 5180TIP3    H236956   6.586   0.939   0.208 -0.2236 -0.7570 -1.4456
 5181TIP3   OH236957   1.668   3.696   4.743 -1.0783  0.6714 -0.3633
 5181TIP3    H136958   1.582   3.710   4.781 -0.3994  0.9562  1.1369
 5181TIP3    H236959   1.662   3.732   4.654 -2.9894 -0.8967 -0.9331
 5182TIP3   OH236960   6.353   3.922   4.013  0.2186 -0.1374 -0.1555
 5182TIP3    H136961   6.290   3.875   4.068  0.2593 -0.0297 -0.0139
 5182TIP3    H236962   6.301   3.987   3.967  0.0621 -0.7414 -0.8356
 5183TIP3   OH236963   1.006   2.901  12.838  0.0583 -0.4831  0.1207
 5183TIP3    H136964   1.064   2.966  12.799  0.2194 -1.4164 -1.2449
 5183TIP3    H236965   0.923   2.912  12.792 -0.2847 -0.4125  0.7494
 5184TIP3   OH236966   4.123   6.519   3.115 -0.6399 -0.6445  0.2271
 5184TIP3    H136967   4.121   6.474   3.030 -0.3676  2.1905 -1.4017
 5184TIP3    H236968   4.063   6.593   3.105  0.3184  0.4533  2.0771
 5185TIP3   OH236969   4.934   4.993  16.657  0.6505  0.1988  0.2033
 5185TIP3    H136970   4.940   5.038  16.572  1.0160 -0.8036 -0.3197
 5185TIP3    H236971   4.932   4.900  16.634 -0.7536 -0.0576  1.2247
 5186TIP3   OH236972   6.599   4.557   5.890 -0.7056 -0.4362  0.2995
 5186TIP3    H136973   6.534   4.627   5.877 -0.9852 -1.1397 -2.7606
 5186TIP3    H236974   6.564   4.506   5.963 -2.7599  0.1348 -0.2203
 5187TIP3   OH236975   5.799   3.998   2.738  0.0419 -0.1398 -0.0531
 5187TIP3    H136976   5.886   4.029   2.711 -0.6572  1.6141 -0.4652
 5187TIP3    H236977   5.753   4.078   2.763 -1.5605 -1.0024 -0.1405
 5188TIP3   OH236978   2.703   4.423  16.039  0.7782  0.3792 -0.3016
 5188TIP3    H136979   2.672   4.341  16.078  0.2692 -0.5124 -2.3991
 5188TIP3    H236980   2.791   4.403  16.007  1.0325  0.9549  0.0253
 5189TIP3   OH236981   5.634   5.409  16.637 -0.3499  0.1709  0.0705
 5189TIP3    H136982   5.558   5.465  16.621 -1.4059 -1.4378 -0.8361
 5189TIP3    H236983   5.619   5.374  16.724 -1.3303 -1.0742 -0.5578
 5190TIP3   OH236984   6.632   5.850   6.360  0.2405 -0.0052  0.7223
 5190TIP3    H136985   6.672   5.936   6.351  1.0315 -0.5531 -1.4971
 5190TIP3    H236986   6.705   5.789   6.350 -0.5178 -0.9555  0.9095
 5191TIP3   OH236987   4.263   6.108  13.145 -0.1324  0.2243 -0.2251
 5191TIP3    H136988   4.323   6.043  13.182 -0.7406 -0.3673 -0.2418
 5191TIP3    H236989   4.306   6.137  13.065 -0.1873 -0.7296 -0.6175
 5192TIP3   OH236990   1.630   4.430  15.387 -0.2292 -0.0111  0.0106
 5192TIP3    H136991   1.565   4.388  15.443 -1.1685  2.5088  0.9696
 5192TIP3    H236992   1.581   4.456  15.309  0.4631 -1.0930 -0.8159
 5193TIP3   OH236993   5.296   4.817  10.576 -0.3041 -0.6587  0.1522
 5193TIP3    H136994   5.368   4.795  10.517  0.2443 -1.4826  1.0799
 5193TIP3    H236995   5.331   4.887  10.632  1.0274 -3.1422  2.7011
 5194TIP3   OH236996   6.216   6.263  14.263  0.0878  0.4452 -0.3846
 5194TIP3    H136997   6.197   6.173  14.236 -1.8620  1.0402 -1.2050
 5194TIP3    H236998   6.137   6.312  14.239  1.3261  2.4993 -0.5282
 5195TIP3   OH236999   6.469   3.242   2.772 -0.0063  1.1960 -0.1313
 5195TIP3    H137000   6.516   3.174   2.821 -0.5503  1.3562  0.6398
 5195TIP3    H237001   6.474   3.214   2.681  0.6474  0.6503  0.0646
 5196TIP3   OH237002   4.372   6.041  14.856  0.2481 -0.3215  0.0778
 5196TIP3    H137003   4.356   6.075  14.768  1.7129 -1.8117 -0.8141
 5196TIP3    H237004   4.436   6.100  14.894 -0.9292  0.7513  0.4589
 5197TIP3   OH237005   5.162   4.009  11.348  0.1058 -0.4710  0.1576
 5197TIP3    H137006   5.128   3.926  11.382 -1.8319  0.6074  0.9862
 5197TIP3    H237007   5.091   4.071  11.361  1.5174  1.3424 -0.4444
 5198TIP3   OH237008   2.312   1.553  16.512 -0.2120 -0.1822  0.1607
 5198TIP3    H137009   2.227   1.571  16.551 -0.5794 -1.9828  0.3079
 5198TIP3    H237010   2.361   1.634  16.521 -1.8357  0.8272  0.2490
 5199TIP3   OH237011   0.112   1.243  13.478  0.2588 -0.4787  0.3953
 5199TIP3    H137012   0.191   1.294  13.498 -0.2049  0.4982 -0.1845
 5199TIP3    H237013   0.040   1.293  13.517 -0.2897 -0.2497 -0.8664
 5200TIP3   OH237014   0.368   5.793  11.480  0.7881 -0.3944 -0.2242
 5200TIP3    H137015   0.339   5.746  11.401  2.4300  1.1508 -1.8460
 5200TIP3    H237016   0.291   5.844  11.507  0.9618  1.3217 -2.6349
 5201TIP3   OH237017   4.130   4.171   4.794  0.0013  0.7284 -0.0970
 5201TIP3    H137018   4.076   4.233   4.844  0.8901  0.8759  0.7188
 5201TIP3    H237019   4.220   4.194   4.817  0.4101  0.2994 -1.2034
 5202TIP3   OH237020   5.984   2.067   0.819  0.0186  0.4096 -0.5083
 5202TIP3    H137021   5.932   2.139   0.855  0.2053 -0.2985  1.3244
 5202TIP3    H237022   5.931   1.989   0.834  0.8001 -0.0960 -0.2957
 5203TIP3   OH237023   3.266   0.144   5.788  0.2620 -0.0169  0.0956
 5203TIP3    H137024   3.179   0.106   5.792  0.8976 -1.4615  0.7578
 5203TIP3    H237025   3.254   0.235   5.817 -1.1967  0.1780 -0.9918
 5204TIP3   OH237026   3.893   3.049  14.273  0.5926  0.0246 -0.4463
 5204TIP3    H137027   3.925   3.092  14.193  0.8878  0.5029 -0.0810
 5204TIP3    H237028   3.917   2.957  14.262  2.3150  0.3874 -0.1108
 5205TIP3   OH237029   3.837   6.031   1.389 -0.2822 -0.2280  0.1969
 5205TIP3    H137030   3.881   6.115   1.373 -1.0762  0.1640  0.0139
 5205TIP3    H237031   3.905   5.975   1.426  0.3469  0.3915  0.0024
 5206TIP3   OH237032   3.962   3.807  12.588 -0.4866 -0.3409 -0.5627
 5206TIP3    H137033   4.038   3.858  12.616  0.8855 -1.5928 -1.7951
 5206TIP3    H237034   3.923   3.774  12.669 -1.3262  2.4032  0.2737
 5207TIP3   OH237035   6.193   1.293  12.044  0.3219  0.2142 -0.3853
 5207TIP3    H137036   6.219   1.307  12.135 -1.1950 -1.3614  0.3315
 5207TIP3    H237037   6.104   1.328  12.038  0.0144 -0.6369 -0.9855
 5208TIP3   OH237038   2.622   3.495   6.083  0.3426 -0.3152 -1.0095
 5208TIP3    H137039   2.639   3.511   6.175 -0.8530  1.0858 -1.0022
 5208TIP3    H237040   2.581   3.409   6.080  0.4364 -0.3884 -0.2481
 5209TIP3   OH237041   0.569   5.353  14.183 -0.6393 -0.1518  0.6640
 5209TIP3    H137042   0.567   5.298  14.262  0.1651 -2.4729 -0.8241
 5209TIP3    H237043   0.653   5.331  14.141 -1.9134 -0.5978 -1.8639
 5210TIP3   OH237044   3.691   4.067   0.209 -0.2514  0.4820  0.7391
 5210TIP3    H137045   3.697   4.069   0.304 -0.5615 -1.5702  0.8439
 5210TIP3    H237046   3.633   3.993   0.190  1.3064 -0.3609 -1.0687
 5211TIP3   OH237047   3.954   0.302  16.323  0.0990 -0.5411 -0.0687
 5211TIP3    H137048   3.934   0.343  16.240  1.5113  0.4220  0.0277
 5211TIP3    H237049   3.895   0.343  16.386  0.9874  0.8609 -0.1090
 5212TIP3   OH237050   1.774   2.996   4.124 -0.1021 -0.7505 -0.0579
 5212TIP3    H137051   1.773   3.027   4.034  1.2695  0.5991  0.3528
 5212TIP3    H237052   1.710   3.051   4.169  1.0344  0.3270  0.2927
 5213TIP3   OH237053   3.106   5.396   3.831  0.3614  0.0664  0.6581
 5213TIP3    H137054   3.183   5.368   3.781  0.2691 -1.5790  1.3888
 5213TIP3    H237055   3.038   5.408   3.764  1.7122  3.7274 -0.2988
 5214TIP3   OH237056   6.728   2.833   0.579  0.1092  0.3060  0.0046
 5214TIP3    H137057   6.794   2.874   0.523  0.5962  0.3423  0.5930
 5214TIP3    H237058   6.742   2.872   0.666 -2.6925  2.6415 -0.4544
 5215TIP3   OH237059   4.008   0.527  11.755 -0.2562  0.1303  0.2485
 5215TIP3    H137060   4.057   0.595  11.801 -0.4726  0.0150  0.6534
 5215TIP3    H237061   4.074   0.461  11.732 -0.0908  0.3517  0.0814
 5216TIP3   OH237062   6.454   1.269  15.612  0.1012  0.1139  0.4915
 5216TIP3    H137063   6.423   1.252  15.523  1.2951  1.3243 -0.2017
 5216TIP3    H237064   6.412   1.351  15.638 -0.7031 -0.5382  1.2922
 5217TIP3   OH237065   3.845   5.795   3.584  0.2563 -0.5047 -0.1159
 5217TIP3    H137066   3.912   5.728   3.572  1.2374  0.4895 -0.3344
 5217TIP3    H237067   3.891   5.869   3.624 -0.8356 -0.0166  0.2884
 5218TIP3   OH237068   0.334   5.167   4.461  0.5531 -0.2061  0.0518
 5218TIP3    H137069   0.315   5.242   4.518  0.6899 -1.2361  1.5361
 5218TIP3    H237070   0.295   5.190   4.377 -0.6666  0.9251  0.8761
 5219TIP3   OH237071   5.362   1.306   3.777  0.0421 -0.3260 -0.0331
 5219TIP3    H137072   5.293   1.372   3.767  0.8439  0.6854  0.8657
 5219TIP3    H237073   5.326   1.227   3.737 -1.5909  0.2098  0.3193
 5220TIP3   OH237074   3.331   1.956   2.770 -0.1153  0.2347 -0.3329
 5220TIP3    H137075   3.335   1.981   2.862  2.6655  0.9569 -0.5811
 5220TIP3    H237076   3.310   1.862   2.772 -0.1424  0.2465  1.0176
 5221TIP3   OH237077   0.814   3.968  16.230  0.2363  0.5057 -0.2528
 5221TIP3    H137078   0.827   3.879  16.200 -0.0260  1.3417 -3.1238
 5221TIP3    H237079   0.902   4.006  16.231  0.2483  0.4717  0.1152
 5222TIP3   OH237080   0.170   4.706  15.157 -0.2792  0.2879 -0.7124
 5222TIP3    H137081   0.145   4.615  15.170 -1.2163  0.3003 -2.1770
 5222TIP3    H237082   0.088   4.755  15.158  0.1689  1.0615 -0.3845
 5223TIP3   OH237083   2.009   2.558   6.266  0.2964 -0.3991 -0.0882
 5223TIP3    H137084   1.974   2.647   6.266  0.9372 -0.1266 -1.2994
 5223TIP3    H237085   1.932   2.502   6.275 -0.1095  0.2566  0.7082
 5224TIP3   OH237086   2.842   0.011  13.949  0.0337 -0.0263 -0.3459
 5224TIP3    H137087   2.767  -0.025  13.996  0.5179  0.0723  0.5235
 5224TIP3    H237088   2.918  -0.033  13.987  0.5282  0.8929 -0.2198
 5225TIP3   OH237089   2.271   5.054  13.157  0.3259 -0.3873  0.0390
 5225TIP3    H137090   2.292   5.133  13.205  1.1876 -1.2039  1.0641
 5225TIP3    H237091   2.340   4.992  13.181 -0.4400 -1.5146 -0.5655
 5226TIP3   OH237092   1.605   3.866   2.004 -0.4059 -0.6887 -0.6560
 5226TIP3    H137093   1.511   3.878   1.990 -0.3025  0.0608 -0.7752
 5226TIP3    H237094   1.613   3.847   2.098 -0.6405 -0.2575 -0.5452
 5227TIP3   OH237095   2.444   2.021  16.064  0.0798  0.2050  0.1840
 5227TIP3    H137096   2.522   1.979  16.027  0.6991  3.3048 -2.5285
 5227TIP3    H237097   2.475   2.106  16.095 -1.6684  0.1606  2.2792
 5228TIP3   OH237098   4.969   3.647   1.088  0.0511  0.6131  0.1020
 5228TIP3    H137099   5.048   3.597   1.112 -0.8890 -2.3776 -2.4195
 5228TIP3    H237100   4.990   3.737   1.113  3.2220 -0.4408  1.8879
 5229TIP3   OH237101   6.654   3.127   2.264 -0.0519 -0.2386 -0.1533
 5229TIP3    H137102   6.574   3.109   2.215  0.2639  0.1939 -0.8431
 5229TIP3    H237103   6.719   3.069   2.226  0.0840 -0.2414  0.0824
 5230TIP3   OH237104   4.022   6.089  14.947 -0.0676 -0.4665  0.2102
 5230TIP3    H137105   4.101   6.125  14.988 -0.4537  3.6930 -2.1860
 5230TIP3    H237106   3.960   6.080  15.019  0.8281  1.6852  1.3364
 5231TIP3   OH237107   4.395   0.783  15.211 -0.1198  0.2893 -0.3682
 5231TIP3    H137108   4.430   0.818  15.293  0.4921  0.6207 -0.7644
 5231TIP3    H237109   4.472   0.773  15.154 -0.5842  0.4010 -1.0266
 5232TIP3   OH237110   5.334   0.099   5.845  1.0055  0.0221  0.1184
 5232TIP3    H137111   5.336   0.139   5.933  1.5966  1.5338 -0.5403
 5232TIP3    H237112   5.375   0.165   5.789  0.1944 -0.7142 -1.3846
 5233TIP3   OH237113   6.313   2.849   6.111  0.1765  0.3236  0.2879
 5233TIP3    H137114   6.256   2.836   6.187  0.0496 -0.0617  0.1274
 5233TIP3    H237115   6.367   2.770   6.108  0.2525  0.3862  0.0370
 5234TIP3   OH237116   6.005   3.260  13.386 -0.3840 -0.3389  0.3174
 5234TIP3    H137117   5.950   3.326  13.345  0.2789  0.7910  1.1890
 5234TIP3    H237118   6.076   3.246  13.324  0.2220  0.8267  0.7098
 5235TIP3   OH237119   3.495   4.550   5.080  0.3367  0.7420  0.9958
 5235TIP3    H137120   3.402   4.529   5.081  0.3397  0.3716 -1.2384
 5235TIP3    H237121   3.501   4.632   5.030  1.2558  0.3041  0.3399
 5236TIP3   OH237122   2.962   5.799   4.581 -0.2792 -0.7515  0.5025
 5236TIP3    H137123   2.872   5.821   4.555  0.6538  2.0829 -0.6742
 5236TIP3    H237124   2.984   5.863   4.649  1.4074 -0.2509 -0.4675
 5237TIP3   OH237125   0.714   6.622   6.027 -0.3206  0.3360 -0.5452
 5237TIP3    H137126   0.691   6.685   6.095  0.0077  0.9212 -0.9632
 5237TIP3    H237127   0.652   6.640   5.956 -0.7960 -0.4122 -0.3257
 5238TIP3   OH237128   2.166   5.671   3.043  0.2100  0.3238  0.3771
 5238TIP3    H137129   2.113   5.709   3.113 -0.6924 -0.9567  0.4047
 5238TIP3    H237130   2.112   5.602   3.005  0.5107  1.2453 -1.8811
 5239TIP3   OH237131   1.267   6.382   0.815 -0.0928 -0.2217 -0.8293
 5239TIP3    H137132   1.229   6.305   0.772 -0.3388  0.0116 -1.0403
 5239TIP3    H237133   1.288   6.353   0.903  0.3168 -0.6810 -1.0728
 5240TIP3   OH237134   5.336   2.123   2.629 -0.0685  0.4069 -0.6306
 5240TIP3    H137135   5.247   2.156   2.635  0.6315  2.2986  0.2061
 5240TIP3    H237136   5.358   2.096   2.719  0.5677  1.0742 -0.5698
 5241TIP3   OH237137   3.760   1.284   3.622 -0.4680  0.1727 -0.4631
 5241TIP3    H137138   3.823   1.334   3.673  0.5206 -1.1495 -0.3033
 5241TIP3    H237139   3.679   1.285   3.673  0.1050  0.0181  0.4589
 5242TIP3   OH237140   2.850   1.709   5.788 -0.2587 -0.2771  0.1818
 5242TIP3    H137141   2.758   1.694   5.766 -0.3001  0.1109  0.0747
 5242TIP3    H237142   2.850   1.727   5.882 -0.5317  1.5021 -0.1285
 5243TIP3   OH237143   1.582   6.616   0.390  0.0467 -0.6354  0.0673
 5243TIP3    H137144   1.590   6.653   0.302  0.2619 -0.6124  0.0971
 5243TIP3    H237145   1.671   6.615   0.424 -0.2420  1.1803  1.0162
 5244TIP3   OH237146   4.609   2.979  13.738  0.5008  0.6946  0.4030
 5244TIP3    H137147   4.607   2.891  13.776 -1.2699  0.7522  0.5301
 5244TIP3    H237148   4.696   2.987  13.699  1.3166 -0.4535  1.9139
 5245TIP3   OH237149   4.975   3.747   0.529  0.2364 -0.0824  0.6372
 5245TIP3    H137150   5.018   3.667   0.560  1.5205 -0.3565 -1.6409
 5245TIP3    H237151   5.038   3.787   0.469 -1.7552  0.7450 -1.0458
 5246TIP3   OH237152   6.429   4.379   4.872 -0.4580 -0.5144 -0.1196
 5246TIP3    H137153   6.453   4.331   4.951  1.3435  0.8199  0.2174
 5246TIP3    H237154   6.513   4.398   4.829 -1.3679 -0.8578 -2.1608
 5247TIP3   OH237155   1.808   1.126  11.307  0.2345  0.9359  0.2681
 5247TIP3    H137156   1.877   1.154  11.247  0.7900 -0.8692  0.0034
 5247TIP3    H237157   1.816   1.031  11.310 -1.5933  0.7644  1.0371
 5248TIP3   OH237158   4.902   2.019   3.629 -0.2446  0.2771  0.1519
 5248TIP3    H137159   4.878   2.030   3.722  0.3157 -0.5329  0.4030
 5248TIP3    H237160   4.980   2.072   3.618 -0.7204  0.9496 -0.0469
 5249TIP3   OH237161   2.660   2.307  15.711 -0.5735  0.4979  0.3796
 5249TIP3    H137162   2.585   2.366  15.707 -0.9144  0.2844  2.3284
 5249TIP3    H237163   2.667   2.285  15.804  1.4064 -0.1400  0.1169
 5250TIP3   OH237164   0.837   1.711   5.165 -0.1093 -0.4039 -0.3255
 5250TIP3    H137165   0.860   1.774   5.234 -1.8013  0.1869 -0.2357
 5250TIP3    H237166   0.773   1.653   5.207  0.8086 -1.7071 -0.6559
 5251TIP3   OH237167   3.868   5.834   0.750  0.6466  0.2499 -0.4576
 5251TIP3    H137168   3.785   5.843   0.703  0.4131  1.0208  0.0955
 5251TIP3    H237169   3.923   5.904   0.716  0.8326  0.1709 -0.3217
 5252TIP3   OH237170   0.502   6.067   2.450 -0.7201  0.2542  0.2483
 5252TIP3    H137171   0.557   5.993   2.476 -1.8960 -0.1373  1.7578
 5252TIP3    H237172   0.551   6.109   2.379  3.0629  1.7090  3.3348
 5253TIP3   OH237173   0.101   1.807  15.334 -0.0945  0.2585  0.0817
 5253TIP3    H137174   0.025   1.826  15.279 -0.4093  0.4745  0.5909
 5253TIP3    H237175   0.065   1.792  15.421  0.3497 -0.6332  0.1254
 5254TIP3   OH237176   4.164   0.683  14.111  0.3826  0.2478  0.3444
 5254TIP3    H137177   4.194   0.597  14.079  1.2748  1.4345 -2.3094
 5254TIP3    H237178   4.244   0.726  14.141  0.5931  1.4198 -1.7081
 5255TIP3   OH237179   3.150   5.204   4.127 -0.1685  0.3501 -0.2175
 5255TIP3    H137180   3.123   5.295   4.133  0.0470  0.4953 -1.3368
 5255TIP3    H237181   3.238   5.207   4.088 -0.1054 -0.3271 -0.1449
 5256TIP3   OH237182   1.260   3.297  13.971 -0.5079 -0.3635 -0.6347
 5256TIP3    H137183   1.269   3.225  14.033  0.0181 -0.1297 -0.4329
 5256TIP3    H237184   1.219   3.257  13.894 -1.0905 -0.6703 -0.1727
 5257TIP3   OH237185   1.188   2.455  13.250 -0.9252 -0.0328  0.1848
 5257TIP3    H137186   1.098   2.486  13.247 -0.9853 -0.2964 -2.0279
 5257TIP3    H237187   1.233   2.517  13.308 -2.0436  1.4466 -0.4735
 5258TIP3   OH237188   4.707   2.498  15.438  0.3307  0.9718  0.3995
 5258TIP3    H137189   4.680   2.507  15.529  0.7727  0.9520  0.5351
 5258TIP3    H237190   4.704   2.587  15.403 -2.5372  0.6793 -0.3663
 5259TIP3   OH237191   2.186   3.223   1.999  0.1599  0.2409  0.9097
 5259TIP3    H137192   2.096   3.207   2.028  0.0316  1.5471  1.3311
 5259TIP3    H237193   2.231   3.253   2.077  0.7603  0.3386  0.5325
 5260TIP3   OH237194   3.390   3.150   3.492  0.5055 -0.5392 -0.1630
 5260TIP3    H137195   3.297   3.172   3.492  0.9133  1.3580 -0.0445
 5260TIP3    H237196   3.419   3.170   3.581  1.0147 -1.2309 -0.1645
 5261TIP3   OH237197   0.726   3.119  14.536 -0.0241  0.3369  0.3201
 5261TIP3    H137198   0.777   3.046  14.573 -0.1965 -0.0135 -0.1171
 5261TIP3    H237199   0.745   3.193  14.593  0.2348 -0.0280  0.7161
 5262TIP3   OH237200   4.469   2.713   2.627 -0.2495 -0.3586  0.1231
 5262TIP3    H137201   4.544   2.661   2.601 -1.0462 -0.9059 -1.1634
 5262TIP3    H237202   4.453   2.771   2.553 -1.9658 -1.2636 -0.2711
 5263TIP3   OH237203   4.281   5.051   3.449  0.1524  0.0058 -0.2123
 5263TIP3    H137204   4.313   4.961   3.455 -3.0356 -1.2359  0.0979
 5263TIP3    H237205   4.222   5.050   3.374 -0.1107  1.7885 -0.0611
 5264TIP3   OH237206   1.123   6.382   1.890  0.3727  0.6715  0.2538
 5264TIP3    H137207   1.154   6.318   1.827  1.9393  1.5095  0.1258
 5264TIP3    H237208   1.072   6.445   1.838 -0.3968  0.0541  0.2400
 5265TIP3   OH237209   5.284   4.046  12.988  0.3745  0.0188  0.3503
 5265TIP3    H137210   5.372   4.084  12.992  1.7727 -2.8794 -0.4346
 5265TIP3    H237211   5.277   3.993  13.068 -0.6283  0.0813  0.3241
 5266TIP3   OH237212   4.448   3.617   3.215  0.5996 -0.3161  0.3565
 5266TIP3    H137213   4.452   3.637   3.309  1.0995  0.4576  0.1785
 5266TIP3    H237214   4.438   3.702   3.172  1.7385 -0.5206 -0.3575
 5267TIP3   OH237215   0.148   1.940  11.466  0.2169 -0.4027 -0.1900
 5267TIP3    H137216   0.089   1.975  11.532  0.6140 -1.2159  0.6178
 5267TIP3    H237217   0.119   1.981  11.384 -0.2118  0.7115  0.4869
 5268TIP3   OH237218   5.189   0.460   3.651 -0.0575 -0.5819  0.0512
 5268TIP3    H137219   5.147   0.546   3.655  0.3902 -0.3140 -0.7648
 5268TIP3    H237220   5.162   0.417   3.732  1.7002  1.2440  1.7317
 5269TIP3   OH237221   3.882   4.988   4.074  0.6851  0.0550 -0.2021
 5269TIP3    H137222   3.902   4.954   4.161  0.8156 -1.0103 -0.6345
 5269TIP3    H237223   3.868   5.082   4.088  0.8670 -0.0684  0.9341
 5270TIP3   OH237224   5.898   5.426   2.255  0.6060 -0.3177 -0.3408
 5270TIP3    H137225   5.933   5.352   2.206 -1.9429 -0.8973 -1.4579
 5270TIP3    H237226   5.877   5.491   2.188 -1.6498 -0.5729  0.0450
 5271TIP3   OH237227   4.976   6.646   4.417  0.8719 -0.4120 -0.1420
 5271TIP3    H137228   4.944   6.696   4.342  0.0055 -0.7994 -0.0407
 5271TIP3    H237229   4.901   6.640   4.476  1.5066 -0.2292  0.7017
 5272TIP3   OH237230   2.134   0.664  14.887 -0.4310 -0.1064 -0.8126
 5272TIP3    H137231   2.070   0.608  14.844 -1.5685 -0.0127  0.6686
 5272TIP3    H237232   2.194   0.604  14.931  0.6807 -0.1996 -2.3510
 5273TIP3   OH237233   6.498   2.454  10.937 -0.2895 -0.1128  0.0570
 5273TIP3    H137234   6.589   2.468  10.960 -0.0124  0.5913 -1.3378
 5273TIP3    H237235   6.477   2.366  10.969  0.8893 -0.3103  0.3092
 5274TIP3   OH237236   5.280   4.542  12.076  0.2172  0.8393 -0.4186
 5274TIP3    H137237   5.343   4.613  12.089  0.6574  0.3918 -0.0278
 5274TIP3    H237238   5.210   4.580  12.024  0.4280  1.5680 -0.1713
 5275TIP3   OH237239   5.416   4.506  14.136  0.4467 -0.2027 -0.1138
 5275TIP3    H137240   5.486   4.468  14.082  0.3325 -0.0917 -0.3447
 5275TIP3    H237241   5.400   4.592  14.096 -1.1386 -0.9799 -1.2716
 5276TIP3   OH237242   3.547   3.265  15.675  0.0993 -0.4442  0.6627
 5276TIP3    H137243   3.567   3.282  15.767 -3.1204 -0.7213  1.5504
 5276TIP3    H237244   3.497   3.183  15.676 -0.2834 -0.2835 -1.2833
 5277TIP3   OH237245   3.254   6.112   5.896  0.2071  0.3238 -0.0950
 5277TIP3    H137246   3.212   6.172   5.958  0.1670 -0.2963  0.4956
 5277TIP3    H237247   3.295   6.046   5.952  2.1326  0.9957 -0.6424
 5278TIP3   OH237248   6.404   4.402   0.860  0.4206 -0.5129  0.6367
 5278TIP3    H137249   6.481   4.391   0.804  0.7230  3.2020  0.0897
 5278TIP3    H237250   6.439   4.410   0.948  0.7486  1.1673  0.3897
 5279TIP3   OH237251   2.765   5.757   5.691 -0.2154 -0.3706 -0.2102
 5279TIP3    H137252   2.843   5.797   5.729  1.1483 -2.0796 -1.0771
 5279TIP3    H237253   2.768   5.666   5.721 -0.6365 -1.0328 -2.0619
 5280TIP3   OH237254   3.825   2.381   2.148  0.0382  0.4472 -0.3252
 5280TIP3    H137255   3.747   2.366   2.201 -0.4863  0.5166 -1.0491
 5280TIP3    H237256   3.792   2.425   2.069  0.5643 -1.0065 -1.4088
 5281TIP3   OH237257   2.748   2.593  14.636 -0.5047 -0.0351 -0.0717
 5281TIP3    H137258   2.738   2.619  14.544 -3.0060  0.1425  0.1924
 5281TIP3    H237259   2.660   2.568  14.664  0.4367 -1.3783  1.9249
 5282TIP3   OH237260   6.319   2.010  17.279  0.1926  0.3651  0.0706
 5282TIP3    H137261   6.341   2.061  17.357 -1.0284 -1.5703  1.7667
 5282TIP3    H237262   6.254   1.947  17.309  1.6972 -2.2922 -1.8464
 5283TIP3   OH237263   1.978   5.062  14.779  0.1666  0.7186 -0.0351
 5283TIP3    H137264   2.052   5.079  14.721 -0.0955 -1.3073 -1.0897
 5283TIP3    H237265   1.909   5.030  14.720  0.0744 -1.9707  1.3745
 5284TIP3   OH237266   1.114   3.063  15.630  0.2159 -0.1171 -0.2084
 5284TIP3    H137267   1.158   3.034  15.550 -0.1226 -2.4933  0.3741
 5284TIP3    H237268   1.034   3.010  15.634 -1.2735  2.0576  0.2225
 5285TIP3   OH237269   6.089   3.671  14.865  0.3509  0.1366  0.1331
 5285TIP3    H137270   6.010   3.725  14.867 -0.2649 -0.6828 -1.0721
 5285TIP3    H237271   6.158   3.728  14.900 -0.5265  1.2654  0.0721
 5286TIP3   OH237272   2.115   0.952   3.989  0.1963  0.2912  0.0240
 5286TIP3    H137273   2.206   0.983   3.989  1.2411 -2.5140  0.7539
 5286TIP3    H237274   2.072   1.007   3.924  2.2541  2.1015  0.0670
 5287TIP3   OH237275   0.258   1.210   0.283 -0.0348 -0.0372 -0.7239
 5287TIP3    H137276   0.179   1.202   0.336 -1.1790  0.1444 -2.3148
 5287TIP3    H237277   0.316   1.266   0.335 -0.9365 -0.1690  0.4809
 5288TIP3   OH237278   0.987   6.493  16.250  0.2576  0.4788 -0.2839
 5288TIP3    H137279   1.075   6.460  16.267  1.0403  1.7307 -1.5804
 5288TIP3    H237280   0.990   6.584  16.279 -0.3455  0.7657 -1.0650
 5289TIP3   OH237281   6.197   5.260  11.828  0.6330  0.4392 -0.6760
 5289TIP3    H137282   6.126   5.216  11.782  2.2017 -1.0691 -1.8072
 5289TIP3    H237283   6.160   5.284  11.912 -0.6260 -2.2832 -0.3373
 5290TIP3   OH237284   2.266   5.514   2.042 -0.1120 -0.3947  0.4939
 5290TIP3    H137285   2.227   5.503   1.955  3.1080 -0.8417 -1.0220
 5290TIP3    H237286   2.265   5.609   2.055 -2.4124 -0.4124  0.9625
 5291TIP3   OH237287   5.996   5.372   0.915 -0.4337  0.3596  0.1971
 5291TIP3    H137288   6.060   5.427   0.871 -0.5689 -0.1741 -0.7206
 5291TIP3    H237289   5.947   5.431   0.972  1.0134  0.7210  1.0912
 5292TIP3   OH237290   4.925   5.275   5.492 -0.4264 -0.0501  0.1423
 5292TIP3    H137291   4.998   5.326   5.458 -1.3748  0.4210 -1.2369
 5292TIP3    H237292   4.910   5.207   5.426 -1.5467  0.1538  0.1742
 5293TIP3   OH237293   3.346   0.460  12.890 -0.3234 -0.4134 -0.5305
 5293TIP3    H137294   3.294   0.471  12.970  2.4586 -1.3313  1.5740
 5293TIP3    H237295   3.315   0.377  12.853 -0.5058 -0.8716  0.5857
 5294TIP3   OH237296   4.509   4.739  12.118  0.2480  0.0105 -0.3841
 5294TIP3    H137297   4.541   4.828  12.102  0.0306 -0.0164 -1.0156
 5294TIP3    H237298   4.586   4.691  12.149  1.4497 -0.5639 -3.7926
 5295TIP3   OH237299   2.187   1.234  10.575  0.4356 -0.1475  0.7188
 5295TIP3    H137300   2.202   1.318  10.619  0.8055  0.0491  0.2329
 5295TIP3    H237301   2.134   1.257  10.498  0.4014 -0.3812  0.6721
 5296TIP3   OH237302   3.413   0.892   1.425  0.0101 -0.2740  0.0653
 5296TIP3    H137303   3.456   0.809   1.405 -0.7925 -0.7812  0.3906
 5296TIP3    H237304   3.367   0.876   1.507  0.7945  0.8556  0.7543
 5297TIP3   OH237305   5.565   0.203  11.167  0.1924 -0.2486 -0.4256
 5297TIP3    H137306   5.502   0.219  11.238  0.9445 -1.7121  0.6345
 5297TIP3    H237307   5.521   0.140  11.110  0.4681 -0.8648  0.0290
 5298TIP3   OH237308   5.047   3.644  16.813  0.0748  0.2769 -0.0497
 5298TIP3    H137309   4.987   3.682  16.877 -0.2534  1.9417 -1.2674
 5298TIP3    H237310   4.992   3.621  16.738  0.9696  2.6960 -1.5752
 5299TIP3   OH237311   4.732   3.128  11.679  0.3461  0.1975  0.1161
 5299TIP3    H137312   4.756   3.047  11.725  0.0833  0.3517  0.5216
 5299TIP3    H237313   4.716   3.192  11.748 -0.2168  0.3840 -0.1827
 5300TIP3   OH237314   2.877   3.694  16.580 -0.5263 -0.2816  0.1352
 5300TIP3    H137315   2.850   3.779  16.615  0.7265  0.9632 -1.7231
 5300TIP3    H237316   2.833   3.689  16.495  0.4415 -0.8644 -0.3464
 5301TIP3   OH237317   3.759   5.508  17.069  0.2437  0.3831  0.2010
 5301TIP3    H137318   3.825   5.440  17.082 -0.4016 -0.5937 -1.2982
 5301TIP3    H237319   3.771   5.537  16.978 -2.0460 -0.6346 -0.5155
 5302TIP3   OH237320   4.779   6.721   6.385 -0.2880 -0.1833  0.3351
 5302TIP3    H137321   4.858   6.726   6.330  0.1034 -0.3499  0.8652
 5302TIP3    H237322   4.744   6.633   6.369  0.6636 -0.8096  1.4378
 5303TIP3   OH237323   2.459   4.557   4.329 -0.1912 -0.8174 -0.1029
 5303TIP3    H137324   2.533   4.563   4.268  0.3308  1.5909  0.6566
 5303TIP3    H237325   2.497   4.519   4.408  0.3307  0.5805  0.3482
 5304TIP3   OH237326   1.439   2.244   4.092 -0.3250  0.5012  0.0935
 5304TIP3    H137327   1.380   2.292   4.151  0.4657 -0.3304  1.6505
 5304TIP3    H237328   1.384   2.175   4.054 -0.2185 -0.9398  2.3490
 5305TIP3   OH237329   4.988   4.136   1.207 -0.3052 -0.0778 -0.0010
 5305TIP3    H137330   4.914   4.195   1.223  1.2286  1.2573  2.7564
 5305TIP3    H237331   5.038   4.179   1.138 -2.0249 -1.0520 -1.9845
 5306TIP3   OH237332   6.174   3.857   3.482  0.0600  0.0770 -0.1925
 5306TIP3    H137333   6.267   3.866   3.457  0.4594 -2.3876  0.0982
 5306TIP3    H237334   6.133   3.820   3.404 -0.2864 -0.5377  0.2777
 5307TIP3   OH237335   2.013   4.620   4.809  0.6733  0.9165  0.2450
 5307TIP3    H137336   2.013   4.618   4.904 -1.2066 -0.7280  0.2695
 5307TIP3    H237337   1.942   4.561   4.783 -0.2032  2.8087 -2.1351
 5308TIP3   OH237338   0.439   0.279   3.459 -0.5028  0.3563 -0.3879
 5308TIP3    H137339   0.503   0.211   3.436  2.7170  2.2629  2.1521
 5308TIP3    H237340   0.437   0.336   3.382 -0.5175 -0.6576 -1.1641
 5309TIP3   OH237341   3.517   4.372  17.324 -0.2985 -0.8742  1.1539
 5309TIP3    H137342   3.426   4.370  17.294 -0.0204  1.9623 -0.1906
 5309TIP3    H237343   3.522   4.449  17.380  1.2123 -1.2620  1.6119
 5310TIP3   OH237344   2.859   2.051  14.782  0.1198 -0.3078 -0.0693
 5310TIP3    H137345   2.912   2.068  14.860  0.6957  0.3820 -0.5943
 5310TIP3    H237346   2.838   2.138  14.748 -1.7585 -0.5441  0.3846
 5311TIP3   OH237347   0.355   5.144  16.886 -0.1867  0.5370 -0.0809
 5311TIP3    H137348   0.263   5.115  16.890 -0.1781  0.6701  1.6690
 5311TIP3    H237349   0.400   5.092  16.952  0.8662  0.9958 -0.4122
 5312TIP3   OH237350   0.140   6.201   1.498 -0.0072  0.3643 -0.0889
 5312TIP3    H137351   0.068   6.153   1.458  0.0502  0.5383 -0.4057
 5312TIP3    H237352   0.206   6.135   1.518 -1.2530 -0.1944  2.5166
 5313TIP3   OH237353   4.198   0.667  13.132  0.2222  0.3564  0.7101
 5313TIP3    H137354   4.130   0.733  13.143 -1.9046 -1.4538 -0.7668
 5313TIP3    H237355   4.233   0.682  13.044  0.1996 -0.0544  0.6279
 5314TIP3   OH237356   2.328   1.258  14.685  0.0059  0.4904 -0.9665
 5314TIP3    H137357   2.246   1.272  14.637 -0.9544  0.6048  0.6451
 5314TIP3    H237358   2.340   1.339  14.735  0.2923 -0.1229 -0.0249
 5315TIP3   OH237359   1.806   0.160  17.069 -0.1370  0.1776 -0.3117
 5315TIP3    H137360   1.743   0.209  17.016 -0.3665  1.0274  0.7273
 5315TIP3    H237361   1.761   0.146  17.153  0.1239 -1.3705 -0.3955
 5316TIP3   OH237362   0.874   6.049  10.934  0.1509 -0.1029  0.1895
 5316TIP3    H137363   0.925   6.048  10.853 -0.2147 -0.1448 -0.0426
 5316TIP3    H237364   0.805   6.113  10.919 -0.2314 -0.4873  0.2694
 5317TIP3   OH237365   6.726   2.180  16.997  0.4143 -0.8902 -0.1367
 5317TIP3    H137366   6.637   2.215  17.005  0.8222  0.0907  0.3415
 5317TIP3    H237367   6.778   2.255  16.968  1.3821 -0.9928  1.2564
 5318TIP3   OH237368   0.599   1.110  15.375 -0.3108  0.0444  0.1676
 5318TIP3    H137369   0.654   1.089  15.300 -0.1550  0.8162  0.0492
 5318TIP3    H237370   0.621   1.202  15.395  0.7794 -0.5739  2.1079
 5319TIP3   OH237371   6.549   2.670   0.467  0.2778 -0.0453 -0.1117
 5319TIP3    H137372   6.614   2.728   0.505 -0.2049  0.6488 -0.3203
 5319TIP3    H237373   6.517   2.717   0.390 -0.7405 -0.2015  0.1979
 5320TIP3   OH237374   0.076   1.737  13.904 -0.4078 -0.3083  1.1199
 5320TIP3    H137375   0.136   1.743  13.979  1.5297 -1.4834 -0.2372
 5320TIP3    H237376   0.106   1.803  13.843 -0.1449 -1.2418  0.2091
 5321TIP3   OH237377   4.099   5.788   5.175  0.2765 -0.5287  1.1548
 5321TIP3    H137378   4.020   5.799   5.227 -0.8923  0.1192 -0.6946
 5321TIP3    H237379   4.088   5.846   5.100  1.3303 -2.2728 -0.4663
 5322TIP3   OH237380   0.034   3.601   2.898  1.0082  0.4323 -0.2585
 5322TIP3    H137381  -0.051   3.559   2.883  1.0169  0.9268 -1.8905
 5322TIP3    H237382   0.085   3.536   2.946 -0.6521  0.5708  1.8695
 5323TIP3   OH237383   0.949   0.502   1.490 -0.0265 -0.2656 -0.0252
 5323TIP3    H137384   1.002   0.423   1.477  0.7453 -0.0719  1.7536
 5323TIP3    H237385   0.871   0.471   1.534  0.0299 -0.1104  0.1840
 5324TIP3   OH237386   2.404   2.655   3.211 -0.7794  0.2376  0.3570
 5324TIP3    H137387   2.375   2.578   3.259 -2.2314  0.5957  0.0951
 5324TIP3    H237388   2.394   2.631   3.119  1.1473 -0.1271  0.2010
 5325TIP3   OH237389   1.655   5.444   3.895  0.1508  0.0400  0.2959
 5325TIP3    H137390   1.722   5.450   3.827 -0.3280 -0.0639 -0.1931
 5325TIP3    H237391   1.597   5.519   3.878 -1.3546 -1.3163 -0.9357
 5326TIP3   OH237392   3.002   4.644   2.473 -0.9008 -0.0589  0.4940
 5326TIP3    H137393   3.042   4.609   2.394 -1.5584 -0.9147  0.5363
 5326TIP3    H237394   3.058   4.719   2.496 -0.4539 -0.0597 -0.5237
 5327TIP3   OH237395   3.068   0.439   5.614 -0.2514 -0.1274  0.3851
 5327TIP3    H137396   2.992   0.398   5.655 -1.5069  0.9563 -0.7335
 5327TIP3    H237397   3.068   0.405   5.524  0.5038 -0.0056  0.3356
 5328TIP3   OH237398   1.917   3.878   2.840  0.0434 -0.6719 -0.0426
 5328TIP3    H137399   1.993   3.894   2.897 -0.6208 -0.0320  0.6888
 5328TIP3    H237400   1.952   3.883   2.751  0.9254 -0.7266  0.2910
 5329TIP3   OH237401   4.167   2.244  17.031  0.6824  0.7609  0.3128
 5329TIP3    H137402   4.078   2.274  17.046 -0.0064 -1.5447  1.3539
 5329TIP3    H237403   4.217   2.277  17.106  0.2261  0.4129  0.7781
 5330TIP3   OH237404   3.147   5.426   1.950  0.7613 -0.1481  0.2968
 5330TIP3    H137405   3.087   5.495   1.920 -0.8892 -0.6693  2.1893
 5330TIP3    H237406   3.117   5.347   1.906  0.0303 -0.4139  1.2622
 5331TIP3   OH237407   3.569   1.724  14.470 -0.5228  0.0604 -0.1934
 5331TIP3    H137408   3.532   1.638  14.450 -0.0848 -0.7341  2.0503
 5331TIP3    H237409   3.494   1.776  14.500 -0.6613  0.2190 -0.8043
 5332TIP3   OH237410   3.820   3.162   4.527 -0.0492  0.1432 -0.2076
 5332TIP3    H137411   3.840   3.214   4.604  2.7548 -0.1320 -0.6611
 5332TIP3    H237412   3.798   3.076   4.561 -1.4833  0.6976  0.3644
 5333TIP3   OH237413   3.847   1.541   5.028  1.0350  0.1679 -0.1619
 5333TIP3    H137414   3.924   1.587   5.062  0.8834  0.4193 -0.1547
 5333TIP3    H237415   3.809   1.500   5.105  0.8420  0.5165 -0.0680
 5334TIP3   OH237416   2.595   4.391  11.525  0.7492 -0.8999  0.3185
 5334TIP3    H137417   2.521   4.450  11.540  0.9348 -0.4396 -0.5576
 5334TIP3    H237418   2.672   4.444  11.542  0.9217 -0.8115 -0.7254
 5335TIP3   OH237419   5.420   4.514  15.794 -0.3221  0.3524  0.1760
 5335TIP3    H137420   5.429   4.445  15.728 -1.2113  2.1335 -1.9486
 5335TIP3    H237421   5.510   4.542  15.811 -0.1121  0.5446 -1.1109
 5336TIP3   OH237422   0.098   2.639   3.192  0.1320  0.3642 -0.0814
 5336TIP3    H137423   0.191   2.632   3.170  0.0065 -0.2428 -0.4390
 5336TIP3    H237424   0.093   2.619   3.285  0.3392  0.2371 -0.0986
 5337TIP3   OH237425   2.914   2.334  13.393  0.3206  0.1240 -0.5025
 5337TIP3    H137426   2.831   2.313  13.436  1.1991 -0.2637  1.0647
 5337TIP3    H237427   2.950   2.249  13.367  1.2580  0.0779  0.8492
 5338TIP3   OH237428   0.203   0.536  15.410  0.1138  0.3886  0.9157
 5338TIP3    H137429   0.153   0.530  15.328 -0.0868  2.1720  0.8703
 5338TIP3    H237430   0.294   0.538  15.382  0.0489  0.9279  0.7451
 5339TIP3   OH237431   1.327   0.489   0.640 -0.2090  0.8405 -0.5084
 5339TIP3    H137432   1.384   0.446   0.703 -0.9873 -0.0284 -0.3789
 5339TIP3    H237433   1.346   0.445   0.557 -1.6562 -0.4407 -0.2078
 5340TIP3   OH237434   6.366   5.610  15.168 -0.0393 -0.0471 -0.1714
 5340TIP3    H137435   6.396   5.700  15.164 -0.8892  0.1977 -2.3909
 5340TIP3    H237436   6.435   5.559  15.127 -0.0485 -0.2665  0.0815
 5341TIP3   OH237437   5.457   6.310  16.280 -0.1761  0.3893 -0.3561
 5341TIP3    H137438   5.500   6.242  16.228  1.7829  1.3791 -0.1250
 5341TIP3    H237439   5.521   6.333  16.347 -0.8822  2.2742 -0.2671
 5342TIP3   OH237440   3.088   3.723   4.817  0.1621  0.0168 -0.0329
 5342TIP3    H137441   3.158   3.680   4.768  1.4716 -1.5916  2.9563
 5342TIP3    H237442   3.024   3.653   4.832 -0.1704  0.4457  0.5842
 5343TIP3   OH237443   3.910   6.686  16.514  0.3608  0.2665  0.4689
 5343TIP3    H137444   3.894   6.598  16.481  0.6486  0.9196 -1.5735
 5343TIP3    H237445   4.000   6.685  16.546  0.8424  0.1564 -0.8456
 5344TIP3   OH237446   5.657   5.610  12.797  0.0158 -0.1759  0.5216
 5344TIP3    H137447   5.674   5.585  12.888 -0.7030 -0.7861  0.5021
 5344TIP3    H237448   5.583   5.670  12.802 -2.0321 -2.5024  0.1676
 5345TIP3   OH237449   5.669   5.373  15.054  0.5695 -0.5738 -0.3897
 5345TIP3    H137450   5.645   5.313  14.983 -1.6229 -0.0333 -0.1831
 5345TIP3    H237451   5.655   5.460  15.017 -1.6634 -0.2787  0.9512
 5346TIP3   OH237452   3.174   4.591  13.612 -0.2839  0.2243 -0.0654
 5346TIP3    H137453   3.202   4.669  13.565 -0.1363 -0.2997 -0.8730
 5346TIP3    H237454   3.110   4.550  13.553 -0.2353 -0.3486  0.2759
 5347TIP3   OH237455   2.621   3.232  16.639 -0.1155 -0.0616  0.0484
 5347TIP3    H137456   2.571   3.313  16.627 -0.6035 -0.4165 -0.3756
 5347TIP3    H237457   2.575   3.186  16.709  0.7554  0.4816  0.9893
 5348TIP3   OH237458   6.077   6.019  16.923  0.0979  0.2154 -0.5496
 5348TIP3    H137459   6.138   5.998  16.994 -0.2598 -1.6063 -0.7294
 5348TIP3    H237460   5.993   5.986  16.953 -0.6253  1.7847 -0.7451
 5349TIP3   OH237461   6.719   2.892   0.863 -0.8446 -0.3232  0.7038
 5349TIP3    H137462   6.763   2.807   0.865 -0.1774 -0.0680 -1.3214
 5349TIP3    H237463   6.761   2.942   0.934  1.5888 -0.3954 -0.5789
 5350TIP3   OH237464   0.235   2.666   4.357 -0.2217  0.0479 -0.6419
 5350TIP3    H137465   0.142   2.649   4.371  0.0354 -1.0685 -0.1571
 5350TIP3    H237466   0.250   2.753   4.393 -0.4601 -0.9948  2.2604
 5351TIP3   OH237467   3.043   3.218   4.358 -0.1638  0.6391  0.4107
 5351TIP3    H137468   3.109   3.182   4.298 -2.1963 -1.9362 -0.4636
 5351TIP3    H237469   2.989   3.274   4.303  0.4521  1.7116  0.8532
 5352TIP3   OH237470   4.034   1.198   6.003  0.3213 -0.4813 -0.4419
 5352TIP3    H137471   4.037   1.110   5.966  0.6912 -0.0359 -1.5394
 5352TIP3    H237472   3.971   1.193   6.075  0.7693 -1.7668 -0.1262
 5353TIP3   OH237473   6.703   1.136  14.235  0.4666  0.7881  0.5679
 5353TIP3    H137474   6.671   1.193  14.304  1.6353  1.2835  0.7165
 5353TIP3    H237475   6.688   1.185  14.154 -1.1280  0.1078  0.4022
 5354TIP3   OH237476   5.506   2.318   3.482  0.1621  0.6024  0.1686
 5354TIP3    H137477   5.568   2.251   3.510 -1.1689 -1.2716 -1.1080
 5354TIP3    H237478   5.560   2.387   3.443  1.4583 -1.4958 -1.9890
 5355TIP3   OH237479   6.058   5.285  12.635 -0.1824  0.3719 -0.0775
 5355TIP3    H137480   5.996   5.295  12.707  0.0498 -0.0572  0.1896
 5355TIP3    H237481   6.051   5.366  12.585 -0.6839  0.4795  0.1670
 5356TIP3   OH237482   2.621   4.115  12.318  0.2569  0.2762 -0.2110
 5356TIP3    H137483   2.656   4.162  12.242 -1.7574  1.5910 -0.3888
 5356TIP3    H237484   2.605   4.184  12.382 -1.8045 -0.2829 -0.0869
 5357TIP3   OH237485   6.712   1.631   4.061  0.2249 -0.3095  0.5147
 5357TIP3    H137486   6.711   1.558   4.000  1.8757  0.4727 -0.5170
 5357TIP3    H237487   6.642   1.611   4.123 -3.2080 -0.0699 -2.8706
 5358TIP3   OH237488   3.918   5.931  14.732  0.1097 -0.0912 -0.3487
 5358TIP3    H137489   3.963   5.989  14.794 -0.1595  0.7776 -0.9427
 5358TIP3    H237490   3.987   5.901  14.673 -0.0330  1.1121 -1.1598
 5359TIP3   OH237491   1.382   4.820   2.583 -0.2753 -0.0523  1.0546
 5359TIP3    H137492   1.447   4.752   2.566 -0.0361  0.6394 -1.1374
 5359TIP3    H237493   1.363   4.857   2.496 -0.7954  2.2856  2.0933
 5360TIP3   OH237494   3.848   5.648   0.045 -0.4980  0.3502  0.0134
 5360TIP3    H137495   3.759   5.616   0.026 -0.6210  1.3047 -1.1279
 5360TIP3    H237496   3.837   5.741   0.063  0.3333  0.5977 -0.6917
 5361TIP3   OH237497   3.264   2.077  15.680  0.1284  0.1844 -0.5323
 5361TIP3    H137498   3.222   2.007  15.629 -1.4135  0.7723 -0.1266
 5361TIP3    H237499   3.353   2.046  15.693 -0.9100 -2.6120  1.1089
 5362TIP3   OH237500   3.565   2.419  15.441 -0.3335  0.4565  0.1344
 5362TIP3    H137501   3.572   2.514  15.449 -0.1609  0.3446  1.4000
 5362TIP3    H237502   3.588   2.385  15.527  0.5653 -0.7886 -0.5628
 5363TIP3   OH237503   4.088   1.620   2.059  0.1820 -0.4369  0.5047
 5363TIP3    H137504   4.004   1.583   2.086 -0.0223 -0.1929  0.2123
 5363TIP3    H237505   4.153   1.575   2.113 -0.3566  1.3162  2.7902
 5364TIP3   OH237506   4.411   0.798  14.147 -0.0088 -0.6348  0.2523
 5364TIP3    H137507   4.469   0.817  14.221  0.7601  1.0491 -0.7342
 5364TIP3    H237508   4.466   0.750  14.085 -0.3626 -1.1478  0.3304
 5365TIP3   OH237509   5.508   3.141  15.495  0.2508  0.1427  0.1087
 5365TIP3    H137510   5.462   3.096  15.424 -1.7183  0.8281  0.8908
 5365TIP3    H237511   5.536   3.224  15.457  0.9526 -0.3218 -0.4062
 5366TIP3   OH237512   2.182   1.576   2.038  0.4066  0.2356  0.5541
 5366TIP3    H137513   2.094   1.553   2.009  0.4027  0.2596  0.5461
 5366TIP3    H237514   2.213   1.638   1.972 -0.0951  1.2796  1.2675
 5367TIP3   OH237515   0.524   2.192   4.242  0.0250 -0.3518  0.0071
 5367TIP3    H137516   0.598   2.247   4.265  0.8733 -1.4144 -0.0770
 5367TIP3    H237517   0.464   2.250   4.196  1.9451  0.0515 -2.1887
 5368TIP3   OH237518   3.585   0.261  16.242 -0.4317 -0.2011  0.1873
 5368TIP3    H137519   3.650   0.329  16.228  1.2303 -1.7071  0.1638
 5368TIP3    H237520   3.608   0.193  16.178 -0.5544 -1.7676  1.7485
 5369TIP3   OH237521   3.833   3.884  14.923 -0.5206  0.4935  0.1022
 5369TIP3    H137522   3.773   3.958  14.933 -1.3808 -0.3292  1.1708
 5369TIP3    H237523   3.873   3.874  15.009  1.0342  0.8893 -0.5356
 5370TIP3   OH237524   2.362   1.339  15.439 -0.0401 -0.6203  0.0012
 5370TIP3    H137525   2.455   1.357  15.454 -0.0364 -0.3366 -0.3649
 5370TIP3    H237526   2.348   1.253  15.480  0.3510 -0.6069  0.1691
 5371TIP3   OH237527   0.192   6.001  11.662  0.5991 -0.1064 -0.0283
 5371TIP3    H137528   0.276   6.045  11.652  0.1104  0.8748  0.1218
 5371TIP3    H237529   0.130   6.071  11.684 -0.4038 -0.7125 -0.8452
 5372TIP3   OH237530   3.225   1.621  12.108  0.6163  0.2776 -0.5279
 5372TIP3    H137531   3.141   1.605  12.065  0.8913 -5.7573  0.3803
 5372TIP3    H237532   3.288   1.623  12.036  0.2027 -0.9212 -0.9494
 5373TIP3   OH237533   3.929   5.643   1.964 -0.1930  0.5272 -0.0797
 5373TIP3    H137534   3.941   5.724   2.014  0.7900 -0.0308  0.6095
 5373TIP3    H237535   3.988   5.652   1.889 -1.0923  1.0199 -0.7629
 5374TIP3   OH237536   1.144   3.916  15.991 -0.2918 -0.5219 -0.4576
 5374TIP3    H137537   1.236   3.938  15.974 -0.8119  3.0565  0.5677
 5374TIP3    H237538   1.102   3.920  15.905  0.2915 -1.0966 -0.7815
 5375TIP3   OH237539   4.266   2.594  16.303 -0.2615  0.2892  0.9777
 5375TIP3    H137540   4.245   2.630  16.389 -0.2737  0.2433  0.9930
 5375TIP3    H237541   4.276   2.671  16.247 -0.0135  0.3296  1.0754
 5376TIP3   OH237542   2.015   1.822   4.100  0.2758  0.2290 -0.2001
 5376TIP3    H137543   2.032   1.822   4.006 -0.1273  1.0003 -0.2845
 5376TIP3    H237544   1.920   1.814   4.107  0.1393  1.7947  0.0804
 5377TIP3   OH237545   1.823   0.040  13.182  0.4672 -0.2183  0.2906
 5377TIP3    H137546   1.806   0.086  13.100 -0.1508 -3.7050 -1.7198
 5377TIP3    H237547   1.743   0.051  13.232  0.4474  1.0525  0.0284
 5378TIP3   OH237548   5.632   6.673  17.045  0.5151 -0.5001 -0.7138
 5378TIP3    H137549   5.592   6.601  17.094  1.1765  0.8235  1.9641
 5378TIP3    H237550   5.564   6.741  17.044  0.0459 -0.9176 -2.8567
 5379TIP3   OH237551   0.936   3.333  15.144  0.2194 -0.0805 -0.3877
 5379TIP3    H137552   0.997   3.300  15.078 -0.2222 -0.6114 -0.5334
 5379TIP3    H237553   0.944   3.271  15.217  0.7537  0.5362  0.1013
 5380TIP3   OH237554   4.503   0.606   5.810  0.1076 -0.7531 -0.1850
 5380TIP3    H137555   4.511   0.665   5.884  0.0645 -0.3970 -0.4594
 5380TIP3    H237556   4.477   0.522   5.848 -1.0487 -0.2797  0.0824
 5381TIP3   OH237557   2.266   0.497   3.025 -0.1571  0.6215  0.2303
 5381TIP3    H137558   2.322   0.429   2.989 -1.0542  0.1200 -0.2510
 5381TIP3    H237559   2.180   0.479   2.988  0.0035  3.3859 -1.7869
 5382TIP3   OH237560   5.413   3.654  12.151 -0.5819 -0.4168  0.3887
 5382TIP3    H137561   5.343   3.592  12.169  1.2492 -2.1783  1.9374
 5382TIP3    H237562   5.428   3.698  12.235 -1.4496  1.8135 -0.5372
 5383TIP3   OH237563   1.115   2.571  15.889 -0.2877 -0.3433  0.0713
 5383TIP3    H137564   1.205   2.603  15.902 -0.7594  0.5055  1.4681
 5383TIP3    H237565   1.095   2.524  15.969 -1.9140  1.5610  0.8871
 5384TIP3   OH237566   2.444   1.110  10.719 -0.1949  0.3850  0.0767
 5384TIP3    H137567   2.447   1.188  10.774  0.6080  0.3477  0.0950
 5384TIP3    H237568   2.390   1.136  10.644  1.2938  1.4686 -0.6696
 5385TIP3   OH237569   1.007   5.479   5.491 -0.4777  0.0521 -0.2529
 5385TIP3    H137570   0.978   5.388   5.497 -0.1706 -0.1372 -1.3613
 5385TIP3    H237571   1.028   5.504   5.581  0.6072 -1.3737 -0.0717
 5386TIP3   OH237572   2.217   0.763   6.226  0.3355  1.3019  0.6766
 5386TIP3    H137573   2.141   0.744   6.172  0.3171  1.2240  0.7297
 5386TIP3    H237574   2.225   0.688   6.285  1.7088  0.2757 -0.7319
 5387TIP3   OH237575   3.333   1.557   0.403 -0.1840 -0.1229  0.0583
 5387TIP3    H137576   3.344   1.609   0.482  0.3468  1.3971 -0.9696
 5387TIP3    H237577   3.259   1.500   0.422 -0.1518  0.3119  1.5899
 5388TIP3   OH237578   2.380   0.580   1.910  0.2995  0.1799  0.0770
 5388TIP3    H137579   2.341   0.667   1.915  0.0857  0.0446  0.8220
 5388TIP3    H237580   2.392   0.553   2.001 -0.4687 -0.9397 -0.1380
 5389TIP3   OH237581   2.927   0.243   3.750 -0.0469  0.7047 -0.2372
 5389TIP3    H137582   2.912   0.246   3.844 -0.5654  0.0653 -0.2850
 5389TIP3    H237583   2.870   0.310   3.714 -1.4166 -0.4281 -0.2526
 5390TIP3   OH237584   6.320   3.039   6.345 -0.2310 -0.0780 -0.4057
 5390TIP3    H137585   6.375   2.963   6.365 -0.8581  0.0086  1.8527
 5390TIP3    H237586   6.241   3.002   6.305 -1.1658 -0.8435  1.9737
 5391TIP3   OH237587   4.670   2.772  13.434 -0.2269 -0.2421  0.2909
 5391TIP3    H137588   4.716   2.804  13.512  0.2396 -0.8788  0.2804
 5391TIP3    H237589   4.587   2.737  13.467 -0.4385  0.3393  0.3847
 5392TIP3   OH237590   4.205   2.547   6.865 -0.4421  0.1650 -0.1509
 5392TIP3    H137591   4.158   2.500   6.796  0.7610  0.4611 -1.2144
 5392TIP3    H237592   4.268   2.601   6.818  1.8358 -1.1521  1.2504
 5393TIP3   OH237593   2.471   4.281  11.843 -0.1589  0.0087 -0.1467
 5393TIP3    H137594   2.436   4.283  11.932  0.3826 -0.2421  0.0824
 5393TIP3    H237595   2.521   4.362  11.835 -0.0023 -0.0843 -0.1291
 5394TIP3   OH237596   5.191   3.429   4.787 -0.3594  0.5718 -0.3116
 5394TIP3    H137597   5.229   3.431   4.875 -1.1372  2.2497  0.0196
 5394TIP3    H237598   5.191   3.520   4.759 -0.9948  0.1753 -1.6801
 5395TIP3   OH237599   2.289   2.065   0.582  0.0430  0.0008  0.0094
 5395TIP3    H137600   2.316   1.975   0.568 -0.1373 -0.0822  0.1952
 5395TIP3    H237601   2.294   2.078   0.676  1.0424  0.4936 -0.0961
 5396TIP3   OH237602   1.929   2.252  10.729  0.2387  0.2597  0.6390
 5396TIP3    H137603   1.919   2.158  10.745 -2.7014  0.2505 -0.5248
 5396TIP3    H237604   1.903   2.263  10.637  1.3609  2.1156  0.4970
 5397TIP3   OH237605   0.086   3.829  11.592 -0.0929 -0.0328  0.1674
 5397TIP3    H137606   0.028   3.863  11.660  0.3815  1.2050 -0.0236
 5397TIP3    H237607   0.120   3.907  11.547  0.0903 -0.7974 -1.0873
 5398TIP3   OH237608   0.990   5.120  10.498 -0.0886 -0.3197 -0.1393
 5398TIP3    H137609   1.050   5.067  10.446 -0.5411 -1.4384  0.4555
 5398TIP3    H237610   1.046   5.177  10.550  0.5239 -1.9430  1.0456
 5399TIP3   OH237611   4.585   3.385   3.129 -0.0181  0.3718  0.4702
 5399TIP3    H137612   4.527   3.451   3.168 -1.5902 -1.1761  0.8596
 5399TIP3    H237613   4.527   3.330   3.077  1.3582 -0.3606 -0.3271
 5400TIP3   OH237614   5.656   1.709  13.742  0.9230 -0.1342 -0.0864
 5400TIP3    H137615   5.634   1.751  13.659  3.6082 -0.2125 -0.9369
 5400TIP3    H237616   5.706   1.775  13.790 -2.0047  0.5511  2.3408
 5401TIP3   OH237617   2.147   4.607   1.614  0.0347  0.2792 -0.5674
 5401TIP3    H137618   2.211   4.550   1.658  0.9149  2.1841  0.7623
 5401TIP3    H237619   2.086   4.546   1.573  1.1648 -1.6233  0.4002
 5402TIP3   OH237620   1.216   1.371  14.210  0.1170  0.1998  0.1404
 5402TIP3    H137621   1.286   1.310  14.233 -0.2556 -0.0205  0.7440
 5402TIP3    H237622   1.211   1.431  14.285 -0.0264  0.5022 -0.1089
 5403TIP3   OH237623   2.826   1.588  11.735  0.0461  0.1295 -0.0444
 5403TIP3    H137624   2.735   1.604  11.761 -0.2264 -1.4004  0.0435
 5403TIP3    H237625   2.826   1.498  11.702  0.9134  1.0542 -2.8975
 5404TIP3   OH237626   6.627   5.127  13.724 -0.3384 -0.0368  0.0112
 5404TIP3    H137627   6.686   5.177  13.780  1.9149 -0.8794 -1.4768
 5404TIP3    H237628   6.540   5.142  13.762  0.7032  1.7914  1.9128
 5405TIP3   OH237629   5.786   5.955  16.244  0.1068  0.0621 -0.1008
 5405TIP3    H137630   5.810   6.022  16.308 -0.6607  1.0290 -0.7925
 5405TIP3    H237631   5.783   5.874  16.295  0.1813  0.6939  0.9462
 5406TIP3   OH237632   2.447   2.576  11.367 -0.0587 -0.8093 -0.0173
 5406TIP3    H137633   2.401   2.659  11.380  1.3815  0.1765 -0.8263
 5406TIP3    H237634   2.522   2.580  11.427  1.4132 -0.3570 -1.7841
 5407TIP3   OH237635   0.008   5.717  12.363  0.4787 -0.0964 -0.1769
 5407TIP3    H137636  -0.086   5.728  12.375  0.0914 -0.6867 -2.2363
 5407TIP3    H237637   0.041   5.806  12.349  0.4545  0.2373  1.6245
 5408TIP3   OH237638   0.163   3.815   1.204 -0.0934  0.7454  0.2887
 5408TIP3    H137639   0.169   3.889   1.265 -2.8187  1.4212 -0.1406
 5408TIP3    H237640   0.098   3.843   1.139  0.8758 -0.9507 -1.5090
 5409TIP3   OH237641   6.412   2.219   4.334  0.1696 -0.1414 -1.0913
 5409TIP3    H137642   6.505   2.241   4.334  0.6914 -2.1308  0.1270
 5409TIP3    H237643   6.371   2.291   4.382  0.6412  2.0079 -3.6600
 5410TIP3   OH237644   1.643   2.847  12.634  1.3460 -0.5467  0.2132
 5410TIP3    H137645   1.689   2.923  12.670  2.3042 -0.5561 -0.9504
 5410TIP3    H237646   1.626   2.869  12.543  0.3677 -1.1693  0.2255
 5411TIP3   OH237647   4.772   3.372   5.196 -0.4850  0.1295  0.1854
 5411TIP3    H137648   4.830   3.407   5.264 -1.3613 -0.5805  1.3215
 5411TIP3    H237649   4.723   3.303   5.239 -0.9888 -0.4132 -1.2149
 5412TIP3   OH237650   3.386   1.048   5.699  0.1271 -0.4023 -0.0037
 5412TIP3    H137651   3.290   1.052   5.698  0.1780  1.7604 -0.8050
 5412TIP3    H237652   3.411   1.048   5.607  0.9168 -1.7405  0.1850
 5413TIP3   OH237653   3.617   2.779   2.986  0.6478  0.9639  1.0479
 5413TIP3    H137654   3.609   2.844   3.056 -0.8360  0.8462  1.0223
 5413TIP3    H237655   3.538   2.725   2.994  0.6871  0.6435 -0.4143
 5414TIP3   OH237656   0.408   6.277  13.775 -0.0474  1.2354  0.1669
 5414TIP3    H137657   0.439   6.228  13.698  0.7513 -0.0945  1.2841
 5414TIP3    H237658   0.331   6.228  13.805 -0.1257  1.5249  0.4356
 5415TIP3   OH237659   5.147   1.572  14.634  0.3760  0.4593  0.4674
 5415TIP3    H137660   5.069   1.613  14.596  0.1354  0.3051  0.7880
 5415TIP3    H237661   5.174   1.631  14.704 -0.9964 -0.7435  2.0953
 5416TIP3   OH237662   3.479   3.356   3.688  0.8243  0.0510  0.4679
 5416TIP3    H137663   3.547   3.385   3.628  0.9091 -0.2900  0.3996
 5416TIP3    H237664   3.431   3.436   3.710  1.7724  0.4299  1.1865
 5417TIP3   OH237665   5.958   3.530  11.165  0.0400 -0.1070 -0.1723
 5417TIP3    H137666   5.880   3.574  11.199  0.2837  0.8852 -0.8583
 5417TIP3    H237667   6.030   3.563  11.220  0.2353  0.4475 -0.7465
 5418TIP3   OH237668   0.679   2.599   3.506 -0.4337 -0.5084  0.0634
 5418TIP3    H137669   0.731   2.540   3.561  3.7844  3.0293  0.4263
 5418TIP3    H237670   0.622   2.645   3.568  0.1938 -0.4896  0.6460
 5419TIP3   OH237671   4.816   5.961  13.500 -0.0441  0.0200 -0.0523
 5419TIP3    H137672   4.760   6.028  13.462  2.0956  1.4909 -0.8119
 5419TIP3    H237673   4.767   5.929  13.576 -1.1165  2.5716  0.4362
 5420TIP3   OH237674   1.625   0.504   1.140  0.1470  0.2470 -0.5162
 5420TIP3    H137675   1.689   0.556   1.187 -1.1801  0.8945  0.6378
 5420TIP3    H237676   1.573   0.569   1.091  0.7726 -0.3210 -2.0105
 5421TIP3   OH237677   2.755   5.126  15.112 -0.6317 -0.0124  0.0672
 5421TIP3    H137678   2.720   5.204  15.067  0.7536  1.4580  1.4060
 5421TIP3    H237679   2.698   5.114  15.187 -1.3276 -0.8092 -0.5755
 5422TIP3   OH237680   3.124   1.383   3.542 -0.3205  0.0405 -0.0711
 5422TIP3    H137681   3.071   1.309   3.515  0.6475 -0.3459 -0.9836
 5422TIP3    H237682   3.097   1.455   3.485  0.4853 -0.3008 -0.9071
 5423TIP3   OH237683   3.609   5.377   2.615 -0.5146 -0.4934  0.1410
 5423TIP3    H137684   3.527   5.327   2.613 -1.2051  0.6144 -0.6070
 5423TIP3    H237685   3.677   5.311   2.626 -1.5478 -1.3807  1.6112
 5424TIP3   OH237686   5.035   5.182  13.788  0.2685 -0.2474 -0.1333
 5424TIP3    H137687   5.101   5.213  13.849 -0.9215 -0.1861  1.1634
 5424TIP3    H237688   5.003   5.101  13.826 -1.6056  0.5937  0.1895
 5425TIP3   OH237689   4.644   5.968  15.894  0.2967 -0.6695 -0.4386
 5425TIP3    H137690   4.674   5.944  15.982 -0.1451  0.9082  0.1918
 5425TIP3    H237691   4.702   6.040  15.868  0.8186 -1.5119 -1.7327
 5426TIP3   OH237692   2.622   3.289   3.846  0.2397  0.5942 -0.2056
 5426TIP3    H137693   2.666   3.208   3.818  0.1829  0.8666 -1.1080
 5426TIP3    H237694   2.693   3.348   3.871  0.4903  1.2651 -2.2692
 5427TIP3   OH237695   0.098   2.851  16.959  0.2101  0.8515 -0.1693
 5427TIP3    H137696   0.113   2.852  17.053 -0.4566 -1.8870  0.0661
 5427TIP3    H237697   0.147   2.926  16.926  1.1280  1.4254  2.2512
 5428TIP3   OH237698   4.956   1.212  12.274  0.1263 -0.0887  1.0210
 5428TIP3    H137699   4.966   1.190  12.367  1.4345  0.8427  1.1308
 5428TIP3    H237700   4.869   1.179  12.251  0.6991 -2.4998  1.9363
 5429TIP3   OH237701   4.596   3.356   1.946 -0.1097  0.0341 -0.0435
 5429TIP3    H137702   4.653   3.308   1.886  0.7316  1.2386 -0.2331
 5429TIP3    H237703   4.645   3.434   1.969 -1.5714  0.9753  0.0083
 5430TIP3   OH237704   4.895   1.625   4.215  0.1648  0.2704  0.1313
 5430TIP3    H137705   4.916   1.662   4.300 -1.9274  1.4665  0.1832
 5430TIP3    H237706   4.932   1.536   4.218 -0.8584 -0.1483  2.7325
 5431TIP3   OH237707   6.194   4.498   4.963  0.0991 -0.2283 -0.1853
 5431TIP3    H137708   6.138   4.525   4.890  0.2398  0.7689  0.0596
 5431TIP3    H237709   6.277   4.473   4.921  0.0539 -0.0303 -0.3965
 5432TIP3   OH237710   6.752   4.775  16.487 -0.0988  0.4358 -0.4280
 5432TIP3    H137711   6.681   4.745  16.430 -0.2985  0.3102 -0.1126
 5432TIP3    H237712   6.788   4.851  16.441 -0.3615  0.4305 -0.6451
 5433TIP3   OH237713   1.624   3.430  16.766  0.4871 -0.5580  0.0566
 5433TIP3    H137714   1.569   3.390  16.699 -2.0590  0.3360  1.4850
 5433TIP3    H237715   1.670   3.500  16.721 -0.5189 -0.5204 -0.9578
 5434TIP3   OH237716   4.776   1.465  17.166  0.3575 -0.4318  0.2884
 5434TIP3    H137717   4.779   1.372  17.144 -0.9528 -0.6220  0.8288
 5434TIP3    H237718   4.684   1.482  17.185  0.9734  0.3519  2.9343
 5435TIP3   OH237719   5.215   6.474  12.270  0.3688 -0.0871  0.2806
 5435TIP3    H137720   5.205   6.532  12.194 -1.8600 -0.2827  0.3529
 5435TIP3    H237721   5.199   6.531  12.345 -0.0821 -0.4213  0.4438
 5436TIP3   OH237722   6.060   6.102   5.692 -0.5534  0.6282 -0.1406
 5436TIP3    H137723   6.078   6.055   5.611 -1.4010 -0.7647  0.4347
 5436TIP3    H237724   5.967   6.125   5.685 -0.5789  0.6771  0.3476
 5437TIP3   OH237725   0.211   5.341   0.577 -0.1230  0.0956  0.3299
 5437TIP3    H137726   0.277   5.401   0.613 -0.3875  0.5378  0.0966
 5437TIP3    H237727   0.129   5.373   0.613 -0.5685  1.3594 -1.6311
 5438TIP3   OH237728   3.317   1.607  15.192  0.6581  0.4865  0.5833
 5438TIP3    H137729   3.251   1.621  15.123  2.0168  1.4585 -0.5828
 5438TIP3    H237730   3.267   1.578  15.268 -1.0768  0.9392 -0.3402
 5439TIP3   OH237731   6.098   4.856   0.176 -0.0423 -0.1401 -0.4516
 5439TIP3    H137732   6.130   4.929   0.228  0.4945 -0.1119 -0.8050
 5439TIP3    H237733   6.145   4.863   0.093  0.8122 -1.4764 -0.1242
 5440TIP3   OH237734   0.699   6.200  16.739  0.2590 -0.0672 -0.5672
 5440TIP3    H137735   0.762   6.270  16.721 -0.3785  0.1012 -2.3515
 5440TIP3    H237736   0.615   6.245  16.748  0.0774 -0.4743 -0.1383
 5441TIP3   OH237737   2.906   6.487   1.149  0.1806 -0.5712 -0.6761
 5441TIP3    H137738   2.842   6.422   1.177  0.6713 -1.1419 -0.8290
 5441TIP3    H237739   2.859   6.543   1.088 -0.3430 -0.5759 -0.2763
 5442TIP3   OH237740   3.727   5.189   2.395  0.0919  0.4204  0.2422
 5442TIP3    H137741   3.656   5.207   2.456  0.8392 -0.0040  1.2456
 5442TIP3    H237742   3.723   5.095   2.379  0.7121  0.3196  0.6604
 5443TIP3   OH237743   3.146   0.226   4.008  0.4004  0.0227  0.0502
 5443TIP3    H137744   3.061   0.202   3.970  1.1975 -1.2386 -1.0158
 5443TIP3    H237745   3.128   0.307   4.056 -1.3897 -0.1735 -0.2019
 5444TIP3   OH237746   4.626   2.253  13.228  0.2150 -0.3144  0.2792
 5444TIP3    H137747   4.703   2.215  13.271  0.0352 -0.7619  0.2086
 5444TIP3    H237748   4.646   2.347  13.222  0.5994 -0.3738  0.5850
 5445TIP3   OH237749   0.407   2.364   4.624 -0.3566  0.7016  0.1988
 5445TIP3    H137750   0.454   2.427   4.571 -2.1897 -0.7230 -3.4404
 5445TIP3    H237751   0.322   2.405   4.641 -0.3433  0.5190  0.7300
 5446TIP3   OH237752   6.605   1.265  12.751 -0.3556 -0.2909 -0.0559
 5446TIP3    H137753   6.636   1.177  12.731 -0.0594  0.1907 -1.8798
 5446TIP3    H237754   6.518   1.251  12.789 -0.3663 -1.3576 -0.4224
 5447TIP3   OH237755   1.664   1.685   2.138  0.3712  0.0372  0.5872
 5447TIP3    H137756   1.640   1.671   2.046 -2.2248  0.0749  1.1846
 5447TIP3    H237757   1.677   1.779   2.145 -0.7227  0.2048  0.5099
 5448TIP3   OH237758   2.933   5.734  13.830  0.1839  0.4337 -0.8870
 5448TIP3    H137759   2.912   5.645  13.860  1.0119  0.4745 -0.1471
 5448TIP3    H237760   2.876   5.791  13.883  0.6442  0.4212 -0.3722
 5449TIP3   OH237761   5.952   3.051  15.128 -0.0593  0.4857  0.0632
 5449TIP3    H137762   6.039   3.059  15.168  0.0682  0.3445 -0.1821
 5449TIP3    H237763   5.930   2.958  15.139  0.1149  0.3799 -0.4788
 5450TIP3   OH237764   1.971   0.491   5.398  0.1451  1.1695 -0.5518
 5450TIP3    H137765   2.022   0.512   5.476 -0.5063  0.4339  0.0852
 5450TIP3    H237766   1.968   0.395   5.396 -1.0025  1.1961 -0.7122
 5451TIP3   OH237767   4.722   4.568   2.749  0.2159  0.3774  0.1611
 5451TIP3    H137768   4.758   4.507   2.812 -0.4644  0.1093  0.3045
 5451TIP3    H237769   4.750   4.655   2.779  1.2138  0.1432 -0.0630
 5452TIP3   OH237770   5.266   5.925  14.458 -0.0012 -0.3053 -0.6999
 5452TIP3    H137771   5.182   5.879  14.448 -0.4016  0.3903 -0.5668
 5452TIP3    H237772   5.324   5.881  14.396 -0.5864 -0.4927 -1.1285
 5453TIP3   OH237773   2.091   6.356  17.302  0.3556 -0.0439 -0.2939
 5453TIP3    H137774   2.133   6.369  17.217 -0.8858  0.0380 -0.9148
 5453TIP3    H237775   2.002   6.387  17.290  0.5209  1.2725  1.4457
 5454TIP3   OH237776   5.224   4.547   5.663 -0.1843  0.6208  0.5388
 5454TIP3    H137777   5.174   4.497   5.727 -1.2923  0.5611 -0.3574
 5454TIP3    H237778   5.189   4.636   5.670 -0.1643  0.6593  0.1584
 5455TIP3   OH237779   2.638   4.205   4.936  0.3539 -0.1906 -0.7765
 5455TIP3    H137780   2.544   4.195   4.948  0.2376  1.1654 -0.3440
 5455TIP3    H237781   2.675   4.189   5.022  0.3750  0.5935 -0.6275
 5456TIP3   OH237782   2.295   1.719   3.889  0.5374 -0.1476 -0.1358
 5456TIP3    H137783   2.258   1.793   3.840  0.5856  0.3315  0.5388
 5456TIP3    H237784   2.383   1.748   3.914  0.7632 -0.6476 -0.3282
 5457TIP3   OH237785   1.854   1.519  17.344 -0.2428  0.0126  0.0195
 5457TIP3    H137786   1.866   1.613  17.349 -1.1395  0.1674 -0.3853
 5457TIP3    H237787   1.938   1.481  17.369 -0.0475  0.9074  0.7423
 5458TIP3   OH237788   3.998   2.109  14.902 -0.4753  0.9312  0.1973
 5458TIP3    H137789   4.050   2.143  14.975  0.1123 -0.4496  0.4526
 5458TIP3    H237790   3.961   2.026  14.935  0.1738  0.0401 -1.2063
 5459TIP3   OH237791   3.602   5.404   4.161 -0.1705 -0.5930 -0.1976
 5459TIP3    H137792   3.570   5.491   4.182 -0.7178 -0.7998 -0.1345
 5459TIP3    H237793   3.617   5.362   4.246 -1.7172 -1.1924 -0.1900
 5460TIP3   OH237794   6.509   5.901   4.640 -0.2247 -0.0943 -0.5622
 5460TIP3    H137795   6.507   5.806   4.656 -1.7664  0.0287  0.2089
 5460TIP3    H237796   6.417   5.925   4.628  0.0920  1.3881 -0.2427
 5461TIP3   OH237797   5.045   1.003   3.315 -0.5971 -0.1107 -0.8392
 5461TIP3    H137798   5.004   1.058   3.248 -0.7508  0.5833 -0.1832
 5461TIP3    H237799   5.093   0.937   3.265 -1.1226  0.0915 -1.6310
 5462TIP3   OH237800   0.795   4.865   0.494 -0.0078 -0.1437  0.2132
 5462TIP3    H137801   0.747   4.912   0.563  0.0989  1.7614 -0.9245
 5462TIP3    H237802   0.744   4.880   0.415  1.6498  0.7296 -0.7579
 5463TIP3   OH237803   6.679   5.794  13.544  0.0387 -0.0270 -0.7184
 5463TIP3    H137804   6.693   5.841  13.626  0.1638 -3.1106  1.1755
 5463TIP3    H237805   6.767   5.773  13.513 -0.0073 -1.4626  0.0389
 5464TIP3   OH237806   1.445   2.163  14.034  0.0569  0.0970 -0.3503
 5464TIP3    H137807   1.406   2.243  14.001  1.8200  0.2490 -2.3099
 5464TIP3    H237808   1.380   2.095  14.016 -0.0629  0.5844 -1.8859
 5465TIP3   OH237809   3.282   3.423   0.547 -0.3317  0.0460 -0.2639
 5465TIP3    H137810   3.343   3.352   0.525  0.8951  1.2000 -0.7569
 5465TIP3    H237811   3.312   3.453   0.633  1.1104  1.8879 -1.3350
 5466TIP3   OH237812   2.695   2.851  13.806 -0.1799 -0.0465  0.7384
 5466TIP3    H137813   2.740   2.928  13.841 -4.2505  2.4920  1.0702
 5466TIP3    H237814   2.762   2.805  13.755  2.7180  3.2402  1.2129
 5467TIP3   OH237815   5.271   4.364  11.449 -0.3080  0.0858 -0.7849
 5467TIP3    H137816   5.201   4.341  11.388 -0.8921  0.5075 -0.3025
 5467TIP3    H237817   5.225   4.404  11.523  0.2722 -1.4474  0.4537
 5468TIP3   OH237818   4.819   6.478  15.953 -0.3867  0.5295 -0.1853
 5468TIP3    H137819   4.892   6.485  16.014 -0.2640  0.0057 -0.2670
 5468TIP3    H237820   4.840   6.539  15.882  0.8643 -0.9121 -1.1160
 5469TIP3   OH237821   3.779   2.493   5.591  0.1527 -0.6902 -0.2963
 5469TIP3    H137822   3.741   2.413   5.556 -0.0947 -0.7674  0.1467
 5469TIP3    H237823   3.734   2.508   5.674  1.5596 -1.1608  0.5959
 5470TIP3   OH237824   4.447   6.499   4.151  0.1959  0.9479  0.0412
 5470TIP3    H137825   4.446   6.595   4.149 -0.5940  0.9422 -0.5865
 5470TIP3    H237826   4.510   6.475   4.083  0.2743  1.0217  0.0874
 5471TIP3   OH237827   4.369   2.001   1.646  0.3208  0.8018 -0.4451
 5471TIP3    H137828   4.361   2.072   1.582 -3.0402  2.0179  1.1236
 5471TIP3    H237829   4.301   1.939   1.622 -0.7621  1.0948  1.6301
 5472TIP3   OH237830   5.326   2.285  15.446 -0.2066 -0.0722  0.4457
 5472TIP3    H137831   5.342   2.199  15.408  0.4441  0.3320 -0.2483
 5472TIP3    H237832   5.413   2.325  15.450 -0.5421  0.6771  0.4287
 5473TIP3   OH237833   0.370   3.165   5.130  0.7296 -0.3898  0.9753
 5473TIP3    H137834   0.301   3.231   5.116  2.9342  2.0171  0.7599
 5473TIP3    H237835   0.423   3.169   5.051  1.3292 -1.9700  1.2752
 5474TIP3   OH237836   0.370   1.532  16.447 -0.6662  0.2006 -0.4404
 5474TIP3    H137837   0.391   1.453  16.496 -0.0628  0.5245 -0.1685
 5474TIP3    H237838   0.436   1.535  16.377 -2.7642 -1.3996 -2.6403
 5475TIP3   OH237839   2.139   6.187  13.629  0.5043  0.5892  0.6623
 5475TIP3    H137840   2.170   6.120  13.568  1.6818  0.2550  1.5930
 5475TIP3    H237841   2.054   6.155  13.659  0.7091 -0.1044  0.5171
 5476TIP3   OH237842   5.740   1.040   0.907  0.0415 -0.4155 -0.2283
 5476TIP3    H137843   5.701   0.987   0.977 -0.7425  0.6781  0.1883
 5476TIP3    H237844   5.665   1.067   0.854  0.4582  0.1201 -0.5497
 5477TIP3   OH237845   6.664   1.574  16.606 -0.0161 -0.3969  0.6097
 5477TIP3    H137846   6.596   1.627  16.564  0.5133  1.0894  1.5267
 5477TIP3    H237847   6.746   1.616  16.580  0.6904 -2.7479 -1.2821
 5478TIP3   OH237848   1.272   2.877   6.015  0.3044 -0.0240  0.1270
 5478TIP3    H137849   1.214   2.865   5.940  0.8279 -0.7367 -0.1746
 5478TIP3    H237850   1.215   2.909   6.085 -0.4244 -0.5962 -0.1967
 5479TIP3   OH237851   4.755   4.232  17.308  0.4926  0.0361  0.4148
 5479TIP3    H137852   4.747   4.268  17.397 -0.3233  1.2901 -0.1325
 5479TIP3    H237853   4.847   4.245  17.285  0.2370  1.8783  0.2411
 5480TIP3   OH237854   2.585   0.376   3.883  0.0715 -0.0442 -0.2550
 5480TIP3    H137855   2.539   0.441   3.935 -0.3395  0.2616 -0.9876
 5480TIP3    H237856   2.666   0.359   3.931 -0.3202  0.1975  0.4964
 5481TIP3   OH237857   4.800   0.555   1.990 -0.3341  0.2701  0.3021
 5481TIP3    H137858   4.823   0.473   2.033  4.1194 -1.0645 -3.7450
 5481TIP3    H237859   4.859   0.620   2.030 -0.1644  0.2730  0.0541
 5482TIP3   OH237860   5.967   2.354   2.016  0.0625 -0.2360  0.1417
 5482TIP3    H137861   6.045   2.385   1.969  0.1942 -0.5409  0.1565
 5482TIP3    H237862   5.925   2.434   2.048  0.3481 -0.0678  0.0996
 5483TIP3   OH237863   4.197   3.743  13.663 -0.5543  0.2823  0.2206
 5483TIP3    H137864   4.131   3.793  13.710 -0.8652  0.4791 -0.4162
 5483TIP3    H237865   4.162   3.734  13.574  0.3501  0.5356 -0.1716
 5484TIP3   OH237866   2.216   1.889   1.018  0.8372  0.4177  0.5003
 5484TIP3    H137867   2.226   1.972   1.065  1.0506 -0.0675  1.3145
 5484TIP3    H237868   2.169   1.913   0.938  0.4626  1.2462  0.9604
 5485TIP3   OH237869   6.429   5.330   2.736 -0.4367 -0.1763  0.0264
 5485TIP3    H137870   6.473   5.245   2.735  0.0070  0.0566 -0.3724
 5485TIP3    H237871   6.499   5.394   2.724 -0.6892  0.2857  0.8896
 5486TIP3   OH237872   5.384   4.984  11.420 -0.2832  0.1251  0.3627
 5486TIP3    H137873   5.369   4.945  11.334 -1.1277  1.9322 -0.3573
 5486TIP3    H237874   5.320   4.943  11.478 -0.8284  0.0932 -0.2583
 5487TIP3   OH237875   6.272   6.747  12.151 -0.5856  0.3103 -0.2589
 5487TIP3    H137876   6.193   6.701  12.180  0.8705 -1.1935  1.5783
 5487TIP3    H237877   6.259   6.760  12.057 -2.0712 -1.8638 -0.4369
 5488TIP3   OH237878   4.360   3.703   6.042  0.1076  0.1123 -0.3466
 5488TIP3    H137879   4.357   3.700   5.947 -1.5013 -3.3892 -0.3338
 5488TIP3    H237880   4.269   3.712   6.069  0.1323 -2.3460  0.7922
 5489TIP3   OH237881   0.574   0.257   4.953  0.1457  0.5818 -0.0336
 5489TIP3    H137882   0.584   0.337   5.004 -0.2888  0.9265 -0.4807
 5489TIP3    H237883   0.566   0.287   4.863  0.0047  0.0316 -0.2080
 5490TIP3   OH237884   1.760   2.473  12.232 -0.2499  0.2618  0.2879
 5490TIP3    H137885   1.785   2.561  12.260 -0.5612 -0.2016  2.1834
 5490TIP3    H237886   1.669   2.464  12.260 -0.8188 -0.0423 -1.5441
 5491TIP3   OH237887   1.225   2.841   3.188  0.0934  0.2748 -0.0818
 5491TIP3    H137888   1.181   2.876   3.110  1.6234  0.1408 -1.0395
 5491TIP3    H237889   1.155   2.799   3.238 -1.1065  1.3270 -0.8368
 5492TIP3   OH237890   2.223   5.416  11.536  0.0706  0.2156  0.2247
 5492TIP3    H137891   2.233   5.331  11.493 -2.0315  0.4132 -0.7392
 5492TIP3    H237892   2.180   5.396  11.620 -0.5555  0.3302 -0.0656
 5493TIP3   OH237893   3.844   1.543  12.024  0.5856  0.3404 -0.5492
 5493TIP3    H137894   3.757   1.509  12.044  1.0044  0.3567  1.5005
 5493TIP3    H237895   3.828   1.623  11.975 -0.5180 -0.2058 -1.1164
 5494TIP3   OH237896   2.542   1.521   2.537  0.2159  0.3289 -0.6840
 5494TIP3    H137897   2.458   1.489   2.569 -0.2515  1.5384 -0.6445
 5494TIP3    H237898   2.537   1.616   2.548  1.8091  0.3884 -0.1408
 5495TIP3   OH237899   0.861   4.497   3.658 -0.0250  0.2887  0.3734
 5495TIP3    H137900   0.790   4.510   3.721  0.5087  2.6820  0.5731
 5495TIP3    H237901   0.938   4.531   3.703  0.6839  0.4190 -0.9206
 5496TIP3   OH237902   5.117   2.999  14.583  0.5985  0.2731  0.4122
 5496TIP3    H137903   5.181   2.939  14.543 -0.5907 -1.5535  1.1417
 5496TIP3    H237904   5.154   3.019  14.669  1.7318  1.8739 -0.3911
 5497TIP3   OH237905   4.584   4.450  11.996  0.2268  0.0409 -0.0773
 5497TIP3    H137906   4.671   4.490  11.985  0.3113  0.4373  1.7499
 5497TIP3    H237907   4.525   4.524  12.009  0.2446 -0.2950  2.4609
 5498TIP3   OH237908   2.423   2.176   5.131 -0.2265 -0.2294  0.3681
 5498TIP3    H137909   2.516   2.200   5.131 -0.5330  1.0199  0.2312
 5498TIP3    H237910   2.388   2.212   5.212 -1.1289  1.6358 -0.7815
 5499TIP3   OH237911   1.557   0.777  11.910  0.4222  0.5633  0.3104
 5499TIP3    H137912   1.575   0.697  11.958  2.0329  0.9889  0.4692
 5499TIP3    H237913   1.642   0.820  11.901 -0.2183  1.6836 -0.7953
 5500TIP3   OH237914   1.292   4.172   3.138 -0.1040  0.5283  0.4519
 5500TIP3    H137915   1.316   4.264   3.149  0.9269  0.2550  0.5406
 5500TIP3    H237916   1.276   4.163   3.044  1.0553  0.5084  0.2471
 5501TIP3   OH237917   1.085   3.522  12.643 -0.2965 -0.1587 -0.1165
 5501TIP3    H137918   1.179   3.528  12.623  0.2334  1.8820  2.4468
 5501TIP3    H237919   1.082   3.483  12.730 -1.6873  1.1398  0.4656
 5502TIP3   OH237920   1.113   2.785   6.423  0.1356  0.4634  0.0355
 5502TIP3    H137921   1.160   2.853   6.374  3.0455 -1.4922 -0.1586
 5502TIP3    H237922   1.168   2.769   6.500 -0.5659 -1.5221  0.1709
 5503TIP3   OH237923   2.678   2.175   5.607 -0.1445  0.1575  0.2159
 5503TIP3    H137924   2.677   2.137   5.519  0.9808 -1.0746  0.6967
 5503TIP3    H237925   2.761   2.222   5.613 -0.5389  0.8532  0.3931
 5504TIP3   OH237926   4.654   4.229   2.198  0.5421 -0.0570 -0.4861
 5504TIP3    H137927   4.683   4.224   2.107  0.2160  0.0956 -0.6004
 5504TIP3    H237928   4.669   4.320   2.223 -1.1759  0.4097 -1.0102
 5505TIP3   OH237929   1.539   0.380   3.025  0.0870  0.4616  0.3038
 5505TIP3    H137930   1.539   0.299   2.974  0.5615  0.0490  0.9488
 5505TIP3    H237931   1.461   0.373   3.081  0.1723  0.4058  0.4175
 5506TIP3   OH237932   0.582   1.700  12.754 -0.3072  0.1968  0.0642
 5506TIP3    H137933   0.568   1.698  12.660 -2.7031  0.7291  0.3217
 5506TIP3    H237934   0.551   1.615  12.785 -1.6657  0.8095  0.5240
 5507TIP3   OH237935   2.266   3.862  12.849 -0.0509  0.8302 -0.5535
 5507TIP3    H137936   2.236   3.941  12.804 -2.7372 -0.2322 -0.7566
 5507TIP3    H237937   2.265   3.886  12.942 -1.4656  0.8912 -0.5659
 5508TIP3   OH237938   0.502   3.416  13.293  0.0092 -0.3789  0.0207
 5508TIP3    H137939   0.439   3.344  13.289 -1.4058  0.7914  0.0429
 5508TIP3    H237940   0.449   3.494  13.277  1.1906  0.8222  1.6812
 5509TIP3   OH237941   3.736   3.529  11.343  0.1239  0.3445  0.2497
 5509TIP3    H137942   3.691   3.599  11.294  0.6577  2.3329  2.4197
 5509TIP3    H237943   3.665   3.477  11.381 -0.2795  0.0482 -0.8562
 5510TIP3   OH237944   1.124   1.112   0.266 -0.3655 -0.2353 -0.2541
 5510TIP3    H137945   1.194   1.141   0.325 -0.4402 -0.4296 -0.0686
 5510TIP3    H237946   1.056   1.179   0.275 -0.2265 -0.0723 -0.3973
 5511TIP3   OH237947   3.215   6.166  15.143 -0.1770  0.4390  0.4494
 5511TIP3    H137948   3.299   6.122  15.156 -1.3457 -2.3033 -0.3910
 5511TIP3    H237949   3.223   6.211  15.059  0.7972  1.1990  0.9324
 5512TIP3   OH237950   1.731   4.989  14.651 -0.4966 -0.1398  0.5763
 5512TIP3    H137951   1.637   4.997  14.670 -0.6023  0.9654 -0.3431
 5512TIP3    H237952   1.737   4.914  14.592 -0.7635 -0.3587  0.8199
 5513TIP3   OH237953   1.979   6.718  17.257  0.9428 -0.3050  1.1224
 5513TIP3    H137954   1.941   6.635  17.226 -0.0830  0.7749 -0.6819
 5513TIP3    H237955   1.918   6.750  17.323  0.1974  0.0337  0.2844
 5514TIP3   OH237956   0.300   5.736   0.857 -0.9270 -0.3206  0.2127
 5514TIP3    H137957   0.394   5.722   0.851 -1.0695 -0.5571 -2.1998
 5514TIP3    H237958   0.291   5.815   0.910  0.6298 -0.2155  0.3582
 5515TIP3   OH237959   2.022   3.179  11.972 -0.1285 -0.0384  0.1213
 5515TIP3    H137960   2.115   3.200  11.966  0.1552 -0.9731  1.1348
 5515TIP3    H237961   1.980   3.242  11.913  1.2630 -0.5374 -1.4787
 5516TIP3   OH237962   4.625   2.322   1.282  0.1635  0.0533  0.1157
 5516TIP3    H137963   4.720   2.322   1.268  0.0214 -0.5050 -0.9675
 5516TIP3    H237964   4.594   2.247   1.231 -0.9200  0.5643  0.0108
 5517TIP3   OH237965   2.008   6.415   4.690  0.7332 -0.2020 -0.3060
 5517TIP3    H137966   1.972   6.485   4.745 -0.0520  0.0025 -1.0726
 5517TIP3    H237967   1.965   6.426   4.606  1.9958 -0.4495 -1.0136
 5518TIP3   OH237968   6.207   4.221   1.662  0.1193 -0.0974 -0.3308
 5518TIP3    H137969   6.254   4.142   1.637  0.1387 -0.5293  0.9902
 5518TIP3    H237970   6.275   4.281   1.693 -0.0625 -0.3546  0.6287
 5519TIP3   OH237971   3.570   6.318   4.254 -0.3035 -0.3262  0.0129
 5519TIP3    H137972   3.663   6.339   4.267  0.2928 -2.6722  0.0539
 5519TIP3    H237973   3.528   6.348   4.334  1.1321 -2.5892  1.7744
 5520TIP3   OH237974   4.291   4.884   4.930  1.0105  0.6304  0.8049
 5520TIP3    H137975   4.240   4.930   4.864 -0.9369  0.4180  2.0521
 5520TIP3    H237976   4.350   4.950   4.966  2.2586  0.6898 -1.2361
 5521TIP3   OH237977   1.527   1.402  15.735  0.3501  0.7309  0.4774
 5521TIP3    H137978   1.542   1.401  15.830  0.4230  0.7116  0.4663
 5521TIP3    H237979   1.443   1.446  15.725  0.3394  0.7291  0.5517
 5522TIP3   OH237980   6.484   1.648   5.223 -0.1195  0.1967  0.0806
 5522TIP3    H137981   6.562   1.682   5.179  0.5836  0.1141  1.2093
 5522TIP3    H237982   6.480   1.556   5.196  1.3014 -0.3294  1.4469
 5523TIP3   OH237983   5.605   4.424  12.833 -0.1088 -0.1024 -0.0480
 5523TIP3    H137984   5.629   4.336  12.805  1.3180 -0.0489  0.9374
 5523TIP3    H237985   5.640   4.481  12.764 -0.8129 -0.2619 -0.5557
 5524TIP3   OH237986   5.077   2.307  15.997 -0.6293 -0.5233 -0.2007
 5524TIP3    H137987   5.162   2.318  15.956 -0.6542  1.1041  0.1201
 5524TIP3    H237988   5.078   2.217  16.031  0.7258 -0.7146 -0.6914
 5525TIP3   OH237989   0.229   0.041  17.263  0.2045 -0.3558  0.2652
 5525TIP3    H137990   0.196   0.044  17.173  0.6229 -0.7022  0.0926
 5525TIP3    H237991   0.243   0.133  17.287  2.0572 -0.3058 -0.7832
 5526TIP3   OH237992   3.897   0.934   2.438  0.0823 -0.1065 -0.1028
 5526TIP3    H137993   3.899   0.897   2.349 -0.5221  1.6557 -0.8867
 5526TIP3    H237994   3.818   0.897   2.477 -0.5463  0.3639 -0.8881
 5527TIP3   OH237995   1.005   5.951   5.201 -0.1457 -0.4915  0.2280
 5527TIP3    H137996   0.926   5.941   5.253 -0.1462  1.0206  0.5548
 5527TIP3    H237997   1.026   6.044   5.206  2.3156 -1.0211  1.1224
 5528TIP3   OH237998   1.523   4.744  14.672  0.3307 -0.7292  0.3503
 5528TIP3    H137999   1.498   4.687  14.600 -1.0279  2.3229 -1.7972
 5528TIP3    H238000   1.453   4.735  14.736 -1.0336  0.0728 -0.9709
 5529TIP3   OH238001   0.138   2.527   6.190 -0.0404 -0.5898  0.7661
 5529TIP3    H138002   0.070   2.460   6.190 -1.1249  0.4362 -0.5157
 5529TIP3    H238003   0.100   2.600   6.140  2.7198 -0.7031 -1.8186
 5530TIP3   OH238004   0.730   5.872   3.217  0.2494 -0.0439  0.5281
 5530TIP3    H138005   0.760   5.850   3.129  0.3991  2.2877 -0.0744
 5530TIP3    H238006   0.635   5.874   3.211  0.2429 -0.3079  0.5369
 5531TIP3   OH238007   4.145   3.428   4.744 -0.5843 -0.0007  0.0279
 5531TIP3    H138008   4.082   3.465   4.683 -2.1254 -3.6459 -0.8571
 5531TIP3    H238009   4.135   3.333   4.734  3.8349 -0.7950  1.1705
 5532TIP3   OH238010   3.906   2.579  14.332 -0.1836 -0.4377  0.1590
 5532TIP3    H138011   3.862   2.504  14.293 -0.1826 -0.7217  0.6966
 5532TIP3    H238012   3.893   2.569  14.426  2.1775 -1.2994  0.4676
 5533TIP3   OH238013   5.770   2.867   2.979 -0.0852 -0.0188 -0.5154
 5533TIP3    H138014   5.712   2.897   3.049  0.9632  0.6459  0.0964
 5533TIP3    H238015   5.753   2.928   2.907 -0.2590  0.0817 -0.3915
 5534TIP3   OH238016   3.630   3.006  14.149  0.4047 -0.1120  0.1111
 5534TIP3    H138017   3.718   3.030  14.178 -0.5147  3.1486  0.6146
 5534TIP3    H238018   3.611   2.924  14.195  1.0820  1.9915  4.7349
 5535TIP3   OH238019   0.499   5.000   4.673 -0.2808  0.1605  0.5546
 5535TIP3    H138020   0.472   4.929   4.615 -1.0931  0.6818  0.2890
 5535TIP3    H238021   0.418   5.031   4.713  0.1764  0.3405  1.3706
 5536TIP3   OH238022   5.784   3.744   2.833  0.8199 -0.0966  0.3525
 5536TIP3    H138023   5.793   3.833   2.797  1.0288  0.2158  1.1506
 5536TIP3    H238024   5.712   3.750   2.895 -1.1756 -1.2166 -1.7306
 5537TIP3   OH238025   4.138   1.979   5.386 -0.2355  0.4878  0.5123
 5537TIP3    H138026   4.120   1.909   5.323  0.3728 -0.3925  1.2820
 5537TIP3    H238027   4.081   2.051   5.359 -0.6725 -0.1990 -0.4713
 5538TIP3   OH238028   1.377   1.194  16.580 -0.2246  0.4986 -0.1511
 5538TIP3    H138029   1.430   1.120  16.608  2.5109  2.6290  0.7963
 5538TIP3    H238030   1.304   1.196  16.641  0.4941 -0.5072  0.7853
 5539TIP3   OH238031   6.772   4.267   4.531  0.1605  0.7492 -0.1264
 5539TIP3    H138032   6.766   4.216   4.612 -0.4517  0.4174 -0.3770
 5539TIP3    H238033   6.695   4.241   4.480  1.9691 -1.1241 -2.0285
 5540TIP3   OH238034   1.293   5.039   1.253 -0.5241  0.1546  0.7500
 5540TIP3    H138035   1.274   5.130   1.231 -0.3259  0.3120  1.2311
 5540TIP3    H238036   1.278   4.992   1.171  0.6454  0.7889  0.1487
 5541TIP3   OH238037   4.761   3.932  17.262  0.5729  0.3905 -0.3672
 5541TIP3    H138038   4.794   3.861  17.317 -1.6951 -1.4548 -1.1992
 5541TIP3    H238039   4.829   3.942  17.195 -0.4577 -3.6400 -2.3646
 5542TIP3   OH238040   3.844   2.537  14.616 -0.9258 -0.3268 -0.0750
 5542TIP3    H138041   3.882   2.503  14.697  0.6201 -2.2506 -1.4967
 5542TIP3    H238042   3.840   2.632  14.629  1.3120 -0.3593  1.4539
 5543TIP3   OH238043   4.767   0.033  13.604  0.5666 -0.1533  0.2237
 5543TIP3    H138044   4.862   0.037  13.613  0.5826  2.2450 -0.3298
 5543TIP3    H238045   4.734   0.076  13.683 -0.0351 -0.0674 -0.0696
 5544TIP3   OH238046   0.070   3.388  12.309  0.0133 -0.0344 -0.2002
 5544TIP3    H138047   0.071   3.297  12.281  2.7713 -0.2146  0.2008
 5544TIP3    H238048   0.078   3.384  12.404  1.5898  0.5824 -0.2751
 5545TIP3   OH238049   3.263   1.823  17.031  0.0669 -0.5670  0.5429
 5545TIP3    H138050   3.335   1.778  16.988  0.1563  0.3704 -0.3268
 5545TIP3    H238051   3.288   1.826  17.123  1.3073  0.0355  0.2054
 5546TIP3   OH238052   2.468   6.438  12.305  0.2697 -0.4552 -0.3579
 5546TIP3    H138053   2.446   6.527  12.334  0.9095  0.7800 -3.2589
 5546TIP3    H238054   2.385   6.402  12.274  0.5267  0.4954 -2.3044
 5547TIP3   OH238055   0.811   2.767   5.326 -0.6195 -0.2690  0.1901
 5547TIP3    H138056   0.809   2.766   5.230  2.5455 -0.1897  0.0029
 5547TIP3    H238057   0.884   2.825   5.348 -2.2279  0.9820  2.7548
 5548TIP3   OH238058   2.800   4.261   3.286 -0.4501  0.3187 -0.2855
 5548TIP3    H138059   2.802   4.205   3.208 -0.2314 -1.3682  0.8778
 5548TIP3    H238060   2.892   4.277   3.306 -0.5131  1.4922 -0.8491
 5549TIP3   OH238061   2.301   3.149  17.206 -0.1519  0.4017 -0.5406
 5549TIP3    H138062   2.364   3.113  17.143 -0.0630  0.9667 -0.7811
 5549TIP3    H238063   2.346   3.146  17.290 -0.0401  0.2154 -0.6069
 5550TIP3   OH238064   5.965   1.663   6.390  0.2434  0.2460 -0.0411
 5550TIP3    H138065   5.878   1.674   6.353 -0.6918 -2.4114  1.1006
 5550TIP3    H238066   5.978   1.740   6.446 -1.4058  0.6295 -0.1489
 5551TIP3   OH238067   2.731   5.051   2.882  0.2296 -0.2865  0.1448
 5551TIP3    H138068   2.783   5.033   2.960 -0.2135 -0.7861  0.3323
 5551TIP3    H238069   2.795   5.064   2.812  0.6168 -0.2352  0.5049
 5552TIP3   OH238070   5.630   0.958  12.913 -0.0131  0.7158  0.5013
 5552TIP3    H138071   5.650   0.864  12.912  0.5703  0.8315 -1.3744
 5552TIP3    H238072   5.644   0.983  13.004 -0.3738 -1.0454  1.0936
 5553TIP3   OH238073   2.754   3.513   4.212 -0.0666 -0.2706  0.4010
 5553TIP3    H138074   2.822   3.454   4.183  1.6127  1.6073  0.3089
 5553TIP3    H238075   2.797   3.571   4.274 -1.3021  1.5856 -0.3731
 5554TIP3   OH238076   2.439   4.621   2.749 -0.4181 -0.0923  0.2132
 5554TIP3    H138077   2.415   4.679   2.677  1.3814 -0.3858 -0.6659
 5554TIP3    H238078   2.446   4.534   2.709  0.6729 -0.2437  0.6955
 5555TIP3   OH238079   0.624   3.292   4.188 -0.2034  0.2681  0.9337
 5555TIP3    H138080   0.690   3.354   4.159  0.0057 -0.4471 -0.1754
 5555TIP3    H238081   0.574   3.271   4.109 -1.2731  0.2098  1.5973
 5556TIP3   OH238082   6.219   1.050   1.427  0.3850 -0.2965  0.0258
 5556TIP3    H138083   6.196   0.964   1.463 -0.6557 -0.0514 -0.0240
 5556TIP3    H238084   6.204   1.111   1.499  1.3476 -0.1669  0.1345
 5557TIP3   OH238085   2.879   4.621  16.232  0.3792  0.7540 -0.0574
 5557TIP3    H138086   2.854   4.536  16.197  1.2287  0.7552 -0.7304
 5557TIP3    H238087   2.840   4.625  16.319  1.4813 -0.9216  0.5590
 5558TIP3   OH238088   5.456   4.267  15.685  0.8085 -0.1277 -0.6973
 5558TIP3    H138089   5.505   4.248  15.765  0.5487  0.4823 -0.3884
 5558TIP3    H238090   5.516   4.244  15.614  0.7526 -1.4404 -0.3474
 5559TIP3   OH238091   2.221   3.485  11.955 -0.1159 -0.0307 -0.1997
 5559TIP3    H138092   2.188   3.514  11.870 -0.4926  0.3727  0.0805
 5559TIP3    H238093   2.259   3.399  11.938 -0.4154 -0.0629 -0.7273
 5560TIP3   OH238094   3.979   3.829  11.157  0.0627 -0.3994  0.3118
 5560TIP3    H138095   3.892   3.805  11.124 -0.4942  1.6550  0.1584
 5560TIP3    H238096   4.039   3.801  11.088 -0.5908 -0.7320 -0.1355
 5561TIP3   OH238097   3.985   1.544  17.097 -0.2162  0.1675  0.1314
 5561TIP3    H138098   3.915   1.480  17.091  0.2880 -0.3602 -0.2639
 5561TIP3    H238099   4.063   1.498  17.066  0.1897  0.9205 -0.0106
 5562TIP3   OH238100   1.641   5.847  13.787  0.0514  0.2714 -0.4524
 5562TIP3    H138101   1.724   5.805  13.810  1.0644  1.6408 -1.4731
 5562TIP3    H238102   1.576   5.803  13.842  1.7023  0.4565  1.7651
 5563TIP3   OH238103   3.946   5.836  15.141  0.3253  0.4713  0.1263
 5563TIP3    H138104   4.026   5.807  15.097  0.2396  0.2081  0.1422
 5563TIP3    H238105   3.881   5.769  15.119  0.2795  0.3366  0.6484
 5564TIP3   OH238106   1.090   4.943   0.557  0.0902  0.2284 -0.6001
 5564TIP3    H138107   1.123   4.864   0.598  1.1678  0.9699  0.0075
 5564TIP3    H238108   1.009   4.916   0.515 -0.1187 -0.9536  0.5015
 5565TIP3   OH238109   2.651   6.648   2.787 -0.3501 -0.1600 -0.5945
 5565TIP3    H138110   2.740   6.681   2.776  0.0700 -1.4827 -1.4242
 5565TIP3    H238111   2.650   6.608   2.873 -0.5785  1.0728  0.0048
 5566TIP3   OH238112   2.529   5.879  12.221  0.1122 -0.5478 -0.1073
 5566TIP3    H138113   2.465   5.938  12.182  0.0439 -0.1701  0.5641
 5566TIP3    H238114   2.587   5.854  12.148 -0.6420 -0.7002 -0.6610
 5567TIP3   OH238115   2.414   5.997  16.948 -0.3371  0.2139  0.1561
 5567TIP3    H138116   2.467   5.962  17.019 -1.4155  2.1520  2.0223
 5567TIP3    H238117   2.348   5.929  16.932  0.3242 -0.5284  0.5380
 5568TIP3   OH238118   2.438   0.616   2.185  0.2886 -0.0860  0.2951
 5568TIP3    H138119   2.366   0.636   2.245 -0.9196  2.0297 -1.6895
 5568TIP3    H238120   2.511   0.669   2.216  0.0967 -0.0502  0.6827
 5569TIP3   OH238121   2.063   1.038   2.051  0.2126 -0.5351 -0.0043
 5569TIP3    H138122   1.968   1.047   2.059  0.2070  0.2030 -0.7934
 5569TIP3    H238123   2.093   1.125   2.026  1.0071 -0.9686 -0.6042
 5570TIP3   OH238124   5.367   4.243   3.818  0.0827  0.0741  0.0547
 5570TIP3    H138125   5.453   4.233   3.778 -0.3482 -0.6326 -0.7181
 5570TIP3    H238126   5.316   4.170   3.784 -0.3809 -0.4080  1.7090
 5571TIP3   OH238127   2.777   2.544   3.725 -0.0697 -0.2307  0.3710
 5571TIP3    H138128   2.823   2.465   3.696  2.2418  0.8141  0.9316
 5571TIP3    H238129   2.734   2.519   3.806 -0.8250 -1.3474 -0.3483
 5572TIP3   OH238130   2.147   1.101  11.483 -0.6763 -0.0634  0.0171
 5572TIP3    H138131   2.075   1.148  11.441  0.0892  1.9074  0.7803
 5572TIP3    H238132   2.176   1.037  11.417  0.4196  2.8056 -2.5198
 5573TIP3   OH238133   4.699   4.862   1.266  0.2066 -0.0065  0.2777
 5573TIP3    H138134   4.784   4.892   1.233 -0.8030  1.2974 -1.2948
 5573TIP3    H238135   4.708   4.862   1.361  1.5206  1.4571  0.1873
 5574TIP3   OH238136   0.016   5.963  12.612  0.3762  0.6731 -0.3417
 5574TIP3    H138137   0.039   5.872  12.630 -0.4088  0.4835 -0.2638
 5574TIP3    H238138  -0.022   5.995  12.693  0.2427  0.9385 -0.5086
 5575TIP3   OH238139   3.411   4.620   5.652 -0.0526  0.3974  0.4258
 5575TIP3    H138140   3.480   4.559   5.679  1.4133  2.2825  1.1918
 5575TIP3    H238141   3.390   4.669   5.732  0.1521  2.1347 -0.5361
 5576TIP3   OH238142   4.925   0.544   1.715 -0.9404  0.2945 -0.2933
 5576TIP3    H138143   4.882   0.547   1.801 -0.8751 -2.2134 -0.1257
 5576TIP3    H238144   5.018   0.533   1.735 -0.7720  0.9357 -0.6953
 5577TIP3   OH238145   5.353   3.024  15.243  0.4191 -0.2566  0.4394
 5577TIP3    H138146   5.374   2.942  15.287  1.0875  0.2632  1.1021
 5577TIP3    H238147   5.359   3.003  15.150 -0.2808 -1.1744  0.5816
 5578TIP3   OH238148   2.488   0.391  15.689 -0.2521 -0.0791 -0.1041
 5578TIP3    H138149   2.480   0.348  15.774 -1.6052 -0.4060 -0.3701
 5578TIP3    H238150   2.540   0.331  15.636  0.7749  0.2235  0.5456
 5579TIP3   OH238151   5.096   3.257   1.341 -0.2086  0.3933  0.4206
 5579TIP3    H138152   5.136   3.170   1.340  1.8881  1.3022 -0.2491
 5579TIP3    H238153   5.046   3.261   1.259  1.3519  0.5023 -0.5639
 5580TIP3   OH238154   3.060   3.257  14.611 -0.6467 -0.0981 -0.1521
 5580TIP3    H138155   3.144   3.217  14.633 -0.1494  0.2792 -1.3387
 5580TIP3    H238156   3.054   3.334  14.669 -0.6298 -0.6554  0.6088
 5581TIP3   OH238157   5.705   2.528   3.375 -0.4102  0.4520  0.4198
 5581TIP3    H138158   5.646   2.603   3.369 -0.7248  0.1052 -1.3030
 5581TIP3    H238159   5.778   2.551   3.318 -0.7507 -0.7347 -0.5295
 5582TIP3   OH238160   6.342   3.363  11.548 -0.4615  0.7284  0.2979
 5582TIP3    H138161   6.313   3.454  11.542 -1.7340  0.3190 -0.0826
 5582TIP3    H238162   6.341   3.332  11.457 -0.2590  0.2659  0.4516
 5583TIP3   OH238163   6.147   4.513   3.315 -0.0834  0.6896 -0.3994
 5583TIP3    H138164   6.085   4.525   3.387 -1.6001  0.5165 -1.6357
 5583TIP3    H238165   6.161   4.602   3.281 -1.2492  0.5140 -1.3878
 5584TIP3   OH238166   1.099   3.195  13.761  0.8467 -0.3765  0.4415
 5584TIP3    H138167   1.116   3.212  13.668 -0.2597 -2.9671 -0.3359
 5584TIP3    H238168   1.004   3.194  13.768  0.8763  1.8263  2.1105
 5585TIP3   OH238169   1.437   5.163  12.701 -0.0117  0.1719 -0.4450
 5585TIP3    H138170   1.453   5.120  12.617  0.7394 -0.3655 -0.0506
 5585TIP3    H238171   1.366   5.112  12.741 -1.1154  1.0888 -1.1947
 5586TIP3   OH238172   3.064   5.877   4.243 -0.2224 -0.1419 -0.1419
 5586TIP3    H138173   3.109   5.876   4.328 -0.4025 -1.7629 -0.0378
 5586TIP3    H238174   3.128   5.917   4.184  0.9897 -1.4109  0.2338
 5587TIP3   OH238175   1.039   4.122  16.955  0.4382 -0.5188  0.1686
 5587TIP3    H138176   0.958   4.072  16.946  0.5384 -0.8929  1.2200
 5587TIP3    H238177   1.090   4.073  17.019  1.4548 -0.2274 -0.4072
 5588TIP3   OH238178   1.954   2.788  11.667 -0.1644 -0.0250 -0.4156
 5588TIP3    H138179   1.886   2.725  11.648 -0.3217  0.1132 -0.3144
 5588TIP3    H238180   1.933   2.864  11.612  0.4409 -0.3392 -1.0955
 5589TIP3   OH238181   1.485   3.631   4.331 -0.2293  0.1619 -0.1222
 5589TIP3    H138182   1.563   3.619   4.276 -0.0810  1.0644 -0.1280
 5589TIP3    H238183   1.414   3.595   4.279 -0.3765  2.5430 -1.7389
 5590TIP3   OH238184   5.150   0.028   1.494 -0.2556 -0.1011  0.2637
 5590TIP3    H138185   5.186   0.050   1.409  0.5563 -2.0903  0.0285
 5590TIP3    H238186   5.056   0.034   1.483 -0.1296  1.2351 -0.2803
 5591TIP3   OH238187   4.570   5.773   2.339 -0.5214 -0.7672  0.3598
 5591TIP3    H138188   4.567   5.781   2.434  0.4965 -0.9820  0.4160
 5591TIP3    H238189   4.496   5.715   2.318  0.5524 -2.5421  1.2319
 5592TIP3   OH238190   3.454   2.281   4.241 -0.3794 -0.2844  0.5344
 5592TIP3    H138191   3.360   2.286   4.256 -0.0969  1.8003  2.2165
 5592TIP3    H238192   3.490   2.253   4.326  0.5184 -1.3278 -0.1635
 5593TIP3   OH238193   0.111   0.121  14.620 -0.5413 -0.4464  0.1841
 5593TIP3    H138194   0.049   0.118  14.547 -2.3305  1.3118  1.5387
 5593TIP3    H238195   0.102   0.209  14.656  1.3322 -0.7944  1.6694
 5594TIP3   OH238196   2.681   3.844   5.192 -0.3349  0.1474  0.0697
 5594TIP3    H138197   2.625   3.796   5.254 -0.6321 -1.2408 -1.2226
 5594TIP3    H238198   2.623   3.912   5.157 -1.6233 -1.8848 -1.9879
 5595TIP3   OH238199   0.408   1.425  17.182 -0.2911 -0.0860  0.1073
 5595TIP3    H138200   0.401   1.506  17.133 -1.7522 -0.0944  0.2539
 5595TIP3    H238201   0.320   1.409  17.215  0.6272  0.0163  2.8805
 5596TIP3   OH238202   2.225   2.385   0.246  0.3869  0.4940 -0.0227
 5596TIP3    H138203   2.167   2.310   0.250  2.6494 -1.3264  0.4846
 5596TIP3    H238204   2.246   2.395   0.153 -1.2745  1.6771 -0.3166
 5597TIP3   OH238205   2.847   2.610   6.080  0.1463  0.1647  0.5379
 5597TIP3    H138206   2.849   2.526   6.034 -1.7274  0.0530  0.6072
 5597TIP3    H238207   2.912   2.600   6.150  1.0476 -0.6492 -0.3775
 5598TIP3   OH238208   5.077   6.065  15.388 -0.5981 -0.3208  0.2251
 5598TIP3    H138209   5.051   6.091  15.477 -3.3713  0.9196 -0.8137
 5598TIP3    H238210   5.107   6.146  15.348  0.6365 -0.8783  0.0080
 5599TIP3   OH238211   2.400   0.762   5.084  0.1034 -0.4008 -0.9496
 5599TIP3    H138212   2.492   0.777   5.109 -0.9377  2.2026  2.1793
 5599TIP3    H238213   2.383   0.829   5.017 -0.2307  1.5156  0.9181
 5600TIP3   OH238214   6.131   2.177   5.030  0.3651 -0.6295  0.1187
 5600TIP3    H138215   6.192   2.207   5.098  2.0894  0.1056 -1.6633
 5600TIP3    H238216   6.062   2.243   5.030 -0.1035 -1.0769  1.6757
 5601TIP3   OH238217   0.041   0.188   2.472  0.5028 -1.0901  0.1190
 5601TIP3    H138218  -0.042   0.233   2.484  0.5964 -0.3862 -1.6271
 5601TIP3    H238219   0.055   0.187   2.377  2.5105 -1.1146  0.3641
 5602TIP3   OH238220   5.193   3.881   4.011  0.3360  0.4929 -0.0131
 5602TIP3    H138221   5.260   3.822   4.045  0.4413  0.9666  0.6373
 5602TIP3    H238222   5.133   3.825   3.962 -0.4338 -0.4365  1.8680
 5603TIP3   OH238223   2.654   0.622   5.378 -0.0487 -0.0918 -0.6284
 5603TIP3    H138224   2.602   0.551   5.340 -0.4543 -0.1720  0.0714
 5603TIP3    H238225   2.596   0.664   5.441  1.0065 -0.7582  0.8441
 5604TIP3   OH238226   1.826   4.086  14.865  0.0348 -0.1833  0.0833
 5604TIP3    H138227   1.753   4.137  14.901  0.3383  0.4039 -0.1203
 5604TIP3    H238228   1.847   4.023  14.934 -1.1276 -0.8346 -0.1424
 5605TIP3   OH238229   4.477   4.170   3.017 -0.2463 -0.3423  0.4106
 5605TIP3    H138230   4.517   4.171   2.930 -0.8359  0.6492  0.1286
 5605TIP3    H238231   4.465   4.077   3.037  0.1808 -0.5914 -0.4324
 5606TIP3   OH238232   6.063   2.768  16.207  0.5728 -0.1518  0.2827
 5606TIP3    H138233   6.102   2.756  16.120 -0.2611 -1.4289  0.0546
 5606TIP3    H238234   5.985   2.821  16.191 -0.5666 -1.8479 -0.0618
 5607TIP3   OH238235   1.945   2.980   5.890  0.5728  0.1879 -0.4662
 5607TIP3    H138236   2.017   2.919   5.904  0.4719  0.1019 -0.3259
 5607TIP3    H238237   1.955   3.046   5.958  1.8167  1.4094 -1.7532
 5608TIP3   OH238238   3.214   3.888  14.659 -0.4996  0.3022  0.2855
 5608TIP3    H138239   3.284   3.851  14.605 -0.8360  2.7874 -2.0857
 5608TIP3    H238240   3.242   3.870  14.749  2.7733  0.4006 -0.5567
 5609TIP3   OH238241   6.201   6.357  11.933 -0.1001  0.5253 -0.3429
 5609TIP3    H138242   6.124   6.339  11.987  0.6287  0.7047  0.8017
 5609TIP3    H238243   6.244   6.272  11.923 -0.1700  0.5129 -0.5421
 5610TIP3   OH238244   2.420   0.546  14.117 -0.0276 -0.2035 -0.5028
 5610TIP3    H138245   2.325   0.541  14.106 -0.1788 -1.5133  1.0580
 5610TIP3    H238246   2.449   0.455  14.110  0.8955 -0.0124  0.6613
 5611TIP3   OH238247   0.765   3.345  11.262  0.3587 -0.8717 -0.4904
 5611TIP3    H138248   0.853   3.355  11.225  0.6962 -4.5781 -1.1256
 5611TIP3    H238249   0.776   3.281  11.332 -1.4563  0.7819  1.4149
 5612TIP3   OH238250   0.647   5.642   1.858  0.0425 -0.5054 -0.4187
 5612TIP3    H138251   0.657   5.654   1.952 -1.3752  0.2502 -0.3322
 5612TIP3    H238252   0.555   5.662   1.841  0.5380  0.5196 -2.1303
 5613TIP3   OH238253   3.771   1.155   3.948  0.4328  0.1565  0.3103
 5613TIP3    H138254   3.810   1.236   3.981  2.3396  0.3455 -2.1091
 5613TIP3    H238255   3.686   1.182   3.913 -0.5441  0.3740  2.6572
 5614TIP3   OH238256   1.646   3.593   1.947 -0.0761  0.3745 -0.2237
 5614TIP3    H138257   1.561   3.567   1.984  0.4500 -0.0119  0.7513
 5614TIP3    H238258   1.641   3.689   1.941 -0.2221  0.4383  0.7650
 5615TIP3   OH238259   1.397   2.719  13.050  0.4195 -0.1096 -0.0998
 5615TIP3    H138260   1.308   2.686  13.037  0.3867  0.2109 -0.7122
 5615TIP3    H238261   1.412   2.778  12.976  1.0875 -0.0445  0.0815
 5616TIP3   OH238262   3.554   3.568  12.790  0.0271  0.1520 -0.0367
 5616TIP3    H138263   3.494   3.599  12.858 -0.3728 -1.3210  0.3040
 5616TIP3    H238264   3.633   3.543  12.838  0.6069  1.2279 -0.3878
 5617TIP3   OH238265   2.267   6.466  13.463  0.0136 -0.2255  0.1392
 5617TIP3    H138266   2.357   6.457  13.493 -0.5954  0.3503  2.3327
 5617TIP3    H238267   2.269   6.539  13.402  1.0160 -0.1303  0.2761
 5618TIP3   OH238268   1.086   4.325  16.266 -0.2438  0.6306 -0.0985
 5618TIP3    H138269   1.045   4.271  16.198  2.9348  1.8460 -3.2784
 5618TIP3    H238270   1.053   4.413  16.250  0.0836  0.8345  0.3326
 5619TIP3   OH238271   4.084   5.601  17.200  0.2746 -0.3800 -0.0927
 5619TIP3    H138272   4.004   5.591  17.253  0.5093  0.4605  0.4367
 5619TIP3    H238273   4.156   5.590  17.262  0.5516  1.5349 -0.0201
 5620TIP3   OH238274   5.835   1.746  14.659  0.1797  0.4592 -0.6293
 5620TIP3    H138275   5.893   1.727  14.585 -0.1481  0.2507 -0.8371
 5620TIP3    H238276   5.833   1.664  14.710  0.4971  0.6397 -0.3255
 5621TIP3   OH238277   3.076   0.565  14.150 -0.6071  0.8309  0.3275
 5621TIP3    H138278   3.069   0.645  14.097 -0.3755  0.4509 -0.2897
 5621TIP3    H238279   3.014   0.578  14.222  1.2718  2.7128  1.7488
 5622TIP3   OH238280   0.660   5.250  12.276  0.2638  0.4842  0.2140
 5622TIP3    H138281   0.623   5.162  12.268 -0.9958  0.7084  2.7962
 5622TIP3    H238282   0.719   5.258  12.201 -0.3208 -2.1856 -0.6168
 5623TIP3   OH238283   6.201   0.559   0.823  0.1194 -0.0360 -0.0692
 5623TIP3    H138284   6.224   0.490   0.761 -2.9060 -0.7937 -0.5288
 5623TIP3    H238285   6.143   0.617   0.773 -0.7724  0.4541  1.4618
 5624TIP3   OH238286   5.196   3.233  11.154  0.6549 -0.5820 -0.2861
 5624TIP3    H138287   5.177   3.326  11.138  0.6452 -0.6312 -0.5637
 5624TIP3    H238288   5.265   3.211  11.092 -0.6615 -1.2457 -1.5818
 5625TIP3   OH238289   4.654   2.279   3.326  0.4129  0.3121 -0.0270
 5625TIP3    H138290   4.620   2.200   3.284  0.0318 -0.2221  1.2150
 5625TIP3    H238291   4.746   2.283   3.300  0.4235 -0.5176 -0.1443
 5626TIP3   OH238292   2.835   2.149   4.422  0.0815  0.8656 -0.0749
 5626TIP3    H138293   2.804   2.213   4.358  0.0823  0.6230 -0.3201
 5626TIP3    H238294   2.760   2.135   4.480 -1.2707 -1.7531 -2.2530
 5627TIP3   OH238295   4.092   2.741  14.841 -0.2140 -0.1870 -0.1725
 5627TIP3    H138296   4.054   2.727  14.754 -0.1698 -0.1025 -0.2056
 5627TIP3    H238297   4.017   2.759  14.897 -0.3023 -0.8489 -0.0709
 5628TIP3   OH238298   3.628   4.702  15.468  0.3732  0.5328  0.2842
 5628TIP3    H138299   3.629   4.693  15.564  2.4135 -3.2404  0.0957
 5628TIP3    H238300   3.613   4.795  15.453 -0.1656  1.2595  4.2524
 5629TIP3   OH238301   4.188   5.168  16.249  0.3030 -0.1097 -0.0271
 5629TIP3    H138302   4.202   5.185  16.156  1.1765 -1.6266 -0.2069
 5629TIP3    H238303   4.098   5.135  16.254  0.4588 -0.6161 -0.4371
 5630TIP3   OH238304   5.996   6.135  16.690 -0.2481 -0.4441  0.1022
 5630TIP3    H138305   5.911   6.103  16.659 -0.0452  0.0483 -0.9971
 5630TIP3    H238306   6.026   6.067  16.750 -1.7129 -0.3216  1.0498
 5631TIP3   OH238307   4.657   3.347  11.541 -0.3136  0.2673  0.3130
 5631TIP3    H138308   4.592   3.418  11.547 -1.2047 -0.1017 -2.9472
 5631TIP3    H238309   4.609   3.268  11.565 -1.6354 -0.1778 -3.1672
 5632TIP3   OH238310   6.758   0.351   5.958 -0.8311  0.5680  0.0305
 5632TIP3    H138311   6.826   0.333   5.893 -0.1519 -0.3552  0.9659
 5632TIP3    H238312   6.730   0.441   5.939 -0.2596  0.5128 -1.1720
 5633TIP3   OH238313   2.447   1.383   1.525  0.1375 -0.2792  0.3079
 5633TIP3    H138314   2.458   1.348   1.436 -1.1181  1.4873 -0.6063
 5633TIP3    H238315   2.386   1.324   1.568 -0.2412 -0.4533 -0.4557
 5634TIP3   OH238316   0.358   6.412   5.495  0.3819 -0.1905 -0.3407
 5634TIP3    H138317   0.408   6.432   5.415  0.8777 -0.5602 -0.1265
 5634TIP3    H238318   0.333   6.498   5.530  0.7093 -0.0096 -0.5496
 5635TIP3   OH238319   6.310   4.114  15.407  0.7334  0.1969 -0.2032
 5635TIP3    H138320   6.295   4.070  15.491  1.0746 -0.8946 -0.6964
 5635TIP3    H238321   6.394   4.157  15.417  1.7538 -1.5830 -0.6170
 5636TIP3   OH238322   0.081   3.388   1.552  0.6391  0.0472 -0.2250
 5636TIP3    H138323   0.003   3.440   1.532  0.2983 -0.3867 -0.0393
 5636TIP3    H238324   0.135   3.445   1.606  0.1440  0.1083  0.2078
 5637TIP3   OH238325   4.863   4.436  15.359 -0.3327 -0.4539  0.3033
 5637TIP3    H138326   4.894   4.438  15.269 -2.5162  1.4390 -0.5062
 5637TIP3    H238327   4.940   4.453  15.412  0.7058  0.0756 -1.3124
 5638TIP3   OH238328   4.880   6.091  15.953  0.3355 -0.0171 -0.6642
 5638TIP3    H138329   4.881   6.177  15.995  1.4859 -0.2248 -0.2432
 5638TIP3    H238330   4.878   6.029  16.026  0.6662 -0.3610 -0.9467
 5639TIP3   OH238331   5.409   4.703   5.562 -0.0667 -0.5595 -0.7022
 5639TIP3    H138332   5.366   4.633   5.611  0.1339  0.5112  1.0935
 5639TIP3    H238333   5.339   4.765   5.541  0.1299 -0.1379 -0.1533
 5640TIP3   OH238334   4.863   0.639  13.396  0.0370 -0.2432  0.5673
 5640TIP3    H138335   4.884   0.674  13.309  0.2495 -1.5848  0.0661
 5640TIP3    H238336   4.946   0.643  13.443 -0.2521  1.2464  1.0092
 5641TIP3   OH238337   6.471   2.502   1.394 -0.9366 -0.0851  0.6012
 5641TIP3    H138338   6.472   2.546   1.309  0.4665 -1.0639  0.0769
 5641TIP3    H238339   6.378   2.493   1.415 -1.3499 -0.6351 -1.2709
 5642TIP3   OH238340   1.420   3.080  12.641 -0.7309  0.5029 -0.3813
 5642TIP3    H138341   1.505   3.122  12.626  0.5426 -0.7929  2.4025
 5642TIP3    H238342   1.412   3.017  12.569  1.0853  0.0815 -0.2755
 5643TIP3   OH238343   4.584   4.852  13.065 -0.3959  0.0635 -0.0652
 5643TIP3    H138344   4.524   4.875  13.137  0.9789 -1.0105  1.5164
 5643TIP3    H238345   4.610   4.936  13.028 -2.7168  0.5759 -0.7268
 5644TIP3   OH238346   0.390   0.655  11.292 -0.1633 -0.3358  0.1287
 5644TIP3    H138347   0.336   0.578  11.311  0.2529 -0.8858 -0.7780
 5644TIP3    H238348   0.477   0.618  11.272 -0.2650  0.2348 -1.5595
 5645TIP3   OH238349   1.689   3.499  12.043 -0.0666  0.3010 -0.7624
 5645TIP3    H138350   1.759   3.440  12.073  0.5277 -0.8209 -3.9987
 5645TIP3    H238351   1.696   3.575  12.101  3.3982 -0.0551 -0.5037
 5646TIP3   OH238352   1.411   5.810   3.649  0.1902  0.1034 -0.0225
 5646TIP3    H138353   1.473   5.738   3.637 -0.4388 -0.8551  2.1054
 5646TIP3    H238354   1.462   5.880   3.689  0.2053 -0.1547  0.4071
 5647TIP3   OH238355   2.405   4.294   5.164  0.4229 -0.5847  0.0353
 5647TIP3    H138356   2.469   4.361   5.192 -0.0552 -1.0102  2.3444
 5647TIP3    H238357   2.330   4.345   5.133  0.7249 -0.0524  0.1513
 5648TIP3   OH238358   6.740   4.655  14.043  0.1430 -0.4975 -0.3188
 5648TIP3    H138359   6.751   4.621  14.132  0.8047 -0.1702 -0.2719
 5648TIP3    H238360   6.772   4.584  13.986 -0.1925 -0.6696 -0.2956
 5649TIP3   OH238361   6.716   6.051   1.368  0.1920  0.5427  0.0730
 5649TIP3    H138362   6.629   6.035   1.406  0.5586 -1.4940  0.1202
 5649TIP3    H238363   6.704   6.039   1.274  0.3114  0.8054  0.0237
 5650TIP3   OH238364   2.404   0.060  10.995  0.0630  0.3327  0.0358
 5650TIP3    H138365   2.460   0.113  10.939  0.0951 -0.3101 -0.5584
 5650TIP3    H238366   2.326   0.042  10.941  0.0792 -0.2634  0.1985
 5651TIP3   OH238367   1.839   6.108  13.698 -1.1018  0.8220 -0.2808
 5651TIP3    H138368   1.764   6.156  13.732 -1.4150 -1.0515  1.8412
 5651TIP3    H238369   1.844   6.028  13.750  1.5231  0.1870 -1.2996
 5652TIP3   OH238370   1.663   0.905   3.847 -0.4789  0.1642  0.1905
 5652TIP3    H138371   1.663   0.961   3.925 -0.3876 -0.7442  0.8504
 5652TIP3    H238372   1.576   0.866   3.846  0.1919 -1.4453  1.0377
 5653TIP3   OH238373   3.237   0.104  14.800 -0.2945  0.1400  0.4608
 5653TIP3    H138374   3.251   0.066  14.886  3.2062  2.1912  0.9779
 5653TIP3    H238375   3.324   0.131  14.770 -1.3778 -0.2221 -3.6552
 5654TIP3   OH238376   4.175   5.365  14.052  0.3537 -0.2852  0.0768
 5654TIP3    H138377   4.095   5.396  14.095  0.3395  1.8349 -1.2890
 5654TIP3    H238378   4.246   5.415  14.094  0.9187 -1.6468  0.8080
 5655TIP3   OH238379   5.487   3.096  12.491 -0.6728  0.1269  0.4322
 5655TIP3    H138380   5.502   3.097  12.397 -1.1174 -0.0781  0.3557
 5655TIP3    H238381   5.561   3.144  12.528  0.9856 -2.1118  0.2095
 5656TIP3   OH238382   1.320   0.550  12.863 -0.9965 -0.6037  0.0013
 5656TIP3    H138383   1.336   0.478  12.924 -1.7295  0.3231  1.3348
 5656TIP3    H238384   1.254   0.517  12.803 -0.2297 -1.5474 -0.3484
 5657TIP3   OH238385   2.438   0.938  13.879 -0.1072  0.2398  0.5798
 5657TIP3    H138386   2.384   0.894  13.813  0.1310  1.0007 -0.1346
 5657TIP3    H238387   2.382   1.006  13.916  0.1075  0.5190  0.3942
 5658TIP3   OH238388   4.837   1.612  11.773  0.1382 -0.0484 -0.1261
 5658TIP3    H138389   4.891   1.659  11.709 -0.9598  0.1136 -0.9633
 5658TIP3    H238390   4.839   1.668  11.851 -0.2858  0.8913 -0.7602
 5659TIP3   OH238391   0.195   0.680   1.042 -0.1513 -0.0409  0.4881
 5659TIP3    H138392   0.266   0.676   1.106  1.4787  0.4449 -1.1809
 5659TIP3    H238393   0.138   0.606   1.064  1.3157 -0.9517  1.4030
 5660TIP3   OH238394   6.434   4.206  15.673  0.8046  0.4530  0.1970
 5660TIP3    H138395   6.359   4.254  15.708 -0.0587 -1.2913  0.8127
 5660TIP3    H238396   6.458   4.145  15.743  1.9138  0.0073 -0.5467
 5661TIP3   OH238397   6.232   3.699  15.196  0.4202  0.1524  0.0878
 5661TIP3    H138398   6.175   3.624  15.182  1.9033 -1.0446  0.2620
 5661TIP3    H238399   6.221   3.753  15.118 -2.8163  1.2972  1.1650
 5662TIP3   OH238400   5.007   1.436  13.040 -0.0695 -0.3876 -0.1822
 5662TIP3    H138401   4.962   1.511  13.001 -1.7509 -1.9350 -1.3531
 5662TIP3    H238402   4.941   1.392  13.093  0.4867 -1.8160 -0.6258
 5663TIP3   OH238403   6.698   2.140   1.056  0.2048  0.1523 -0.2316
 5663TIP3    H138404   6.729   2.230   1.050  0.5554 -0.0373 -1.4157
 5663TIP3    H238405   6.640   2.129   0.981 -0.9207 -0.2162  0.6509
 5664TIP3   OH238406   1.539   5.479   0.851  0.0436 -0.1931 -0.3675
 5664TIP3    H138407   1.503   5.521   0.929 -1.7009 -1.1063 -0.6233
 5664TIP3    H238408   1.486   5.513   0.779 -0.1188 -1.3116 -0.8044
 5665TIP3   OH238409   3.476   0.632   1.248 -0.5686 -0.4094 -0.0371
 5665TIP3    H138410   3.390   0.590   1.252 -1.2798  0.8591 -0.8320
 5665TIP3    H238411   3.533   0.577   1.301 -0.9403 -3.4523 -2.5109
 5666TIP3   OH238412   1.005   6.028  12.435 -0.5639 -0.5871  0.4512
 5666TIP3    H138413   1.004   5.935  12.412  0.6597 -0.4231 -0.3695
 5666TIP3    H238414   1.087   6.040  12.484  1.6154  0.8320 -3.1826
 5667TIP3   OH238415   2.341   3.849   4.542  0.0524 -0.2354 -0.4724
 5667TIP3    H138416   2.415   3.832   4.484 -0.6025 -0.1785 -1.3444
 5667TIP3    H238417   2.343   3.943   4.557 -0.4216 -0.0804 -1.3148
 5668TIP3   OH238418   5.595   2.331   0.961 -0.1199 -0.2227  0.4463
 5668TIP3    H138419   5.662   2.380   0.913 -0.7703  0.7726  0.5274
 5668TIP3    H238420   5.540   2.399   1.001  0.0619 -1.0139  2.1392
 5669TIP3   OH238421   6.422   4.926  11.502  0.3162  0.4812 -0.5652
 5669TIP3    H138422   6.486   4.996  11.497  0.3117  0.8717  2.7813
 5669TIP3    H238423   6.408   4.912  11.596 -2.9946 -0.9711 -1.1190
 5670TIP3   OH238424   4.228   3.584   5.527  0.2240  0.0863 -0.2309
 5670TIP3    H138425   4.160   3.604   5.592  0.6355  2.6974 -0.4969
 5670TIP3    H238426   4.193   3.510   5.478 -0.8487 -0.8817  1.8536
 5671TIP3   OH238427   4.989   0.318  13.849 -0.1968  0.5320 -0.1959
 5671TIP3    H138428   5.047   0.364  13.788  0.3877  0.8668  0.5974
 5671TIP3    H238429   4.901   0.330  13.813  0.2188 -0.0126 -1.4357
 5672TIP3   OH238430   0.746   5.529   5.177  0.3902 -0.1539  0.0024
 5672TIP3    H138431   0.834   5.498   5.198  0.9406  0.5876 -1.0781
 5672TIP3    H238432   0.760   5.618   5.142 -0.4678 -0.9608 -2.6586
 5673TIP3   OH238433   3.949   6.629  16.087  0.0355 -0.4226  0.1458
 5673TIP3    H138434   4.020   6.692  16.073 -0.1867  0.4080  2.3127
 5673TIP3    H238435   3.922   6.603  15.999  1.1682  1.3520 -0.7881
 5674TIP3   OH238436   5.144   3.037  13.352 -0.1985 -0.1549  0.1636
 5674TIP3    H138437   5.094   2.989  13.286  0.8547 -1.7315  0.4496
 5674TIP3    H238438   5.079   3.088  13.400 -1.1488  0.0105 -1.2262
 5675TIP3   OH238439   4.580   6.073   2.190 -0.1331  0.4080 -0.0072
 5675TIP3    H138440   4.538   6.054   2.274 -1.0724 -0.7443 -0.7112
 5675TIP3    H238441   4.556   6.000   2.133 -0.5104  1.7395 -1.6452
 5676TIP3   OH238442   2.270   6.010   5.025  0.0077 -0.4027 -0.1488
 5676TIP3    H138443   2.313   5.996   5.109  1.1483  2.8261 -0.0344
 5676TIP3    H238444   2.341   6.015   4.962 -0.3321  1.8012 -0.4719
 5677TIP3   OH238445   3.688   0.678  12.466  0.0120 -0.1404  0.3393
 5677TIP3    H138446   3.687   0.612  12.397  0.0614 -0.3918  0.5793
 5677TIP3    H238447   3.770   0.725  12.453  0.2184 -0.4629  0.4897
 5678TIP3   OH238448   3.561   0.108   4.303  0.5593 -0.0135 -0.4862
 5678TIP3    H138449   3.529   0.031   4.256  0.2795 -0.6695  0.7472
 5678TIP3    H238450   3.542   0.181   4.244  2.1803 -0.9805 -2.3555
 5679TIP3   OH238451   4.816   3.526   0.904 -0.2431 -0.5871  0.3617
 5679TIP3    H138452   4.894   3.470   0.896 -0.0815 -0.2367 -0.7101
 5679TIP3    H238453   4.834   3.581   0.980  1.6458  1.0982 -1.1895
 5680TIP3   OH238454   0.697   5.350  11.505 -0.3410  0.0407  0.0405
 5680TIP3    H138455   0.622   5.374  11.451  0.2274 -2.5810 -2.1454
 5680TIP3    H238456   0.749   5.430  11.511 -2.3146  1.4047 -0.0020
 5681TIP3   OH238457   3.895   1.939  11.007  0.1977 -0.5477  0.1258
 5681TIP3    H138458   3.879   1.898  10.922 -1.3078  1.3563 -0.6014
 5681TIP3    H238459   3.968   1.998  10.992 -0.6119  0.4272 -0.1346
 5682TIP3   OH238460   1.478   6.093  13.751  0.2364 -0.3477 -0.7048
 5682TIP3    H138461   1.416   6.089  13.824  0.5856  0.9030 -0.3072
 5682TIP3    H238462   1.527   6.011  13.757 -2.7648 -2.4127 -2.3682
 5683TIP3   OH238463   3.659   4.354   0.901  0.4354  0.6436 -0.0663
 5683TIP3    H138464   3.684   4.314   0.985  1.4380  0.6661 -0.3391
 5683TIP3    H238465   3.566   4.374   0.911  0.7245  1.4931  1.4094
 5684TIP3   OH238466   3.794   3.409  10.855  0.2111  0.7889  0.8064
 5684TIP3    H138467   3.699   3.422  10.855  0.0025 -0.5753  0.2064
 5684TIP3    H238468   3.814   3.380  10.766  1.3058  1.7444  0.7171
 5685TIP3   OH238469   4.926   2.838  14.282 -0.2265  0.0937 -0.2844
 5685TIP3    H138470   4.932   2.860  14.375 -1.2819 -3.2366  0.7201
 5685TIP3    H238471   4.852   2.777  14.276  1.3970 -1.8673 -2.8258
 5686TIP3   OH238472   0.088   3.320   1.218  0.7131  0.5304 -0.5819
 5686TIP3    H138473   0.145   3.397   1.214  2.5462 -0.8136 -2.3655
 5686TIP3    H238474  -0.001   3.356   1.224  1.4049  2.8576 -2.6564
 5687TIP3   OH238475   2.860   0.354   6.000 -0.2551 -0.5514 -0.0861
 5687TIP3    H138476   2.865   0.365   6.095  0.4857 -1.1370 -0.0511
 5687TIP3    H238477   2.945   0.319   5.975  0.9283  2.9157 -1.4638
 5688TIP3   OH238478   6.361   5.409   0.585 -0.2020 -0.3590  0.0301
 5688TIP3    H138479   6.373   5.451   0.499 -0.9002 -0.7660 -0.2793
 5688TIP3    H238480   6.442   5.360   0.599  0.6125  1.0284  0.3763
 5689TIP3   OH238481   5.956   6.574  11.619 -0.6609 -0.0522  0.2520
 5689TIP3    H138482   5.903   6.505  11.658  0.0049 -0.9714 -0.4392
 5689TIP3    H238483   6.045   6.557  11.649 -0.5407  0.7409  0.3857
 5690TIP3   OH238484   1.922   6.500   0.163 -0.3974 -0.2938  0.0158
 5690TIP3    H138485   1.947   6.506   0.071  0.5488  1.7882  0.3394
 5690TIP3    H238486   1.874   6.582   0.180 -2.4694 -1.6105  0.8738
 5691TIP3   OH238487   1.205   4.167  12.137 -0.0586  0.4807  0.0768
 5691TIP3    H138488   1.299   4.183  12.146  0.6825 -3.2212  0.5903
 5691TIP3    H238489   1.198   4.072  12.123 -3.6827  0.7590 -1.0836
 5692TIP3   OH238490   1.790   5.821   0.010  0.0801  0.2620 -0.2316
 5692TIP3    H138491   1.793   5.902  -0.041  0.7333 -0.2669 -1.0572
 5692TIP3    H238492   1.729   5.840   0.082 -0.8419  1.0288 -1.1847
 5693TIP3   OH238493   3.906   2.039   3.927  0.1527  0.6278  0.0733
 5693TIP3    H138494   3.903   2.089   3.846  0.3214  0.7045  0.1131
 5693TIP3    H238495   3.814   2.023   3.950  0.1042  0.7106 -0.0668
 5694TIP3   OH238496   2.853   2.820   2.571  0.2357 -0.0647  0.0852
 5694TIP3    H138497   2.888   2.780   2.491 -1.2747 -1.7064  0.1914
 5694TIP3    H238498   2.890   2.767   2.642 -1.0300 -0.6981  0.2854
 5695TIP3   OH238499   3.253   2.810   3.407 -0.1970  0.4463 -0.8178
 5695TIP3    H138500   3.309   2.798   3.484 -0.7674 -0.9979 -0.5976
 5695TIP3    H238501   3.170   2.841   3.442  0.3249  2.3746 -1.1270
 5696TIP3   OH238502   4.052   1.588  16.035 -0.3357  0.4653  0.0639
 5696TIP3    H138503   3.999   1.609  15.958 -0.7875 -1.2871 -0.1505
 5696TIP3    H238504   3.994   1.539  16.092  0.5313  0.1142  0.6764
 5697TIP3   OH238505   0.674   1.744  10.316 -0.3754  0.1625 -0.0979
 5697TIP3    H138506   0.681   1.666  10.371  0.7520  1.7915  2.1878
 5697TIP3    H238507   0.592   1.785  10.343 -0.5101  0.2683 -0.6489
 5698TIP3   OH238508   3.113   2.587  11.643 -0.4981  0.0577  0.1891
 5698TIP3    H138509   3.151   2.665  11.683 -1.6005  1.1507 -0.8125
 5698TIP3    H238510   3.151   2.514  11.692 -0.0955  1.2379  1.7142
 5699TIP3   OH238511   3.691   4.408  12.540 -0.9356  0.3585  0.0159
 5699TIP3    H138512   3.772   4.358  12.552 -1.2701  0.1978  1.8865
 5699TIP3    H238513   3.636   4.353  12.484 -0.6529 -0.6114  0.6750
 5700TIP3   OH238514   4.076   3.709  13.389  0.1302 -0.2273 -0.7941
 5700TIP3    H138515   4.134   3.748  13.324  1.5578 -2.1373 -0.7868
 5700TIP3    H238516   4.025   3.645  13.340  0.0433 -0.5168 -0.3359
 5701TIP3   OH238517   4.421   5.928   1.939 -0.1792  0.5038  0.3175
 5701TIP3    H138518   4.395   5.838   1.958  0.2362  0.5836  1.3370
 5701TIP3    H238519   4.510   5.920   1.905 -0.3785  0.4819 -0.2052
 5702TIP3   OH238520   3.705   5.781  13.940 -0.1459  0.3026  0.2763
 5702TIP3    H138521   3.735   5.693  13.962  0.2572  0.2540 -0.4158
 5702TIP3    H238522   3.626   5.768  13.888  0.3237  0.3102 -0.4573
 5703TIP3   OH238523   0.863   5.900   3.885 -0.5244  0.3426  0.3127
 5703TIP3    H138524   0.880   5.923   3.976  1.1181  1.0026 -0.1222
 5703TIP3    H238525   0.935   5.941   3.836 -0.3944 -1.4177 -1.0894
 5704TIP3   OH238526   5.247   5.393  13.692 -0.4260  0.4638  0.2258
 5704TIP3    H138527   5.154   5.374  13.701 -0.0737 -1.0784  0.9205
 5704TIP3    H238528   5.286   5.312  13.660  0.7399  0.9820  0.2502
 5705TIP3   OH238529   2.418   1.078   3.200  0.0631  0.4620  0.3509
 5705TIP3    H138530   2.375   0.993   3.206 -2.6114  1.5995 -0.9982
 5705TIP3    H238531   2.368   1.135   3.258 -0.0518  1.7622 -0.9552
 5706TIP3   OH238532   3.003   6.572   0.798 -0.4366 -0.0114  0.5285
 5706TIP3    H138533   3.031   6.614   0.716 -0.7212 -1.6329 -0.4344
 5706TIP3    H238534   2.965   6.644   0.849  0.3007  1.1577 -0.4952
 5707TIP3   OH238535   5.010   6.396   2.222  0.4744  0.3346  0.1187
 5707TIP3    H138536   5.099   6.371   2.249 -0.3227 -1.3349  1.4429
 5707TIP3    H238537   4.966   6.312   2.205 -0.9610  1.1088 -0.1110
 5708TIP3   OH238538   0.615   4.597  13.153  0.3637 -0.3299  0.8443
 5708TIP3    H138539   0.651   4.586  13.065  1.7690  1.9053  1.0362
 5708TIP3    H238540   0.676   4.551  13.210  0.4732 -0.2528  0.7899
 5709TIP3   OH238541   3.910   6.215  13.373 -0.2031  0.1108 -0.2674
 5709TIP3    H138542   3.817   6.228  13.392  0.2903  1.0401  1.7991
 5709TIP3    H238543   3.937   6.146  13.433  0.6474  0.5389 -0.1421
 5710TIP3   OH238544   5.734   4.240  16.763 -0.1631  0.0940  0.3540
 5710TIP3    H138545   5.645   4.207  16.756 -0.1751  0.3822 -1.0674
 5710TIP3    H238546   5.724   4.335  16.770  0.0595  0.3282 -1.8263
 5711TIP3   OH238547   6.556   6.292   1.041  0.6729 -0.1510  0.0818
 5711TIP3    H138548   6.487   6.319   1.102 -0.5612 -0.8613 -0.9482
 5711TIP3    H238549   6.513   6.290   0.956  1.9863 -0.5939 -0.6021
 5712TIP3   OH238550   5.098   1.352   1.972  0.1897  0.1248 -0.5745
 5712TIP3    H138551   5.168   1.345   2.036 -0.4123  0.1119  0.0925
 5712TIP3    H238552   5.037   1.281   1.993 -0.4710  0.6754 -0.5829
 5713TIP3   OH238553   1.759   5.476  11.946 -0.0021 -0.0777  0.3578
 5713TIP3    H138554   1.814   5.411  11.990 -0.5045 -1.6340 -1.1570
 5713TIP3    H238555   1.730   5.431  11.866 -1.3331  1.6262 -0.1676
 5714TIP3   OH238556   3.218   1.957  12.177 -0.2613  0.3572 -0.6525
 5714TIP3    H138557   3.200   1.942  12.085 -1.5681  1.6478 -0.6451
 5714TIP3    H238558   3.289   1.897  12.198  0.7288  0.7309 -2.7261
 5715TIP3   OH238559   5.451   2.003   1.576  0.1510  0.4414 -1.0268
 5715TIP3    H138560   5.447   1.949   1.497 -2.2985  0.0680 -0.7190
 5715TIP3    H238561   5.422   2.089   1.548  0.6897  0.7063 -0.7995
 5716TIP3   OH238562   0.341   3.567  13.885 -0.5672 -0.4352  0.6309
 5716TIP3    H138563   0.289   3.569  13.805 -0.0931 -0.9060  0.3043
 5716TIP3    H238564   0.411   3.505  13.866  0.7965  1.0525  0.6303
 5717TIP3   OH238565   0.011   3.033   1.071 -0.2279  0.5417 -0.5635
 5717TIP3    H138566  -0.067   3.083   1.097  0.2633  1.2641 -0.4537
 5717TIP3    H238567   0.062   3.025   1.151  0.3113  0.9919 -0.8536
 5718TIP3   OH238568   1.534   3.204   0.588  0.4262  0.3214 -0.1604
 5718TIP3    H138569   1.562   3.112   0.590 -3.1150 -0.9584 -1.3627
 5718TIP3    H238570   1.487   3.217   0.670 -1.3489  0.1592 -1.1071
 5719TIP3   OH238571   3.360   1.577  16.092 -0.1227  0.0614  0.2889
 5719TIP3    H138572   3.400   1.636  16.028  1.1247 -1.2986 -0.2408
 5719TIP3    H238573   3.412   1.589  16.172 -0.0106 -0.1672  0.2488
 5720TIP3   OH238574   2.274   6.177  15.086 -0.3564 -0.3355  0.6430
 5720TIP3    H138575   2.341   6.237  15.054 -0.5407  0.0378  0.9544
 5720TIP3    H238576   2.195   6.201  15.038 -0.6571  0.2869  1.4193
 5721TIP3   OH238577   5.005   4.163  15.453 -0.0311 -0.0745  0.2705
 5721TIP3    H138578   5.017   4.143  15.361 -1.8352  2.1086 -0.5333
 5721TIP3    H238579   5.030   4.255  15.461 -2.4392  0.5800  1.3231
 5722TIP3   OH238580   6.730   6.323  14.363  0.7221 -0.4079  0.5492
 5722TIP3    H138581   6.665   6.392  14.379 -1.1255 -2.0778  0.7402
 5722TIP3    H238582   6.788   6.327  14.438  1.3357  1.6037  0.0354
 5723TIP3   OH238583   6.020   4.857  13.155 -0.9010 -0.2420 -0.1629
 5723TIP3    H138584   6.009   4.773  13.199 -1.0651  0.2719  0.7898
 5723TIP3    H238585   5.942   4.865  13.100 -0.7029 -0.8776 -0.5435
 5724TIP3   OH238586   2.688   1.840   1.717 -0.1416 -0.5760  0.1115
 5724TIP3    H138587   2.600   1.877   1.720  0.0495 -0.1791  1.2111
 5724TIP3    H238588   2.717   1.855   1.627 -0.9144 -0.0484 -0.0593
 5725TIP3   OH238589   3.553   4.231  14.168  0.0270  0.2783  0.6563
 5725TIP3    H138590   3.500   4.256  14.244 -1.4737 -2.7496  0.7619
 5725TIP3    H238591   3.505   4.266  14.093 -1.4748 -1.2426  0.8458
 5726TIP3   OH238592   5.743   3.344  11.698 -0.3831  0.2755  0.2097
 5726TIP3    H138593   5.763   3.280  11.629  1.3327 -0.5712  1.4359
 5726TIP3    H238594   5.657   3.379  11.674 -0.8344 -1.6279 -1.1375
 5727TIP3   OH238595   4.170   0.499   1.379  0.2939 -0.7673  0.4136
 5727TIP3    H138596   4.078   0.512   1.399  0.2121 -1.9769  0.8772
 5727TIP3    H238597   4.216   0.565   1.431 -0.2690 -0.4791  0.5488
 5728TIP3   OH238598   2.324   0.770  12.593  0.4799 -0.7293 -0.2217
 5728TIP3    H138599   2.376   0.788  12.514  2.0267 -2.3957  0.3583
 5728TIP3    H238600   2.387   0.735  12.655 -1.0561 -1.1541  1.1515
 5729TIP3   OH238601   2.065   5.593  11.784 -0.2708  0.1056 -0.1324
 5729TIP3    H138602   2.030   5.673  11.824  0.6810  0.1075  0.7420
 5729TIP3    H238603   2.019   5.586  11.701 -1.8983  0.4228  0.7012
 5730TIP3   OH238604   1.174   2.820  16.276  0.1560 -0.7926  0.2690
 5730TIP3    H138605   1.193   2.871  16.197  0.7156 -0.0736  0.8561
 5730TIP3    H238606   1.136   2.738  16.243  0.0621 -0.3624 -0.7269
 5731TIP3   OH238607   1.832   5.055   2.531 -0.2144  0.1825 -0.2101
 5731TIP3    H138608   1.922   5.052   2.564 -0.7954 -0.5878  1.4044
 5731TIP3    H238609   1.837   5.110   2.453  1.5193  0.7603  0.2649
 5732TIP3   OH238610   5.163   5.982  12.163  0.0939 -0.0568 -0.4943
 5732TIP3    H138611   5.235   5.922  12.183  0.5204  1.0051  1.3543
 5732TIP3    H238612   5.176   6.005  12.071  2.2731  0.2776 -0.1467
 5733TIP3   OH238613   0.122   2.540   0.029  0.4074  0.3918 -0.0067
 5733TIP3    H138614   0.029   2.530   0.007  0.2976 -0.0870  0.6640
 5733TIP3    H238615   0.123   2.559   0.122  1.0015 -0.0006  0.0729
 5734TIP3   OH238616   5.260   2.617   1.891 -0.5482  0.3377 -0.3163
 5734TIP3    H138617   5.280   2.668   1.813 -3.1260  1.3120 -0.4170
 5734TIP3    H238618   5.190   2.665   1.935 -1.5309 -1.9370  0.7900
 5735TIP3   OH238619   5.629   0.367  12.742  0.1945 -0.0537  0.4340
 5735TIP3    H138620   5.590   0.455  12.744  2.1410  0.8710  0.0306
 5735TIP3    H238621   5.605   0.332  12.656 -1.2766 -0.2769  0.9096
 5736TIP3   OH238622   0.829   4.018  11.010 -0.1657 -0.5326  0.3099
 5736TIP3    H138623   0.846   4.112  11.008 -1.3829 -0.3039  0.3216
 5736TIP3    H238624   0.916   3.979  11.013  0.4686  0.5140 -2.0019
 5737TIP3   OH238625   0.515   6.178  17.041 -0.9111 -0.1781  0.2677
 5737TIP3    H138626   0.441   6.196  17.100 -0.0467  0.9592  1.0513
 5737TIP3    H238627   0.581   6.137  17.096 -0.4722 -0.0267 -0.1344
 5738TIP3   OH238628   4.603   3.591  12.936  0.2529  0.3765  0.9179
 5738TIP3    H138629   4.611   3.547  13.020 -1.1737 -0.0536  0.8418
 5738TIP3    H238630   4.512   3.577  12.909  0.7402  0.2710 -0.8145
 5739TIP3   OH238631   6.693   0.015   6.342 -0.2858 -0.0394 -0.0103
 5739TIP3    H138632   6.744   0.091   6.314 -1.3257  1.0535  0.9816
 5739TIP3    H238633   6.727  -0.057   6.288  1.0226  1.0149 -0.6666
 5740TIP3   OH238634   5.719   5.719   4.302  0.2379  0.0279 -0.6286
 5740TIP3    H138635   5.650   5.748   4.242 -0.1586 -0.8971 -0.6376
 5740TIP3    H238636   5.714   5.781   4.375  0.0025  0.5111 -1.0499
 5741TIP3   OH238637   2.308   3.545  16.887 -0.4141 -0.7536 -0.2668
 5741TIP3    H138638   2.237   3.603  16.916  0.6455  0.5244 -0.1780
 5741TIP3    H238639   2.373   3.549  16.957  0.1731 -1.1806 -0.7757
 5742TIP3   OH238640   6.047   6.302   2.127  0.2947 -0.6773 -0.5093
 5742TIP3    H138641   6.106   6.231   2.151 -0.3807 -0.6430  1.4304
 5742TIP3    H238642   6.092   6.348   2.056  1.8996 -1.5407 -0.0962
 5743TIP3   OH238643   2.691   5.520   3.800  0.2291  0.1061 -0.8294
 5743TIP3    H138644   2.679   5.574   3.878  0.0828 -0.6207 -0.3378
 5743TIP3    H238645   2.776   5.547   3.765  0.4972  0.1281 -0.1756
 5744TIP3   OH238646   1.390   2.049  13.567 -0.3135  0.4962 -0.2007
 5744TIP3    H138647   1.428   2.066  13.481 -0.0208  0.0492 -0.1626
 5744TIP3    H238648   1.461   2.069  13.628 -1.2437  3.2809  0.1311
 5745TIP3   OH238649   3.798   0.254   2.319 -0.0309  0.0753  0.0878
 5745TIP3    H138650   3.771   0.163   2.306 -3.1033  0.6567  1.4554
 5745TIP3    H238651   3.814   0.287   2.231 -1.6928 -1.0546 -0.6996
 5746TIP3   OH238652   3.152   2.961   2.047 -0.1419 -0.1896  0.1294
 5746TIP3    H138653   3.116   2.891   2.101  1.4769 -1.4644 -0.3868
 5746TIP3    H238654   3.075   3.013   2.021 -1.2685 -1.2339  1.2252
 5747TIP3   OH238655   2.117   1.014  11.759 -0.2487  0.0121 -0.6227
 5747TIP3    H138656   2.057   1.078  11.798  0.2582 -0.7475  1.5384
 5747TIP3    H238657   2.148   1.057  11.679 -0.0923  2.4318  0.6126
 5748TIP3   OH238658   5.196   5.936  13.919  0.3040  0.3924 -0.2789
 5748TIP3    H138659   5.258   5.993  13.964  2.2019 -1.3679 -0.4872
 5748TIP3    H238660   5.204   5.959  13.826  1.4826 -0.5522 -0.4245
 5749TIP3   OH238661   6.053   4.413   4.415 -0.4782 -0.5690  0.3829
 5749TIP3    H138662   6.037   4.322   4.388 -0.1094 -0.0561 -1.7268
 5749TIP3    H238663   5.969   4.457   4.402 -1.0521 -0.8450  2.7242
 5750TIP3   OH238664   4.486   2.145   3.871 -0.5502  0.5595 -0.4957
 5750TIP3    H138665   4.416   2.105   3.819 -0.0740 -0.2670 -0.5210
 5750TIP3    H238666   4.528   2.071   3.915  1.1078  0.8647 -1.4516
 5751TIP3   OH238667   1.809   0.815   6.700 -0.4683  0.2668  0.2421
 5751TIP3    H138668   1.862   0.750   6.746  0.5460  1.0248  0.1752
 5751TIP3    H238669   1.765   0.765   6.632  0.3246 -0.3587  0.1681
 5752TIP3   OH238670   2.209   5.054   5.041 -1.1627  0.2295 -0.3253
 5752TIP3    H138671   2.126   5.095   5.066 -2.3410 -2.1066 -0.1335
 5752TIP3    H238672   2.221   5.078   4.949 -0.9575  2.2320  0.1684
 5753TIP3   OH238673   2.462   6.719  17.266 -0.0069 -0.3760  0.2698
 5753TIP3    H138674   2.551   6.753  17.274 -0.1134 -0.1336  0.4154
 5753TIP3    H238675   2.416   6.783  17.212 -0.5197  0.2944  1.4826
 5754TIP3   OH238676   4.629   2.362  17.128 -0.6901 -0.0086  0.1117
 5754TIP3    H138677   4.608   2.270  17.108  0.2586 -0.2657  0.1972
 5754TIP3    H238678   4.723   2.368  17.109 -0.2467  0.3466  2.2434
 5755TIP3   OH238679   5.366   6.010  15.405 -0.0298 -0.1309 -0.2681
 5755TIP3    H138680   5.277   5.996  15.436  0.6915 -0.2514  1.9507
 5755TIP3    H238681   5.374   5.955  15.327 -1.8383 -0.2123 -0.4230
 5756TIP3   OH238682   1.487   4.933  11.933  0.2759  0.2032 -0.1263
 5756TIP3    H138683   1.536   4.878  11.873  0.4272  0.4979 -0.2744
 5756TIP3    H238684   1.435   4.990  11.877  0.4828  0.5370  0.0173
 5757TIP3   OH238685   6.433   5.034  14.586  0.1626 -0.2066  0.3890
 5757TIP3    H138686   6.452   5.016  14.493  0.5709 -0.2512  0.4802
 5757TIP3    H238687   6.374   5.109  14.584  1.5457  0.9039  0.1505
 5758TIP3   OH238688   1.192   3.501   4.183 -0.3342  0.3738 -0.1471
 5758TIP3    H138689   1.195   3.469   4.273 -0.8675  1.4194  0.2670
 5758TIP3    H238690   1.122   3.567   4.184 -0.1138  0.6376 -1.2458
 5759TIP3   OH238691   3.175   3.100   2.762 -0.4917  0.1628  0.2719
 5759TIP3    H138692   3.087   3.108   2.798 -0.4204  2.7818  0.0807
 5759TIP3    H238693   3.232   3.100   2.839 -0.6148 -0.7067  0.3663
 5760TIP3   OH238694   1.461   4.073   2.460  0.2352  0.3498 -0.1524
 5760TIP3    H138695   1.548   4.089   2.496  0.7796  0.2826 -1.4008
 5760TIP3    H238696   1.462   4.115   2.374 -1.0054  0.4398 -0.1428
 5761TIP3   OH238697   2.863   5.010   4.114 -0.0588 -0.2052  0.3379
 5761TIP3    H138698   2.946   4.975   4.148  0.0913 -0.5503 -0.3675
 5761TIP3    H238699   2.797   4.978   4.176  0.2305 -0.6666  0.4159
 5762TIP3   OH238700   6.702   3.198  11.457 -0.0628  0.3354  0.3080
 5762TIP3    H138701   6.671   3.262  11.393  2.4556  1.1627 -0.2284
 5762TIP3    H238702   6.756   3.249  11.518 -0.1632 -0.8743  1.4609
 5763TIP3   OH238703   5.877   3.701  15.257 -0.6224 -0.4493 -0.6867
 5763TIP3    H138704   5.919   3.773  15.305 -1.3929 -0.6240  0.2975
 5763TIP3    H238705   5.800   3.741  15.217 -0.9747 -0.6867 -0.2569
 5764TIP3   OH238706   2.339   4.630  15.014  0.1451 -0.0968 -0.1967
 5764TIP3    H138707   2.319   4.723  15.000  0.9378 -0.0955 -1.4180
 5764TIP3    H238708   2.366   4.626  15.106  0.2242  0.9022 -0.1591
 5765TIP3   OH238709   6.460   2.850  16.660 -0.7534 -0.1360 -0.6188
 5765TIP3    H138710   6.442   2.942  16.677 -3.4638 -0.6861  0.0032
 5765TIP3    H238711   6.512   2.821  16.734 -1.2483  0.5449  0.0112
 5766TIP3   OH238712   3.462   3.618   1.620  0.0188 -0.0363  0.5526
 5766TIP3    H138713   3.555   3.597   1.609 -0.4458 -1.5705 -0.7830
 5766TIP3    H238714   3.454   3.709   1.593  1.0953  0.0085  0.3630
 5767TIP3   OH238715   0.386   1.298  10.782 -0.2807 -0.5226 -0.0101
 5767TIP3    H138716   0.353   1.257  10.702 -1.2159 -1.1479  0.6787
 5767TIP3    H238717   0.328   1.372  10.796 -0.3340 -0.6157  0.2669
 5768TIP3   OH238718   0.280   2.932   4.429 -0.2222  0.3842  0.5473
 5768TIP3    H138719   0.203   2.946   4.374 -0.6554  1.2902  1.3589
 5768TIP3    H238720   0.351   2.978   4.384 -0.4352  0.6046  0.4350
 5769TIP3   OH238721   0.017   5.749  14.535  0.5444  0.4004  0.2302
 5769TIP3    H138722   0.030   5.803  14.457 -0.2408  3.1604  1.8761
 5769TIP3    H238723   0.047   5.804  14.608  0.6604 -1.8247  1.9549
 5770TIP3   OH238724   3.447   6.669   3.845 -0.2750  0.0706 -0.2718
 5770TIP3    H138725   3.381   6.671   3.776 -0.6009  2.4968  0.0176
 5770TIP3    H238726   3.531   6.677   3.799 -0.3932  0.1235 -0.4760
 5771TIP3   OH238727   3.405   3.635   2.658 -0.4766  0.1358 -0.0117
 5771TIP3    H138728   3.405   3.703   2.591 -2.7683  1.5202  1.2435
 5771TIP3    H238729   3.453   3.562   2.619  0.7704  1.9060 -1.9911
 5772TIP3   OH238730   2.203   5.962   4.016  0.2009 -0.6315  0.6463
 5772TIP3    H138731   2.258   6.039   3.996 -1.3656  0.6272  1.0056
 5772TIP3    H238732   2.266   5.894   4.038  1.8075 -0.2961 -2.2972
 5773TIP3   OH238733   0.256   1.815   2.666  0.3795 -0.0027 -0.4381
 5773TIP3    H138734   0.237   1.760   2.590 -2.7567 -2.1097  1.6206
 5773TIP3    H238735   0.288   1.754   2.733  3.7945  1.8877 -0.1152
 5774TIP3   OH238736   5.095   3.523   2.329 -0.5252  0.1516  0.3372
 5774TIP3    H138737   5.139   3.477   2.257  0.2912  1.2227  0.1282
 5774TIP3    H238738   5.087   3.457   2.397  0.2870 -0.4149 -0.0929
 5775TIP3   OH238739   2.123   3.923   2.557  0.0042  0.3791 -0.1951
 5775TIP3    H138740   2.137   3.923   2.462 -0.7867 -2.0192 -0.3775
 5775TIP3    H238741   2.211   3.931   2.594  0.5450 -0.6126 -1.1792
 5776TIP3   OH238742   1.390   2.139  15.464  0.7281  0.0932  0.2036
 5776TIP3    H138743   1.447   2.192  15.409  3.7267 -1.1388  1.8383
 5776TIP3    H238744   1.353   2.200  15.527  1.7384  0.6920  0.2321
 5777TIP3   OH238745   2.282   0.407  11.794  0.1906  0.7449 -0.5935
 5777TIP3    H138746   2.196   0.432  11.762 -0.1994  0.0375 -0.1304
 5777TIP3    H238747   2.264   0.350  11.870  1.0596  0.7379 -0.3812
 5778TIP3   OH238748   5.613   3.604   5.140 -0.1940 -0.2510  0.0292
 5778TIP3    H138749   5.590   3.512   5.141 -3.2579  0.4097  0.2380
 5778TIP3    H238750   5.530   3.650   5.125  1.4939  2.4184 -2.3410
 5779TIP3   OH238751   1.849   5.507   2.127  0.2228 -0.2889  0.3459
 5779TIP3    H138752   1.924   5.527   2.182  2.3760 -2.1436 -1.7169
 5779TIP3    H238753   1.877   5.433   2.074 -2.0549  0.7477 -2.5482
 5780TIP3   OH238754   4.537   4.457   1.321  0.2364 -0.1313  0.0305
 5780TIP3    H138755   4.572   4.386   1.375  0.2539 -1.2831 -1.4449
 5780TIP3    H238756   4.467   4.495   1.374  2.7889  1.4457  2.5686
 5781TIP3   OH238757   3.606   0.486   5.503 -0.1180 -0.2715 -0.0063
 5781TIP3    H138758   3.526   0.464   5.551 -1.1101  0.5926 -1.1960
 5781TIP3    H238759   3.602   0.582   5.493  0.1168 -0.4083 -1.6621
 5782TIP3   OH238760   0.604   2.892   5.541  0.1187 -0.7823 -0.5317
 5782TIP3    H138761   0.585   2.951   5.469  0.3092  0.8880  0.7244
 5782TIP3    H238762   0.673   2.834   5.508  1.5292  1.1388 -1.1310
 5783TIP3   OH238763   2.544   0.427  16.814 -0.2246  0.5965 -0.1725
 5783TIP3    H138764   2.606   0.402  16.882 -1.6675 -0.3684  0.8415
 5783TIP3    H238765   2.598   0.467  16.746  1.6503 -1.2379  0.1360
 5784TIP3   OH238766   3.181   2.162   0.741  0.1247  0.3719  0.3198
 5784TIP3    H138767   3.093   2.199   0.736  0.2112  0.6233  0.6327
 5784TIP3    H238768   3.221   2.206   0.815  0.7688  0.7954 -0.2751
 5785TIP3   OH238769   4.648   3.898  14.008 -0.1722  0.3515  0.0382
 5785TIP3    H138770   4.692   3.964  13.954  0.1084 -0.0669 -0.2475
 5785TIP3    H238771   4.556   3.904  13.983 -0.3596  1.4751  0.8895
 5786TIP3   OH238772   2.308   1.114   5.544  0.0376 -0.1335  0.1181
 5786TIP3    H138773   2.226   1.064   5.545 -0.8767  0.9495 -3.6092
 5786TIP3    H238774   2.376   1.047   5.538 -0.9550 -1.0929 -1.5463
 5787TIP3   OH238775   6.558   1.418   0.396 -0.4550  0.3738  0.6632
 5787TIP3    H138776   6.572   1.450   0.485 -2.3477  0.5163  0.9361
 5787TIP3    H238777   6.534   1.495   0.346  0.1192  0.2125  0.1296
 5788TIP3   OH238778   1.704   4.203  13.681  0.0207 -0.3139 -0.2209
 5788TIP3    H138779   1.654   4.269  13.633  0.9426  0.0149 -0.7498
 5788TIP3    H238780   1.687   4.121  13.635  1.9084  0.1983 -1.9591
 5789TIP3   OH238781   2.762   1.004  16.963 -0.0545  0.4004 -0.4801
 5789TIP3    H138782   2.795   0.919  16.935  0.0497  0.7697 -1.5063
 5789TIP3    H238783   2.825   1.067  16.928  0.7059  0.8405  1.5201
 5790TIP3   OH238784   0.059   4.604  12.385  0.0320  0.2077 -0.3741
 5790TIP3    H138785   0.100   4.654  12.456  2.2913 -1.3694 -0.4752
 5790TIP3    H238786   0.069   4.659  12.308 -0.5489  1.0270  0.1200
 5791TIP3   OH238787   6.572   4.877   6.334 -0.2367  0.4484 -0.1271
 5791TIP3    H138788   6.490   4.924   6.322 -1.9696 -1.8890  1.5516
 5791TIP3    H238789   6.613   4.919   6.409 -0.7497  0.6123  0.0697
 5792TIP3   OH238790   6.265   1.777  16.101  0.0567  0.0905  0.0584
 5792TIP3    H138791   6.179   1.751  16.135 -1.0336  1.3448 -1.6026
 5792TIP3    H238792   6.275   1.868  16.128  1.0894 -0.1776  0.6155
 5793TIP3   OH238793   4.408   2.915  15.842  0.2875 -0.0127 -0.3994
 5793TIP3    H138794   4.453   2.866  15.911  2.7728  0.7105 -1.3894
 5793TIP3    H238795   4.353   2.977  15.889  1.6939  0.2602  0.9581
 5794TIP3   OH238796   4.514   6.225  16.063 -0.0078  0.4527 -0.1219
 5794TIP3    H138797   4.552   6.239  15.976  1.3882 -1.0306  0.2058
 5794TIP3    H238798   4.561   6.287  16.119  0.3020  0.2240 -0.1261
 5795TIP3   OH238799   2.250   5.799   2.800  0.1915 -0.2765 -0.0429
 5795TIP3    H138800   2.261   5.748   2.880  1.8659 -0.7000 -0.5040
 5795TIP3    H238801   2.241   5.890   2.830  0.4040 -0.4744  0.6356
 5796TIP3   OH238802   1.523   3.188  15.300  0.5516 -0.5517  0.7276
 5796TIP3    H138803   1.550   3.167  15.390  0.3761 -0.6430  0.7600
 5796TIP3    H238804   1.587   3.143  15.245  2.2589  1.6212  0.8034
 5797TIP3   OH238805   6.021   6.209   5.167  0.3058  0.0204  0.1179
 5797TIP3    H138806   6.011   6.237   5.076 -0.6061 -0.1761  0.1551
 5797TIP3    H238807   6.057   6.286   5.211  0.2239  0.2998 -0.2914
 5798TIP3   OH238808   2.465   0.255  17.252 -0.3032 -0.6835  0.1834
 5798TIP3    H138809   2.396   0.276  17.190 -0.3674 -0.5022  0.3142
 5798TIP3    H238810   2.427   0.188  17.309 -0.0726 -1.2186 -0.2801
 5799TIP3   OH238811   2.868   0.858  11.887 -0.0400 -0.3772 -0.0754
 5799TIP3    H138812   2.824   0.801  11.823  1.1461 -0.0334 -1.2591
 5799TIP3    H238813   2.818   0.847  11.968 -1.6215 -0.8218 -1.0573
 5800TIP3   OH238814   2.919   6.500   6.491 -0.1596 -0.0316  0.0569
 5800TIP3    H138815   2.907   6.407   6.470 -0.6867  0.0086  0.1717
 5800TIP3    H238816   2.831   6.532   6.511 -0.2451  0.8808 -1.5703
 5801TIP3   OH238817   4.552   0.357  10.543  0.0864 -0.2936 -0.0220
 5801TIP3    H138818   4.511   0.443  10.539 -0.2475 -0.4678 -0.5655
 5801TIP3    H238819   4.642   0.374  10.571 -0.3927  0.0719  1.3632
 5802TIP3   OH238820   5.675   0.598   5.918 -0.2580  0.3070 -0.0489
 5802TIP3    H138821   5.582   0.613   5.934 -0.3307 -0.0832 -0.0916
 5802TIP3    H238822   5.719   0.646   5.989 -0.3760  2.4554 -1.3466
 5803TIP3   OH238823   0.855   0.088   2.702  0.3201  0.0022 -0.6547
 5803TIP3    H138824   0.927   0.151   2.696  0.8237 -0.2674  1.7573
 5803TIP3    H238825   0.876   0.022   2.636  0.7634  1.3426 -1.9262
 5804TIP3   OH238826   3.467   5.722   0.690 -0.6542  0.4688 -0.3732
 5804TIP3    H138827   3.410   5.677   0.753  0.4044  0.1405  0.3859
 5804TIP3    H238828   3.443   5.684   0.605 -1.1290 -0.1244  0.0152
 5805TIP3   OH238829   1.871   0.914   6.202 -0.3423  0.7718 -0.4509
 5805TIP3    H138830   1.780   0.910   6.233 -0.2955  0.1609 -0.3861
 5805TIP3    H238831   1.880   0.838   6.144  0.8211 -0.5904  1.3988
 5806TIP3   OH238832   0.262   5.791   4.887  0.5831  0.4509 -0.2388
 5806TIP3    H138833   0.273   5.781   4.981  2.8112  1.1712 -0.3737
 5806TIP3    H238834   0.334   5.848   4.860 -0.6212  1.1410 -2.2363
 5807TIP3   OH238835   1.065   3.745   2.424  0.1058 -0.0463  0.3383
 5807TIP3    H138836   1.120   3.822   2.440  1.6239 -0.7191 -1.3218
 5807TIP3    H238837   1.005   3.743   2.499  2.2568  0.7968  2.2185
 5808TIP3   OH238838   0.815   0.941  14.899 -0.2289 -0.0898 -0.4516
 5808TIP3    H138839   0.909   0.958  14.909 -0.3316  1.5479 -1.7971
 5808TIP3    H238840   0.810   0.883  14.823 -0.3407  0.2534 -0.7043
 5809TIP3   OH238841   0.021   2.004   6.222  0.5939 -0.0791 -0.1216
 5809TIP3    H138842   0.002   2.030   6.132 -0.4343 -2.2172 -0.5892
 5809TIP3    H238843  -0.055   2.034   6.272  0.8762  0.5496 -0.0530
 5810TIP3   OH238844   0.892   5.767  12.550  0.0811 -0.0116 -0.3057
 5810TIP3    H138845   0.853   5.685  12.581 -0.3367 -0.1359 -1.1459
 5810TIP3    H238846   0.818   5.821  12.525  0.2756  1.1483  1.4330
 5811TIP3   OH238847   1.192   6.532   4.346 -0.1941 -1.0598 -0.1671
 5811TIP3    H138848   1.111   6.493   4.379 -1.3035  0.4731 -0.9473
 5811TIP3    H238849   1.229   6.465   4.289 -0.7315 -1.9005  0.4427
 5812TIP3   OH238850   2.044   1.336   5.960 -0.6474  0.7537 -0.6553
 5812TIP3    H138851   2.105   1.329   6.034 -0.3887  0.8207 -0.8631
 5812TIP3    H238852   1.958   1.330   6.000 -0.5152  1.1609 -0.3072
 5813TIP3   OH238853   3.727   2.821   5.690 -0.1729 -0.2443 -0.3026
 5813TIP3    H138854   3.683   2.751   5.739  1.8653 -0.7622  0.9101
 5813TIP3    H238855   3.667   2.841   5.618 -2.5853 -0.5518  1.4700
 5814TIP3   OH238856   6.665   6.105   6.220 -0.1978 -0.3403 -0.1669
 5814TIP3    H138857   6.618   6.104   6.137  2.0012  0.0509 -1.5126
 5814TIP3    H238858   6.641   6.188   6.261  0.3502  0.5039 -1.4895
 5815TIP3   OH238859   0.174   2.537  11.656  0.3726 -0.6902  0.0184
 5815TIP3    H138860   0.099   2.587  11.689  0.7503 -0.2356  0.2066
 5815TIP3    H238861   0.158   2.530  11.562  0.6828  0.4420 -0.1319
 5816TIP3   OH238862   5.039   1.081   2.537  0.3474  0.4689  1.4077
 5816TIP3    H138863   5.045   1.067   2.443  1.8010  0.8438  1.4258
 5816TIP3    H238864   5.029   1.175   2.547 -0.0163  0.4090  1.6262
 5817TIP3   OH238865   1.436   5.080   2.646 -0.0200 -0.2676  0.5832
 5817TIP3    H138866   1.423   4.986   2.631  0.2315 -0.1377 -0.5920
 5817TIP3    H238867   1.371   5.103   2.713  1.8285 -1.8225  3.0874
 5818TIP3   OH238868   3.761   4.751   2.742 -0.3149 -0.0310  0.0709
 5818TIP3    H138869   3.774   4.834   2.696 -1.4810  0.1869  0.0944
 5818TIP3    H238870   3.844   4.734   2.786  0.0023  1.0232 -0.1005
 5819TIP3   OH238871   5.324   2.829   0.682 -0.2269  0.1267 -0.7758
 5819TIP3    H138872   5.323   2.904   0.743 -2.2881  0.6582 -1.3876
 5819TIP3    H238873   5.361   2.864   0.602 -0.7543  0.3856 -0.9121
 5820TIP3   OH238874   5.963   6.214  11.377  0.2996  0.0505 -0.0330
 5820TIP3    H138875   5.890   6.273  11.358  0.5158  0.5848  0.7477
 5820TIP3    H238876   5.967   6.155  11.301 -0.7287  0.2229 -0.2342
 5821TIP3   OH238877   4.946   5.419   5.249 -0.1740  0.0945 -0.4265
 5821TIP3    H138878   4.947   5.436   5.155  1.8274 -0.3582 -0.5280
 5821TIP3    H238879   4.895   5.339   5.258  0.3010 -0.3166 -1.2370
 5822TIP3   OH238880   6.343   0.662  10.900 -0.4015 -0.2378  0.0601
 5822TIP3    H138881   6.330   0.567  10.905  1.8910 -0.6570 -0.7768
 5822TIP3    H238882   6.377   0.685  10.987 -0.1152 -0.3506 -0.0201
 5823TIP3   OH238883   3.967   1.162  13.205 -0.0342  0.0433 -0.0330
 5823TIP3    H138884   3.878   1.197  13.215  0.0732  0.2447  0.2282
 5823TIP3    H238885   3.992   1.184  13.116  0.6929  2.1723  0.6390
 5824TIP3   OH238886   0.755   6.084   1.777 -0.5455 -0.5908 -0.1241
 5824TIP3    H138887   0.765   5.997   1.739 -0.0358 -0.5459 -0.0962
 5824TIP3    H238888   0.765   6.070   1.871  2.7193 -0.0843 -0.2990
 5825TIP3   OH238889   3.269   4.972  16.212 -0.4897 -0.4181 -0.0229
 5825TIP3    H138890   3.334   4.928  16.266  0.1675  0.2995 -0.2070
 5825TIP3    H238891   3.184   4.940  16.245 -0.0771 -0.6591  0.8418
 5826TIP3   OH238892   0.444   5.439   4.358  0.1211 -0.0725 -0.0894
 5826TIP3    H138893   0.458   5.516   4.302 -2.8364  0.3292 -0.4122
 5826TIP3    H238894   0.357   5.406   4.333 -0.1153 -1.5515  2.3693
 5827TIP3   OH238895   6.343   5.668  13.721  0.0067  0.1949 -0.1319
 5827TIP3    H138896   6.285   5.605  13.764  0.6893  0.5863  1.4004
 5827TIP3    H238897   6.412   5.615  13.683 -1.0403 -0.2315 -1.5443
 5828TIP3   OH238898   4.201   4.985  12.362  0.0643  0.9634 -0.3575
 5828TIP3    H138899   4.163   5.063  12.321  0.0500  1.3201  0.3168
 5828TIP3    H238900   4.195   5.003  12.456  0.4899  0.3481 -0.2121
 5829TIP3   OH238901   4.960   3.559  14.714  0.2735 -1.0392  0.2045
 5829TIP3    H138902   5.009   3.517  14.643 -0.0525 -1.2820  0.1199
 5829TIP3    H238903   4.984   3.652  14.708  0.4136 -1.0926 -0.0860
 5830TIP3   OH238904   1.595   4.704  16.896  0.0092 -0.2124 -0.2136
 5830TIP3    H138905   1.683   4.678  16.868 -0.6672 -1.8458 -0.9636
 5830TIP3    H238906   1.609   4.745  16.981  1.5327 -0.2008 -0.4344
 5831TIP3   OH238907   3.793   1.101  14.434  0.1689 -0.3384  0.0541
 5831TIP3    H138908   3.740   1.071  14.361 -0.0781  1.6774 -0.6692
 5831TIP3    H238909   3.883   1.085  14.406  0.0196 -2.4894  0.6962
 5832TIP3   OH238910   3.331   5.286   5.519  0.2915  0.2973 -0.0992
 5832TIP3    H138911   3.368   5.370   5.544 -0.5800  0.3961  0.9512
 5832TIP3    H238912   3.359   5.226   5.588 -1.8666  0.4977  1.0375
 5833TIP3   OH238913   2.619   1.633   4.111 -0.0361 -0.1632  0.3771
 5833TIP3    H138914   2.566   1.621   4.190  0.5815  0.6821  0.9198
 5833TIP3    H238915   2.640   1.726   4.109  0.2395 -0.2344 -0.6083
 5834TIP3   OH238916   1.682   0.954  16.164  0.7310 -0.0084 -0.1720
 5834TIP3    H138917   1.632   1.007  16.226 -0.3611  0.7616 -1.6130
 5834TIP3    H238918   1.682   1.006  16.083 -0.4693 -2.2027 -1.7005
 5835TIP3   OH238919   0.794   5.044  16.809  0.5612 -0.2248  0.2071
 5835TIP3    H138920   0.749   4.960  16.821 -0.3381  0.3035  0.6115
 5835TIP3    H238921   0.850   5.030  16.733 -1.4302 -0.4470 -1.3027
 5836TIP3   OH238922   6.127   1.191   5.547  0.0642  0.0960  0.0709
 5836TIP3    H138923   6.056   1.139   5.508 -0.3397  0.7120 -0.0202
 5836TIP3    H238924   6.180   1.126   5.594 -0.0052 -0.5101 -0.6585
 5837TIP3   OH238925   0.761   6.301   1.586  0.2629 -1.1103  0.2702
 5837TIP3    H138926   0.840   6.340   1.622 -0.9820  0.1311  1.7941
 5837TIP3    H238927   0.722   6.254   1.660 -1.1053 -0.5571 -0.0731
 5838TIP3   OH238928   0.325   6.654  13.684 -0.2291  0.3683  0.7218
 5838TIP3    H138929   0.259   6.655  13.754 -1.5539 -0.4783 -0.4609
 5838TIP3    H238930   0.274   6.662  13.603  1.0730 -0.7118 -0.2455
 5839TIP3   OH238931   3.356   4.833  15.954 -0.2738  0.2062 -0.1535
 5839TIP3    H138932   3.308   4.901  16.001  0.5953  0.1466  0.8480
 5839TIP3    H238933   3.447   4.862  15.956  0.5210 -2.1394  2.4843
 5840TIP3   OH238934   5.625   5.830   3.586  0.6238 -0.5800 -0.4315
 5840TIP3    H138935   5.641   5.756   3.645  1.5147  1.2923  1.8700
 5840TIP3    H238936   5.548   5.873   3.623  0.6420  0.1350 -1.2120
 5841TIP3   OH238937   1.024   2.719  13.223  0.4717  0.4207  0.4819
 5841TIP3    H138938   1.045   2.700  13.315  1.0835 -0.2431  0.2180
 5841TIP3    H238939   1.094   2.677  13.174 -0.7548 -0.7066 -0.3827
 5842TIP3   OH238940   3.736   6.762   1.953 -0.1299  0.4044  0.3354
 5842TIP3    H138941   3.790   6.738   1.877  0.9873  2.4649  0.3910
 5842TIP3    H238942   3.663   6.700   1.951  0.9543 -0.9194 -1.1981
 5843TIP3   OH238943   2.638   0.484  15.932  0.1015  0.0994  0.4551
 5843TIP3    H138944   2.616   0.576  15.919 -2.0353 -0.6099 -1.6299
 5843TIP3    H238945   2.704   0.466  15.865  0.8625  0.1517  1.1579
 5844TIP3   OH238946   3.384   1.090   2.851  0.4054  0.2315  0.3080
 5844TIP3    H138947   3.360   1.052   2.766  0.1196  1.2323 -0.0710
 5844TIP3    H238948   3.468   1.133   2.834 -0.9414  2.8008 -0.2135
 5845TIP3   OH238949   5.973   2.918   3.824 -0.4529  0.3173 -0.4848
 5845TIP3    H138950   6.042   2.853   3.836  0.0043  0.7553 -0.6947
 5845TIP3    H238951   5.921   2.912   3.903 -0.4043 -0.2898 -0.4916
 5846TIP3   OH238952   5.757   4.247   1.236 -0.0145  0.1380 -0.1110
 5846TIP3    H138953   5.790   4.324   1.283 -0.7818  0.0004  0.6678
 5846TIP3    H238954   5.683   4.281   1.186 -0.7035 -0.2004  0.6692
 5847TIP3   OH238955   3.174   2.138   3.975 -0.2396  0.1618 -0.5571
 5847TIP3    H138956   3.097   2.193   3.989 -0.0308  0.1908  0.5131
 5847TIP3    H238957   3.161   2.062   4.031  1.2162  0.9016  0.8657
 5848TIP3   OH238958   2.569   0.288   0.368 -0.3577 -0.1217  0.5251
 5848TIP3    H138959   2.525   0.205   0.387 -0.7285 -0.2457 -0.8066
 5848TIP3    H238960   2.586   0.286   0.274 -0.6764  1.4464  0.4037
 5849TIP3   OH238961   3.151   2.514   5.055 -0.3033  0.0802 -0.4255
 5849TIP3    H138962   3.116   2.505   5.144  0.0598  0.8157 -0.2021
 5849TIP3    H238963   3.239   2.475   5.060 -0.2697  0.1525 -0.4518
 5850TIP3   OH238964   3.363   0.905  14.178 -0.2152  0.2110  0.4921
 5850TIP3    H138965   3.277   0.894  14.219 -1.0839  1.5473 -0.8622
 5850TIP3    H238966   3.352   0.868  14.090  0.7092  0.0715  0.4251
 5851TIP3   OH238967   2.124   6.624  11.382  0.2927 -0.0702 -0.3669
 5851TIP3    H138968   2.096   6.701  11.333  0.0431 -0.6418 -1.1453
 5851TIP3    H238969   2.089   6.637  11.470  1.5150  1.4010 -0.0609
 5852TIP3   OH238970   6.025   4.709   4.211  0.0571  0.4145 -0.0945
 5852TIP3    H138971   6.070   4.751   4.284 -0.5036 -1.7925  1.6480
 5852TIP3    H238972   6.052   4.617   4.216 -2.3947 -0.4200 -0.7398
 5853TIP3   OH238973   5.145   1.011  13.435 -0.2891 -0.2037  0.9001
 5853TIP3    H138974   5.202   0.991  13.360 -1.4698 -2.1063  0.4662
 5853TIP3    H238975   5.206   1.038  13.504  0.9751 -0.2894 -0.1398
 5854TIP3   OH238976   5.249   6.463  11.125  0.0497 -0.2078  0.1719
 5854TIP3    H138977   5.344   6.459  11.128  0.0060 -0.9646  1.1466
 5854TIP3    H238978   5.221   6.372  11.138 -0.8083  0.0578  0.2658
 5855TIP3   OH238979   0.829   0.812  11.403 -0.4398  0.3363  0.4611
 5855TIP3    H138980   0.905   0.857  11.439  0.0035 -0.5938  0.7135
 5855TIP3    H238981   0.760   0.878  11.402  0.5882  1.4503 -0.5763
 5856TIP3   OH238982   5.454   6.417  14.608 -0.0452 -0.5059  0.7298
 5856TIP3    H138983   5.465   6.325  14.586 -0.8508 -0.7404  1.2848
 5856TIP3    H238984   5.473   6.422  14.702  1.4002  0.1504  0.4382
 5857TIP3   OH238985   0.559   4.639  14.906 -0.5529 -0.0141  0.1078
 5857TIP3    H138986   0.512   4.638  14.822  0.0287 -0.1822 -0.2253
 5857TIP3    H238987   0.508   4.697  14.962 -2.1483 -1.5346  0.3381
 5858TIP3   OH238988   1.739   3.845   6.422  0.2414 -0.0655  0.6553
 5858TIP3    H138989   1.698   3.892   6.494 -0.9544 -0.0425 -0.0096
 5858TIP3    H238990   1.669   3.790   6.386  1.4271 -1.8964  1.0139
 5859TIP3   OH238991   3.389   6.421  17.081  0.0231  0.0483  0.1115
 5859TIP3    H138992   3.335   6.344  17.100  0.0766  0.3240  1.5016
 5859TIP3    H238993   3.327   6.493  17.070  0.0627  0.2322  1.0346
 5860TIP3   OH238994   5.430   2.056  15.332  0.2914 -0.3493  0.1813
 5860TIP3    H138995   5.453   2.102  15.251 -0.0519  0.1412  0.3525
 5860TIP3    H238996   5.498   1.991  15.343 -0.6136 -1.6623 -1.4694
 5861TIP3   OH238997   5.207   6.172  11.450  0.5863  0.1604  0.0718
 5861TIP3    H138998   5.217   6.266  11.443  0.2838  0.1560 -0.4681
 5861TIP3    H238999   5.242   6.150  11.536  1.1948  0.6871 -0.0393
 5862TIP3   OH239000   6.597   2.703   1.644 -0.2263 -0.3209  0.0703
 5862TIP3    H139001   6.556   2.617   1.638  2.9714 -1.9013 -2.2808
 5862TIP3    H239002   6.574   2.747   1.562 -0.8310  0.5982  0.7145
 5863TIP3   OH239003   5.375   5.253   0.134 -0.0215 -0.5282  0.0372
 5863TIP3    H139004   5.306   5.203   0.089  1.3354  0.2052 -3.1216
 5863TIP3    H239005   5.367   5.342   0.098  0.9646  0.2227  1.5813
 5864TIP3   OH239006   1.625   0.668   1.754 -0.4673  0.0624 -0.1603
 5864TIP3    H139007   1.628   0.658   1.659  1.5528  0.6055 -0.1932
 5864TIP3    H239008   1.716   0.660   1.783 -1.0272 -0.0735  1.7368
 5865TIP3   OH239009   0.145   4.616  16.661 -0.6245 -0.2306  0.1265
 5865TIP3    H139010   0.203   4.570  16.600  1.5158  1.4739  0.7746
 5865TIP3    H239011   0.103   4.683  16.607 -1.8761 -1.3158 -0.2914
 5866TIP3   OH239012   5.284   5.938  16.091  0.6146 -0.2663 -0.5497
 5866TIP3    H139013   5.347   5.942  16.163 -0.8144  0.2100  0.7512
 5866TIP3    H239014   5.199   5.944  16.134 -0.2893  0.7714 -2.3568
 5867TIP3   OH239015   2.166   5.457   1.799 -0.1556 -0.0557 -0.2162
 5867TIP3    H139016   2.177   5.362   1.801  2.3699  0.1021 -1.5725
 5867TIP3    H239017   2.186   5.482   1.709  2.4443  1.9870  0.7765
 5868TIP3   OH239018   0.209   5.186  15.883  0.2859  0.1032 -0.2913
 5868TIP3    H139019   0.148   5.130  15.932 -0.5275 -0.0051 -1.3997
 5868TIP3    H239020   0.252   5.238  15.951 -0.8892  0.0363  0.5516
 5869TIP3   OH239021   5.047   2.744   0.718 -0.0893 -0.1295  0.2868
 5869TIP3    H139022   5.134   2.760   0.682 -0.5804  1.5906 -0.2174
 5869TIP3    H239023   5.044   2.649   0.731  1.4588 -0.3590 -0.7218
 5870TIP3   OH239024   3.661   0.089  14.589 -0.3972 -0.2376  0.2826
 5870TIP3    H139025   3.639   0.112  14.499  1.2486 -1.2460 -0.4351
 5870TIP3    H239026   3.754   0.110  14.597 -0.4269 -0.4897  1.6459
 5871TIP3   OH239027   4.083   6.706  10.395  0.2592  0.1971 -0.3245
 5871TIP3    H139028   4.021   6.667  10.456 -0.4072  1.2046 -0.3317
 5871TIP3    H239029   4.098   6.638  10.329  1.6156 -1.2194  1.3293
 5872TIP3   OH239030   4.804   6.456   1.910  0.1398  0.0803 -0.4101
 5872TIP3    H139031   4.896   6.429   1.908 -0.5053 -2.4455  0.5832
 5872TIP3    H239032   4.801   6.522   1.980  1.1137 -0.1706 -0.1057
 5873TIP3   OH239033   1.199   4.913   4.597  0.3106  0.0171 -0.0672
 5873TIP3    H139034   1.150   4.989   4.630  0.6652  0.1141  0.2454
 5873TIP3    H239035   1.249   4.948   4.524 -0.4760 -0.1977 -0.7170
 5874TIP3   OH239036   3.313   2.954  13.459 -0.1499 -0.0004  0.0700
 5874TIP3    H139037   3.382   2.957  13.525  1.6016  1.2133 -1.7136
 5874TIP3    H239038   3.333   2.877  13.406 -0.5009  0.0420 -0.1271
 5875TIP3   OH239039   2.354   4.115  16.271  0.3533  0.2446 -0.3314
 5875TIP3    H139040   2.430   4.100  16.215  0.0609 -0.8464 -0.4605
 5875TIP3    H239041   2.333   4.207  16.258  0.0689 -0.0569 -2.3185
 5876TIP3   OH239042   5.926   0.152  17.059 -0.1515  0.4472  0.2176
 5876TIP3    H139043   5.977   0.071  17.052 -1.1864 -0.3025  1.0420
 5876TIP3    H239044   5.988   0.216  17.096  0.4800 -0.1566  0.2223
 5877TIP3   OH239045   6.362   5.279  13.315 -0.1649  0.0474 -0.0284
 5877TIP3    H139046   6.280   5.243  13.348  0.1938 -1.1145 -0.3531
 5877TIP3    H239047   6.430   5.240  13.370  0.2827 -0.2983 -0.8029
 5878TIP3   OH239048   2.104   6.093  14.636  0.2354 -0.1605 -0.0924
 5878TIP3    H139049   2.079   6.098  14.728 -1.7073  1.0891 -0.6410
 5878TIP3    H239050   2.021   6.092  14.588  1.2086  0.9172 -1.8991
 5879TIP3   OH239051   4.384   6.746   4.632 -0.2887 -0.4705 -0.1866
 5879TIP3    H139052   4.395   6.803   4.555 -2.4947  0.1019 -0.1554
 5879TIP3    H239053   4.393   6.805   4.707  1.2015 -0.9075  0.0047
 5880TIP3   OH239054   6.002   5.119   3.612  0.2768  0.6697  0.5572
 5880TIP3    H139055   5.941   5.050   3.640 -0.2626  1.5863  1.7160
 5880TIP3    H239056   5.947   5.196   3.601  1.4197  2.2025  3.9995
 5881TIP3   OH239057   6.719   0.066   4.549 -0.1382 -0.2234  0.1755
 5881TIP3    H139058   6.643   0.089   4.603 -1.2909 -1.6102 -0.7882
 5881TIP3    H239059   6.682   0.026   4.471  1.5458  0.6589 -1.1450
 5882TIP3   OH239060   3.845   6.737   4.157  0.1933 -0.2400  0.0066
 5882TIP3    H139061   3.783   6.762   4.226 -0.7127 -0.8500 -0.5567
 5882TIP3    H239062   3.884   6.656   4.188  1.4895  0.6661  0.8240
 5883TIP3   OH239063   0.781   1.193  13.074  0.8563 -0.8487 -0.2391
 5883TIP3    H139064   0.744   1.126  13.017 -0.4841  0.3951 -0.8973
 5883TIP3    H239065   0.714   1.206  13.141  1.4689 -0.7441  0.3646
 5884TIP3   OH239066   1.053   2.715  12.570  0.3288  0.2804 -0.6492
 5884TIP3    H139067   1.031   2.667  12.490  1.8297  0.0313 -0.9453
 5884TIP3    H239068   0.972   2.716  12.620  0.4336 -3.5496 -0.0876
 5885TIP3   OH239069   4.734   5.873   6.238 -0.1105 -0.5057  0.0261
 5885TIP3    H139070   4.662   5.932   6.260  0.4934 -0.6876  2.7183
 5885TIP3    H239071   4.809   5.931   6.223  0.6858 -0.4697  3.4533
 5886TIP3   OH239072   4.464   5.385   5.460 -0.3373 -0.2068 -0.4876
 5886TIP3    H139073   4.490   5.377   5.551 -1.4488 -0.9134 -0.2202
 5886TIP3    H239074   4.475   5.479   5.440 -0.4430  0.0158  0.4754
 5887TIP3   OH239075   3.428   6.634  13.313 -0.1543  0.2430 -0.1787
 5887TIP3    H139076   3.409   6.698  13.382 -0.0246  1.6048 -1.3451
 5887TIP3    H239077   3.405   6.679  13.232 -0.8027 -1.5125 -1.0124
 5888TIP3   OH239078   0.364   5.701   6.316  0.4382  0.6552  0.0825
 5888TIP3    H139079   0.435   5.649   6.353 -1.2717 -2.4441 -0.6720
 5888TIP3    H239080   0.392   5.721   6.227  0.2981 -0.8427 -0.3233
 5889TIP3   OH239081   1.649   3.511   4.113  0.1447  0.0118 -0.5692
 5889TIP3    H139082   1.579   3.453   4.084 -0.0789 -0.6777  1.1815
 5889TIP3    H239083   1.725   3.454   4.121  0.2203  0.1932  0.0517
 5890TIP3   OH239084   6.361   0.268   5.063  0.0338 -0.1284 -0.0119
 5890TIP3    H139085   6.434   0.284   5.123 -0.6646 -1.3686  1.2318
 5890TIP3    H239086   6.357   0.173   5.053 -0.6059 -0.0132 -1.1046
 5891TIP3   OH239087   5.314   4.646   2.821  0.0546  0.0456  0.1924
 5891TIP3    H139088   5.235   4.599   2.793  1.5367 -1.6370 -1.4348
 5891TIP3    H239089   5.380   4.577   2.831  1.1376  1.2859  2.4078
 5892TIP3   OH239090   1.150   3.380   3.344  0.1999 -0.5364  0.2452
 5892TIP3    H139091   1.210   3.435   3.292 -1.7923 -0.2587 -1.9047
 5892TIP3    H239092   1.143   3.426   3.427  3.3325 -0.8722  0.8466
 5893TIP3   OH239093   2.251   0.176  16.507 -0.0008 -0.9874 -0.5140
 5893TIP3    H139094   2.328   0.174  16.449 -0.1542  0.9135 -0.8367
 5893TIP3    H239095   2.196   0.104  16.475  2.4086 -3.7115  0.9370
 5894TIP3   OH239096   4.593   6.728  13.032  0.2942 -0.1054 -0.0072
 5894TIP3    H139097   4.497   6.729  13.035  0.2100 -0.7571 -1.7168
 5894TIP3    H239098   4.617   6.817  13.006  0.1026 -0.2414 -0.6490
 5895TIP3   OH239099   5.351   2.571  13.033 -0.1333  0.5924  0.3614
 5895TIP3    H139100   5.321   2.542  13.119 -0.3591 -2.0293 -0.5161
 5895TIP3    H239101   5.280   2.628  13.002 -0.5084  0.7706  1.4768
 5896TIP3   OH239102   3.887   0.754  11.983 -0.1183 -0.0460  0.5163
 5896TIP3    H139103   3.968   0.716  12.016  2.2291  2.8715 -1.3558
 5896TIP3    H239104   3.859   0.815  12.052  1.4775  1.6741 -0.2580
 5897TIP3   OH239105   6.262   0.150   2.871 -0.5868 -0.2447 -0.3528
 5897TIP3    H139106   6.318   0.137   2.948 -1.0668 -0.2178  0.0060
 5897TIP3    H239107   6.216   0.066   2.861  0.6574 -0.8175 -1.5889
 5898TIP3   OH239108   4.730   3.629   0.413 -0.1176  0.1586 -0.2907
 5898TIP3    H139109   4.802   3.677   0.454 -1.2604  2.2884 -0.6632
 5898TIP3    H239110   4.670   3.609   0.484 -0.2265  0.3561 -0.3281
 5899TIP3   OH239111   6.459   0.997   2.898  0.3085 -0.7849 -0.1028
 5899TIP3    H139112   6.550   0.971   2.913  0.5537 -1.0211 -1.7183
 5899TIP3    H239113   6.464   1.059   2.825 -0.4964  2.2076  2.2075
 5900TIP3   OH239114   4.824   2.110  11.825  0.0545 -0.7322  0.2182
 5900TIP3    H139115   4.894   2.110  11.760 -1.5938 -1.3940 -1.6566
 5900TIP3    H239116   4.851   2.045  11.890  0.9082 -1.4502 -0.8212
 5901TIP3   OH239117   6.452   3.717   5.151  0.3669  0.5831  0.3084
 5901TIP3    H139118   6.361   3.704   5.123  0.8657  0.9681 -1.5933
 5901TIP3    H239119   6.454   3.805   5.187  0.4465  1.5330 -1.8638
 5902TIP3   OH239120   5.777   0.011   1.307  0.0611 -0.8755 -0.5255
 5902TIP3    H139121   5.767  -0.076   1.267  0.2939 -1.1872  0.0645
 5902TIP3    H239122   5.828   0.061   1.244 -0.1692 -1.1383 -0.9230
 5903TIP3   OH239123   6.721   0.305  13.271 -0.2837 -0.3660 -0.8584
 5903TIP3    H139124   6.724   0.390  13.314  0.7713 -0.4652 -0.6980
 5903TIP3    H239125   6.749   0.243  13.339 -0.1531 -0.7265 -1.2361
 5904TIP3   OH239126   3.929   2.833  11.616 -0.2402  0.0340  0.4244
 5904TIP3    H139127   3.860   2.798  11.671 -0.7832 -0.0473 -0.2958
 5904TIP3    H239128   3.972   2.756  11.579  0.2394  0.0839  0.8696
 5905TIP3   OH239129   5.778   3.802   2.068  0.3774  0.6584 -0.2587
 5905TIP3    H139130   5.788   3.854   1.989  1.4244  1.8342  0.6102
 5905TIP3    H239131   5.719   3.730   2.042  0.2215  1.3364 -1.9175
 5906TIP3   OH239132   5.273   4.148   3.498  0.0267 -0.0657  0.1092
 5906TIP3    H139133   5.283   4.062   3.457 -1.2674 -0.9953  1.6399
 5906TIP3    H239134   5.196   4.140   3.554  0.3183  1.8681  0.8891
 5907TIP3   OH239135   2.594   5.532   5.221 -0.0780 -0.0959  0.6043
 5907TIP3    H139136   2.503   5.545   5.247  0.1726  0.3728  1.2852
 5907TIP3    H239137   2.609   5.597   5.153 -0.5602 -0.9087 -0.2950
 5908TIP3   OH239138   3.437   2.342   5.476 -0.1971  0.0373 -0.2514
 5908TIP3    H139139   3.487   2.278   5.527 -1.9398 -0.7459  0.5344
 5908TIP3    H239140   3.352   2.346   5.519 -1.8317 -0.7541 -3.1449
 5909TIP3   OH239141   2.932   4.276   1.946 -0.0537  0.3618  0.1617
 5909TIP3    H139142   2.918   4.280   2.041  0.7816  1.0968  0.2705
 5909TIP3    H239143   2.860   4.327   1.910 -0.5052 -0.1077  0.3755
 5910TIP3   OH239144   5.843   1.688  14.988  0.3245 -0.3242  0.0857
 5910TIP3    H139145   5.844   1.766  14.933  2.1168 -0.6682 -0.4456
 5910TIP3    H239146   5.871   1.617  14.930 -1.2308 -1.3682  0.5749
 5911TIP3   OH239147   5.042   4.898  15.975 -0.0388 -0.0339  0.1726
 5911TIP3    H139148   4.961   4.941  15.947  0.8352  1.3446 -0.3269
 5911TIP3    H239149   5.034   4.809  15.942 -1.2521  0.1318 -0.0535
 5912TIP3   OH239150   6.749   1.509   5.299  0.5123 -0.2714  0.9342
 5912TIP3    H139151   6.739   1.592   5.252  0.2238  0.7879  2.7784
 5912TIP3    H239152   6.838   1.480   5.278 -0.2519 -0.9000 -1.8206
 5913TIP3   OH239153   3.967   2.778   2.851 -0.0773  0.7362  0.1818
 5913TIP3    H139154   3.927   2.864   2.862  2.0545  1.5453  2.7059
 5913TIP3    H239155   4.039   2.793   2.789  1.1042  1.1538  1.5954
 5914TIP3   OH239156   0.621   2.495  15.996  0.6250 -0.1376 -0.6418
 5914TIP3    H139157   0.576   2.445  15.927 -0.4975 -1.9283  1.2717
 5914TIP3    H239158   0.712   2.465  15.992  0.1731 -1.6850 -0.1758
 5915TIP3   OH239159   6.699   2.322   6.189  0.5201  0.2132 -0.3645
 5915TIP3    H139160   6.657   2.304   6.274 -0.7421  0.5152 -0.8964
 5915TIP3    H239161   6.663   2.255   6.130  3.5166 -1.8416 -0.1097
 5916TIP3   OH239162   2.587   4.594  14.856  0.3264  0.7841 -0.0013
 5916TIP3    H139163   2.502   4.625  14.887 -0.8149 -1.0034 -1.0963
 5916TIP3    H239164   2.571   4.568  14.764  1.7183 -0.6692  0.1128
 5917TIP3   OH239165   2.030   1.069  13.046 -0.3780  0.4686 -0.3337
 5917TIP3    H139166   2.044   1.110  13.131 -1.6061  3.1791 -1.3154
 5917TIP3    H239167   1.963   1.003  13.061 -2.5863  2.7412  0.4318
 5918TIP3   OH239168   3.785   2.802   3.920  0.4713  0.0205  0.5641
 5918TIP3    H139169   3.773   2.847   4.004 -0.5235 -0.5548  0.7473
 5918TIP3    H239170   3.759   2.711   3.938  0.3571 -0.1303 -0.3352
 5919TIP3   OH239171   0.427   6.123  16.327  0.0015 -0.1312  0.0008
 5919TIP3    H139172   0.498   6.086  16.380 -1.1054  0.1394  1.7553
 5919TIP3    H239173   0.384   6.186  16.384  0.3067  2.1538 -2.1056
 5920TIP3   OH239174   0.572   6.653   0.904 -0.0717 -0.4225 -0.3955
 5920TIP3    H139175   0.640   6.692   0.958 -0.4846  0.2022 -0.3167
 5920TIP3    H239176   0.579   6.698   0.819 -2.3890  1.9934  0.5410
 5921TIP3   OH239177   3.529   5.234   5.028 -0.1171 -0.3068 -0.5239
 5921TIP3    H139178   3.524   5.287   4.949  0.5227  0.4372 -0.0872
 5921TIP3    H239179   3.613   5.258   5.068  0.5112 -2.1471 -0.6374
 5922TIP3   OH239180   0.221   5.705  13.158  0.3566 -0.1007 -0.1127
 5922TIP3    H139181   0.251   5.792  13.185 -0.0835 -0.5599  1.9786
 5922TIP3    H239182   0.147   5.722  13.100 -0.5620  0.9468  1.3051
 5923TIP3   OH239183   5.142   6.627  12.761 -0.7472  0.2210 -0.2719
 5923TIP3    H139184   5.186   6.623  12.846 -0.0467  1.6835 -0.5372
 5923TIP3    H239185   5.135   6.720  12.742 -1.6681 -0.0611 -1.4351
 5924TIP3   OH239186   3.974   0.542   0.510  0.0300  0.0730  0.0275
 5924TIP3    H139187   3.891   0.588   0.522 -1.4098 -1.7704 -2.0478
 5924TIP3    H239188   3.983   0.487   0.588  1.0955  2.6598  1.8743
 5925TIP3   OH239189   5.009   1.408   0.664 -0.0395  0.5527  0.0507
 5925TIP3    H139190   5.049   1.387   0.748  0.6205  0.1063 -0.3594
 5925TIP3    H239191   4.941   1.342   0.652  1.3042 -0.7636 -0.7339
 5926TIP3   OH239192   5.589   0.799  13.546  0.1852  0.0998  0.1531
 5926TIP3    H139193   5.630   0.712  13.547  0.0913  0.0592  0.6283
 5926TIP3    H239194   5.541   0.804  13.629 -0.8573  0.1131 -0.4348
 5927TIP3   OH239195   1.016   6.224  16.564  0.0945  0.5613 -0.1433
 5927TIP3    H139196   0.966   6.305  16.576 -0.3561 -0.0118  2.1445
 5927TIP3    H239197   1.106   6.248  16.586 -0.0153  0.4722  0.4038
 5928TIP3   OH239198   3.384   3.408  16.774 -0.7478  0.1878 -0.2372
 5928TIP3    H139199   3.330   3.487  16.773  0.2842  0.9062 -0.5996
 5928TIP3    H239200   3.321   3.337  16.762 -1.7842  0.8772  0.8209
 5929TIP3   OH239201   3.307   3.286   0.964  0.3396  0.0855 -0.2932
 5929TIP3    H139202   3.378   3.256   1.021  1.4317 -0.1544 -1.7320
 5929TIP3    H239203   3.315   3.233   0.886 -1.4839  0.0318 -0.4785
 5930TIP3   OH239204   5.510   4.366   2.289 -0.3304 -0.4306 -0.2116
 5930TIP3    H139205   5.444   4.346   2.223  1.1423  0.1623 -1.9480
 5930TIP3    H239206   5.547   4.281   2.313 -0.8914 -0.6550 -0.1402
 5931TIP3   OH239207   5.716   2.618  14.249  0.0003  0.0116 -0.2760
 5931TIP3    H139208   5.683   2.569  14.173  0.3536 -0.7625  0.0626
 5931TIP3    H239209   5.750   2.699  14.211  1.7974 -1.1056 -1.2047
 5932TIP3   OH239210   6.343   1.879   1.609  0.6570  0.2747 -0.2709
 5932TIP3    H139211   6.286   1.805   1.587  0.9812  0.0138 -0.2396
 5932TIP3    H239212   6.376   1.909   1.524 -2.0355  2.5029 -0.6699
 5933TIP3   OH239213   6.379   4.769   4.247 -0.4764  0.5987  0.5456
 5933TIP3    H139214   6.436   4.836   4.210  0.1853 -1.0263 -1.5576
 5933TIP3    H239215   6.316   4.818   4.300  1.9989  2.5688  1.8900
 5934TIP3   OH239216   0.134   0.948  13.120  0.6872 -0.3236 -0.0427
 5934TIP3    H139217   0.052   0.937  13.169  0.6991  1.6662  0.5202
 5934TIP3    H239218   0.202   0.941  13.187  0.8590 -0.1185 -0.1956
 5935TIP3   OH239219   6.043   6.582   1.420 -0.1507 -0.7942  0.5503
 5935TIP3    H139220   6.070   6.523   1.350  1.5213 -1.7717  1.9196
 5935TIP3    H239221   5.978   6.532   1.470 -1.4343 -0.0527 -0.3390
 5936TIP3   OH239222   1.760   0.155  15.635 -0.3798  0.1498 -0.3878
 5936TIP3    H139223   1.821   0.132  15.565  1.7264  2.4901  0.5732
 5936TIP3    H239224   1.794   0.110  15.712 -0.6280  0.4175 -0.1207
 5937TIP3   OH239225   2.097   0.624  16.960  0.3748  0.6252 -0.0156
 5937TIP3    H139226   2.048   0.559  16.909  2.1503  0.2362 -1.3197
 5937TIP3    H239227   2.039   0.700  16.963 -0.1239  0.3804 -1.9584
 5938TIP3   OH239228   1.522   2.382   4.664  0.0213 -0.4174 -0.3882
 5938TIP3    H139229   1.440   2.354   4.703  1.1806 -3.2156  0.2483
 5938TIP3    H239230   1.513   2.364   4.571 -0.7637  1.1726 -0.6505
 5939TIP3   OH239231   6.162   4.104  10.296  0.5486  0.5176  0.6867
 5939TIP3    H139232   6.115   4.022  10.306  0.1265  0.6293 -0.3294
 5939TIP3    H239233   6.253   4.082  10.317  0.3646 -0.1117  0.8413
 5940TIP3   OH239234   0.616   6.316  16.062  0.3906  0.7536 -0.1042
 5940TIP3    H139235   0.640   6.382  16.127 -0.5543 -0.7111  1.8490
 5940TIP3    H239236   0.654   6.234  16.095 -0.8466 -0.1943 -0.9164
 5941TIP3   OH239237   6.152   4.240   4.679 -0.1176 -0.3486 -0.1948
 5941TIP3    H139238   6.211   4.192   4.737 -0.5102 -0.9510 -0.2902
 5941TIP3    H239239   6.153   4.190   4.597 -0.5582 -0.2198 -0.2820
 5942TIP3   OH239240   0.148   0.444   1.355 -0.9032 -0.1105 -0.5129
 5942TIP3    H139241   0.141   0.350   1.370 -2.6719  0.0376 -0.2610
 5942TIP3    H239242   0.144   0.482   1.443  0.6282  0.1861 -0.5456
 5943TIP3   OH239243   4.421   2.514   3.677 -0.1161 -0.7396  0.6989
 5943TIP3    H139244   4.348   2.502   3.616 -0.6586 -2.0227  1.5599
 5943TIP3    H239245   4.499   2.493   3.626 -0.3404  0.3989 -0.1588
 5944TIP3   OH239246   5.478   6.563   3.896 -0.5153  0.1245  0.3625
 5944TIP3    H139247   5.507   6.519   3.976 -0.3848  0.2655  0.3918
 5944TIP3    H239248   5.513   6.509   3.825  0.1916  0.5362  0.3939
 5945TIP3   OH239249   5.157   0.236   3.829  1.4914 -0.1742 -0.0325
 5945TIP3    H139250   5.084   0.233   3.891  2.1765 -0.9341  0.7770
 5945TIP3    H239251   5.167   0.146   3.799  3.9569 -0.7765  2.1910
 5946TIP3   OH239252   0.098   3.559  15.145 -0.1621 -0.3516 -0.0195
 5946TIP3    H139253   0.018   3.607  15.125 -1.1570 -2.5429 -1.5999
 5946TIP3    H239254   0.084   3.525  15.233 -0.4867  0.1656  0.1332
 5947TIP3   OH239255   1.096   3.390   4.718  0.4754 -0.6760 -0.0281
 5947TIP3    H139256   1.101   3.485   4.702 -2.3231 -0.4351 -0.0117
 5947TIP3    H239257   1.176   3.370   4.766  0.3610  2.0445  1.5337
 5948TIP3   OH239258   5.273   5.947  11.306 -0.2246  0.4513 -0.0153
 5948TIP3    H139259   5.206   5.879  11.311  1.1745 -0.9234  1.6307
 5948TIP3    H239260   5.245   6.014  11.368 -0.6654  0.4765 -0.2365
 5949TIP3   OH239261   4.684   1.204  16.155  0.5471 -0.3930 -0.1975
 5949TIP3    H139262   4.760   1.243  16.198 -0.1489  0.1867  0.5436
 5949TIP3    H239263   4.669   1.122  16.202 -0.2989  0.3066  0.8222
 5950TIP3   OH239264   5.795   0.662  14.157 -0.5695  0.0699  0.6735
 5950TIP3    H139265   5.726   0.729  14.163 -0.0928  0.7287 -0.8619
 5950TIP3    H239266   5.774   0.612  14.078  0.2848 -0.2196  0.6166
 5951TIP3   OH239267   4.688   1.317  14.165  0.4812 -0.4676  0.1082
 5951TIP3    H139268   4.650   1.311  14.077 -0.6207  0.6834  0.4848
 5951TIP3    H239269   4.642   1.249  14.215 -0.1310  0.0220  0.2201
 5952TIP3   OH239270   4.359   0.139  14.097  0.2617  0.3349  0.5932
 5952TIP3    H139271   4.352   0.138  14.001  1.9384  2.1067  0.3776
 5952TIP3    H239272   4.277   0.101  14.128 -0.7618  0.6765 -1.5381
 5953TIP3   OH239273   2.851   4.438  15.345 -0.3031 -0.5291 -0.4531
 5953TIP3    H139274   2.843   4.387  15.264  0.0575 -1.6964  0.2087
 5953TIP3    H239275   2.939   4.418  15.376 -0.6858 -0.6739  0.5821
 5954TIP3   OH239276   2.218   3.860  14.879 -0.2158  0.0843  0.2074
 5954TIP3    H139277   2.167   3.934  14.847 -0.1895  0.5349  1.1720
 5954TIP3    H239278   2.259   3.891  14.959  0.7703 -0.6000 -0.0067
 5955TIP3   OH239279   5.521   5.483  11.642  0.0559 -0.5791  0.5367
 5955TIP3    H139280   5.430   5.483  11.615  0.0164  0.0155  0.6505
 5955TIP3    H239281   5.565   5.422  11.582 -0.4274 -0.9364  0.5456
 5956TIP3   OH239282   3.993   5.846  13.343 -0.7715 -0.3881 -0.1208
 5956TIP3    H139283   3.982   5.775  13.407  0.2155  1.1390  1.8678
 5956TIP3    H239284   4.063   5.815  13.285  0.6054 -0.5464  1.5487
 5957TIP3   OH239285   0.610   6.531  11.475 -0.0961 -0.3502  0.1168
 5957TIP3    H139286   0.561   6.532  11.557 -1.1378 -1.6984 -0.4493
 5957TIP3    H239287   0.571   6.601  11.423 -0.5019 -0.5180  0.1930
 5958TIP3   OH239288   2.726   0.764  15.315  0.2268 -0.5447 -0.2569
 5958TIP3    H139289   2.684   0.728  15.236  0.1552  0.5444 -0.7277
 5958TIP3    H239290   2.655   0.776  15.377  0.4868 -2.8639  0.5798
 5959TIP3   OH239291   5.048   4.492  16.097  0.0323  0.1535 -0.0550
 5959TIP3    H139292   5.041   4.522  16.006 -0.9455  1.8814  0.5529
 5959TIP3    H239293   5.085   4.404  16.090 -0.8391 -0.1008 -2.1772
 5960TIP3   OH239294   4.315   6.413  16.514 -0.1410  0.4205  0.3428
 5960TIP3    H139295   4.392   6.371  16.476  0.8615  2.1968  0.2912
 5960TIP3    H239296   4.245   6.349  16.503  0.9144 -0.5303 -1.2792
 5961TIP3   OH239297   0.204   4.942   2.668 -0.4577  0.6003  0.1462
 5961TIP3    H139298   0.239   4.953   2.580  2.3251 -0.6239  0.9933
 5961TIP3    H239299   0.176   4.851   2.672 -2.7723  1.2409 -0.1173
 5962TIP3   OH239300   5.022   3.103   5.203  0.2599  0.0638 -0.2696
 5962TIP3    H139301   5.062   3.017   5.219 -2.2992 -1.7473 -2.6388
 5962TIP3    H239302   4.982   3.126   5.287 -1.0556 -2.3335 -0.1419
 5963TIP3   OH239303   2.427   1.930   5.457 -0.4173 -0.0357 -0.4714
 5963TIP3    H139304   2.361   1.997   5.438 -1.8584 -0.9683  1.0867
 5963TIP3    H239305   2.379   1.848   5.459  1.4048 -1.3230 -2.9809
 5964TIP3   OH239306   5.701   4.102  15.155  0.2010  0.8793  0.2099
 5964TIP3    H139307   5.796   4.109  15.161  0.1841  0.4073  1.0974
 5964TIP3    H239308   5.671   4.097  15.245 -0.3416 -2.8385  0.0033
 5965TIP3   OH239309   3.118   6.174  12.661  0.8790 -0.4441  0.5862
 5965TIP3    H139310   3.178   6.237  12.620  2.2994 -0.3553  2.6533
 5965TIP3    H239311   3.136   6.092  12.616 -1.7011  0.6744 -2.8491
 5966TIP3   OH239312   3.921   5.757  12.580 -0.0162  0.1969  0.2295
 5966TIP3    H139313   3.896   5.698  12.510 -0.5573  1.2944 -0.5235
 5966TIP3    H239314   3.984   5.707  12.633  1.7432 -0.0885 -1.9957
 5967TIP3   OH239315   2.822   0.299  14.207  0.6598 -0.6037 -0.9895
 5967TIP3    H139316   2.883   0.252  14.264 -0.0499  1.9968  2.2311
 5967TIP3    H239317   2.740   0.249  14.213  0.8795 -0.9101 -0.5479
 5968TIP3   OH239318   3.963   1.231  12.912 -0.4644  0.1708 -0.1855
 5968TIP3    H139319   3.965   1.138  12.889 -0.2985  0.7065 -2.5630
 5968TIP3    H239320   3.871   1.256  12.904 -0.3795  0.4072 -0.4340
 5969TIP3   OH239321   3.928   5.956  10.629 -0.1948  0.2285  0.3988
 5969TIP3    H139322   3.893   5.904  10.556  0.5867 -0.0794  0.2310
 5969TIP3    H239323   3.924   6.046  10.598  0.2274  0.0927 -0.0777
 5970TIP3   OH239324   5.397   4.907   6.417  0.1643 -0.5383 -0.4670
 5970TIP3    H139325   5.321   4.881   6.365 -0.5955 -0.0943  0.3979
 5970TIP3    H239326   5.390   5.002   6.424 -0.2499 -0.6624  1.1618
 5971TIP3   OH239327   1.070   5.267   1.516 -0.5695  0.1142  0.0940
 5971TIP3    H139328   1.058   5.307   1.429  0.9761 -0.4808 -0.4331
 5971TIP3    H239329   1.165   5.271   1.530 -0.5797 -1.6916  0.8368
 5972TIP3   OH239330   4.725   0.321   5.604 -0.3025  0.1167  0.0490
 5972TIP3    H139331   4.644   0.291   5.645  0.4985 -2.6917 -0.2585
 5972TIP3    H239332   4.733   0.412   5.632 -2.6213 -0.0513  1.5575
 5973TIP3   OH239333   6.768   1.256  17.148 -0.5951  0.2707 -0.4031
 5973TIP3    H139334   6.812   1.327  17.101  2.3655 -0.8627  0.4770
 5973TIP3    H239335   6.760   1.289  17.237 -0.6021  0.0658 -0.3293
 5974TIP3   OH239336   4.770   6.370   2.840  0.0720 -0.6379  0.3799
 5974TIP3    H139337   4.708   6.334   2.776 -0.5444  1.5939 -0.3793
 5974TIP3    H239338   4.721   6.373   2.922 -0.1381 -0.7742  0.2599
 5975TIP3   OH239339   6.580   3.093  16.546  0.5822  0.2305 -0.1655
 5975TIP3    H139340   6.506   3.149  16.569 -0.3782 -0.5942 -1.1295
 5975TIP3    H239341   6.633   3.089  16.626  0.3401  1.9443  0.1301
 5976TIP3   OH239342   0.583   0.957   0.658  0.4330  0.6949 -0.2149
 5976TIP3    H139343   0.549   0.881   0.610  0.4855  0.4755  0.0911
 5976TIP3    H239344   0.654   0.991   0.603 -0.9959  1.8563 -1.4508
 5977TIP3   OH239345   1.658   6.279  12.703 -0.1851 -0.5563  0.2931
 5977TIP3    H139346   1.736   6.230  12.730 -0.2582 -0.7668  0.1265
 5977TIP3    H239347   1.597   6.211  12.672  0.1064 -0.2700 -0.9292
 5978TIP3   OH239348   0.633   6.706   3.659 -0.1561 -0.3861  0.3571
 5978TIP3    H139349   0.624   6.630   3.601  0.6156  1.2623 -2.0818
 5978TIP3    H239350   0.545   6.720   3.692 -0.4188 -2.0183  0.4648
 5979TIP3   OH239351   2.426   5.942   5.274  0.4138 -0.2004 -0.1349
 5979TIP3    H139352   2.413   5.864   5.328  0.8552 -0.1253  0.0767
 5979TIP3    H239353   2.496   5.918   5.214 -0.1538 -0.3277 -0.7624
 5980TIP3   OH239354   4.975   0.818  17.042  0.5569 -0.4564 -0.0230
 5980TIP3    H139355   4.919   0.888  17.008  1.4226  0.0771 -0.3898
 5980TIP3    H239356   4.921   0.739  17.035  0.3610 -0.2186 -1.7916
 5981TIP3   OH239357   5.397   2.393   2.283 -0.1398  0.0847  0.1682
 5981TIP3    H139358   5.336   2.445   2.232 -0.7764  0.3021  1.1421
 5981TIP3    H239359   5.398   2.433   2.369 -1.3463 -2.0202  1.2433
 5982TIP3   OH239360   2.881   3.605   5.606  0.1447 -0.1852  0.2958
 5982TIP3    H139361   2.838   3.607   5.692 -0.9781 -2.2294 -0.1513
 5982TIP3    H239362   2.961   3.656   5.618 -0.5533  0.5708  2.2125
 5983TIP3   OH239363   1.738   5.223   2.048  0.2382  0.1828  0.3078
 5983TIP3    H139364   1.744   5.236   1.953 -0.6033 -0.4886  0.1511
 5983TIP3    H239365   1.646   5.241   2.069  0.6132  1.2115  1.1458
 5984TIP3   OH239366   4.659   3.252   3.551  0.4734  0.9724  0.0584
 5984TIP3    H139367   4.564   3.255   3.549  0.4197  0.4948  1.0697
 5984TIP3    H239368   4.680   3.192   3.623  1.5411  1.3519  0.0917
 5985TIP3   OH239369   3.200   0.490   1.985 -0.2298  0.7210 -0.0589
 5985TIP3    H139370   3.259   0.524   2.052  3.1620  0.7919 -2.8032
 5985TIP3    H239371   3.164   0.410   2.023  4.8720 -1.6705  0.5827
 5986TIP3   OH239372   1.809   3.993  13.359 -0.2977  0.0593 -0.4485
 5986TIP3    H139373   1.763   3.972  13.440  1.3251  0.3933  0.5958
 5986TIP3    H239374   1.755   4.061  13.318  0.0276  1.6031  1.5446
 5987TIP3   OH239375   2.646   5.560  11.199 -0.4176 -0.6642  0.2364
 5987TIP3    H139376   2.696   5.609  11.134 -1.5486 -0.5108 -0.5565
 5987TIP3    H239377   2.637   5.473  11.161 -1.7007 -0.3740 -0.1941
 5988TIP3   OH239378   4.463   0.507   0.974  0.0068 -0.4344 -0.4610
 5988TIP3    H139379   4.393   0.535   0.914 -0.3450  0.3638  0.2999
 5988TIP3    H239380   4.516   0.447   0.922 -0.7612 -0.3999 -1.3189
 5989TIP3   OH239381   6.345   1.621   5.672  0.0646  0.7686 -0.1198
 5989TIP3    H139382   6.424   1.659   5.634  0.5317  0.2063  0.2719
 5989TIP3    H239383   6.316   1.556   5.608  3.1683 -3.2580  1.9998
 5990TIP3   OH239384   1.978   3.565   0.511 -0.3266  0.2994 -0.2004
 5990TIP3    H139385   1.989   3.541   0.603  0.5972  2.1636  0.2116
 5990TIP3    H239386   2.049   3.627   0.493 -1.3705  1.1209 -1.7386
 5991TIP3   OH239387   1.127   1.576   3.900  0.1446  0.3499  0.3996
 5991TIP3    H139388   1.075   1.520   3.958 -0.6576  0.6996  0.0313
 5991TIP3    H239389   1.071   1.590   3.824  1.0118  0.2729 -0.2576
 5992TIP3   OH239390   0.349   1.131  16.139  0.4270 -0.2760  0.0591
 5992TIP3    H139391   0.378   1.101  16.225 -2.5188 -1.6366  0.7304
 5992TIP3    H239392   0.304   1.055  16.102 -0.8782  1.1598 -1.4363
 5993TIP3   OH239393   1.428   0.736   3.802  0.2297  0.5116  0.2564
 5993TIP3    H139394   1.361   0.676   3.836  1.0314 -0.1090  0.7747
 5993TIP3    H239395   1.424   0.724   3.707 -0.3659  0.4589  0.2824
 5994TIP3   OH239396   4.053   3.454   1.484 -0.9310 -0.6704 -0.0025
 5994TIP3    H139397   3.987   3.514   1.448  1.8951  1.8076 -1.5549
 5994TIP3    H239398   4.094   3.415   1.407  0.7830 -0.4857  0.7729
 5995TIP3   OH239399   5.891   3.396   1.762  0.0744 -0.5325 -0.0985
 5995TIP3    H139400   5.800   3.372   1.742 -0.1130 -0.2059  0.3392
 5995TIP3    H239401   5.934   3.313   1.781  0.1811 -0.8135 -1.5210
 5996TIP3   OH239402   5.444   3.814  12.713  0.3198 -0.1896  0.0597
 5996TIP3    H139403   5.478   3.793  12.626 -0.2166 -2.3655  0.3011
 5996TIP3    H239404   5.372   3.876  12.696 -0.0689 -0.9205 -1.1041
 5997TIP3   OH239405   2.032   3.725  16.704  0.3626 -0.6082 -0.3341
 5997TIP3    H139406   2.051   3.815  16.675  1.5488  0.0954  2.3587
 5997TIP3    H239407   1.944   3.708  16.671 -1.2297  2.7881  1.6016
 5998TIP3   OH239408   3.605   5.085   0.463  0.4154 -0.8735  0.1203
 5998TIP3    H139409   3.522   5.071   0.509 -1.1241  1.5359 -1.6541
 5998TIP3    H239410   3.672   5.052   0.523 -1.4413  1.3301  3.7825
 5999TIP3   OH239411   5.446   3.720   3.702  0.4341  0.1427  0.2534
 5999TIP3    H139412   5.365   3.669   3.700 -0.0102  0.8274 -1.8461
 5999TIP3    H239413   5.497   3.682   3.773 -0.6071 -2.0450 -0.1049
 6000TIP3   OH239414   4.321   0.498  17.039  0.3636  0.5738  0.3968
 6000TIP3    H139415   4.350   0.469  17.126  1.6043 -0.2269 -0.2611
 6000TIP3    H239416   4.330   0.420  16.984  2.9026  1.8718 -1.2180
 6001TIP3   OH239417   5.328   1.856   3.098  0.6981  0.6127  0.1368
 6001TIP3    H139418   5.338   1.849   3.193  2.1883  0.7043  0.0110
 6001TIP3    H239419   5.274   1.934   3.086 -0.5733 -0.1039  0.9269
 6002TIP3   OH239420   1.135   2.665  12.975 -0.2750 -0.3696  0.6072
 6002TIP3    H139421   1.081   2.725  12.923 -1.0417 -1.6916 -0.1717
 6002TIP3    H239422   1.166   2.600  12.912  1.4946 -0.1693  1.2222
 6003TIP3   OH239423   4.165   1.556   0.262  0.0883  0.0109  0.0449
 6003TIP3    H139424   4.206   1.616   0.200  1.3469 -1.2544 -0.3946
 6003TIP3    H239425   4.218   1.477   0.258 -0.8174 -0.7181  1.4927
 6004TIP3   OH239426   2.260   2.610   0.408  0.0445  0.2974  0.1924
 6004TIP3    H139427   2.207   2.580   0.482 -0.3747  0.5027 -0.0212
 6004TIP3    H239428   2.273   2.532   0.355 -0.5604  0.3678 -0.0671
 6005TIP3   OH239429   1.584   2.198   2.915 -0.1003  0.0038 -0.0589
 6005TIP3    H139430   1.534   2.117   2.909  1.2937 -0.8565 -0.8433
 6005TIP3    H239431   1.624   2.196   3.002 -0.1038 -0.1458 -0.0600
 6006TIP3   OH239432   5.182   3.822   0.359  0.3648  0.1545 -0.1466
 6006TIP3    H139433   5.196   3.867   0.275 -0.1072  0.5013 -0.0417
 6006TIP3    H239434   5.269   3.820   0.399  0.3951  0.9945 -0.1519
 6007TIP3   OH239435   1.827   5.115  14.011  0.4226 -0.0872  0.2412
 6007TIP3    H139436   1.906   5.138  14.061  0.7806 -3.0745  1.2871
 6007TIP3    H239437   1.783   5.049  14.065 -1.0031 -0.9703 -1.8595
 6008TIP3   OH239438   5.327   3.437   0.062  0.6342 -0.0536 -0.0893
 6008TIP3    H139439   5.265   3.473   0.126  0.8619 -0.6546  0.4746
 6008TIP3    H239440   5.362   3.514   0.017  0.8455  0.4189  0.8540
 6009TIP3   OH239441   6.162   5.549  15.673  0.1024  0.1223 -0.4021
 6009TIP3    H139442   6.203   5.561  15.587 -1.2460  0.0282 -1.0810
 6009TIP3    H239443   6.112   5.630  15.687  0.2606  0.1104  0.2755
 6010TIP3   OH239444   4.684   3.894  14.762 -0.1546 -0.2195 -0.4532
 6010TIP3    H139445   4.663   3.807  14.729  0.3100  0.3846 -2.5029
 6010TIP3    H239446   4.604   3.923  14.806 -0.4791 -1.4598 -0.1773
 6011TIP3   OH239447   1.409   1.897  16.880  0.5142 -0.5253 -0.0801
 6011TIP3    H139448   1.481   1.943  16.923  2.9478 -1.5929 -2.6920
 6011TIP3    H239449   1.390   1.949  16.802 -2.1743  0.1363  0.9037
 6012TIP3   OH239450   3.835   4.653  13.927 -0.2609  0.1973  0.2448
 6012TIP3    H139451   3.876   4.614  14.004 -1.7837 -0.0677  0.9687
 6012TIP3    H239452   3.764   4.707  13.963 -0.0899  1.2413 -0.9093
 6013TIP3   OH239453   0.691   0.180  12.956  0.4191 -0.0819  0.4957
 6013TIP3    H139454   0.647   0.110  13.003 -0.8842 -0.3462 -1.0279
 6013TIP3    H239455   0.672   0.162  12.864  1.5952  1.2580 -0.0389
 6014TIP3   OH239456   2.106   1.431   0.962 -0.3597  0.8697 -0.0133
 6014TIP3    H139457   2.133   1.355   0.910  0.7367  1.8881 -1.0135
 6014TIP3    H239458   2.114   1.402   1.053 -0.5551 -0.3956 -0.3798
 6015TIP3   OH239459   3.268   3.043   5.401 -0.1732  0.0092 -0.1126
 6015TIP3    H139460   3.279   2.975   5.468  2.5200 -0.6407 -1.0614
 6015TIP3    H239461   3.211   3.003   5.335 -0.4978 -0.4336  0.4264
 6016TIP3   OH239462   0.536   3.671   4.985 -0.0797  0.3084 -0.8032
 6016TIP3    H139463   0.539   3.704   4.895  0.3340 -2.1547 -1.7728
 6016TIP3    H239464   0.576   3.740   5.037 -1.0693  2.1552 -2.3730
 6017TIP3   OH239465   6.011   1.598   3.424 -0.0073  0.0650  0.2542
 6017TIP3    H139466   5.952   1.665   3.390 -1.4599 -0.4024  1.7344
 6017TIP3    H239467   5.973   1.573   3.508  1.4202 -1.4298  0.5018
 6018TIP3   OH239468   5.763   1.123   3.057 -0.0273  0.4471 -0.2252
 6018TIP3    H139469   5.827   1.077   3.002 -0.8442 -3.0950  1.4852
 6018TIP3    H239470   5.801   1.210   3.071  2.5103 -0.1951 -2.3569
 6019TIP3   OH239471   6.667   5.212  14.669  0.0955  0.4860  0.4641
 6019TIP3    H139472   6.585   5.163  14.673  1.2170 -1.3910  1.6390
 6019TIP3    H239473   6.695   5.220  14.760  3.1568 -2.4266 -0.0514
 6020TIP3   OH239474   5.936   5.183   1.133  0.0899 -0.4238  0.1498
 6020TIP3    H139475   5.852   5.229   1.134 -0.4388 -1.3495  0.0279
 6020TIP3    H239476   5.962   5.182   1.040 -0.4140 -1.2459  0.0047
 6021TIP3   OH239477   4.964   2.313   5.181 -0.4915 -0.6540  0.5892
 6021TIP3    H139478   5.044   2.311   5.129 -0.3184  2.0870  0.5834
 6021TIP3    H239479   4.991   2.284   5.268  1.3223  2.8318  1.3785
 6022TIP3   OH239480   6.471   3.910  12.861 -0.5196  0.9324  0.3382
 6022TIP3    H139481   6.410   3.966  12.813  0.2895 -0.7108 -2.9027
 6022TIP3    H239482   6.465   3.825  12.817  1.7756 -0.1627  1.9584
 6023TIP3   OH239483   3.517   1.264  16.656 -0.4593 -0.4759 -0.2827
 6023TIP3    H139484   3.550   1.291  16.742 -0.7285 -1.2100  0.0596
 6023TIP3    H239485   3.425   1.241  16.673 -1.1349  1.3887 -1.1801
 6024TIP3   OH239486   5.537   6.454   2.047  0.4002  0.1267  0.3819
 6024TIP3    H139487   5.608   6.435   2.109  0.4941  0.9418  0.5354
 6024TIP3    H239488   5.525   6.549   2.053  0.5236  0.2378 -0.9908
 6025TIP3   OH239489   6.595   6.095  12.304  0.0521  0.1360  0.0907
 6025TIP3    H139490   6.520   6.039  12.284 -0.4909  0.6125  0.7840
 6025TIP3    H239491   6.670   6.046  12.270 -0.4980 -0.6331 -0.0456
 6026TIP3   OH239492   2.685   4.262   0.015 -0.1781 -0.2940 -0.2437
 6026TIP3    H139493   2.758   4.244   0.074 -0.8379 -1.2634  0.3080
 6026TIP3    H239494   2.723   4.257  -0.073  0.6122  0.2075  0.0617
 6027TIP3   OH239495   0.273   4.143  13.925  0.1370 -0.2529  0.3137
 6027TIP3    H139496   0.266   4.193  14.007  1.3288  1.1730 -0.4076
 6027TIP3    H239497   0.183   4.131  13.897 -0.2257  2.5072 -0.0261
 6028TIP3   OH239498   2.936   1.641  15.923 -0.1579  0.6615  0.1644
 6028TIP3    H139499   2.905   1.563  15.970 -1.9826  1.0745 -0.2832
 6028TIP3    H239500   2.857   1.679  15.884  0.6634  2.7844  0.4217
 6029TIP3   OH239501   5.632   0.413  11.615 -0.2590 -0.0445 -0.3735
 6029TIP3    H139502   5.550   0.367  11.594 -0.5233  0.9283 -1.6022
 6029TIP3    H239503   5.677   0.421  11.532  1.0891 -0.5168  0.2874
 6030TIP3   OH239504   1.264   1.084   4.468 -0.9523 -0.2834 -0.0295
 6030TIP3    H139505   1.327   1.105   4.537 -0.1546 -2.7902  0.1074
 6030TIP3    H239506   1.196   1.151   4.476  1.0354  1.7931  0.6305
 6031TIP3   OH239507   0.793   4.278   0.452 -1.0106 -0.0332  0.8003
 6031TIP3    H139508   0.735   4.202   0.463  0.6219 -1.7696 -1.5531
 6031TIP3    H239509   0.747   4.335   0.390 -0.9198 -0.6294  0.1714
 6032TIP3   OH239510   3.761   0.942  12.653 -0.5917 -0.0095 -0.1311
 6032TIP3    H139511   3.679   0.982  12.625 -0.3931 -0.6663 -1.7674
 6032TIP3    H239512   3.738   0.850  12.672  0.2477 -1.1327 -3.7961
 6033TIP3   OH239513   1.573   3.351   5.763  0.0514 -0.0806  0.3375
 6033TIP3    H139514   1.623   3.392   5.834 -1.1526  0.6431  0.8056
 6033TIP3    H239515   1.584   3.257   5.776 -0.0942  0.0431  1.4563
 6034TIP3   OH239516   2.805   5.751   2.545 -0.0091 -0.2534  0.2910
 6034TIP3    H139517   2.795   5.765   2.639  0.6853  0.0969  0.3247
 6034TIP3    H239518   2.794   5.657   2.533  0.1031 -0.3305  0.7557
 6035TIP3   OH239519   5.305   1.145   3.479  1.0188 -0.1163 -0.1221
 6035TIP3    H139520   5.295   1.240   3.480  0.6534 -0.1259  2.0877
 6035TIP3    H239521   5.240   1.115   3.415  0.5144  1.0762 -0.1977
 6036TIP3   OH239522   0.949   5.133   5.033  0.3172 -0.0367 -0.3247
 6036TIP3    H139523   0.959   5.038   5.022  0.1141  0.0844 -1.7049
 6036TIP3    H239524   0.863   5.153   4.997  1.5099  1.0496 -2.8241
 6037TIP3   OH239525   4.939   5.496  14.287  0.3690 -0.1982 -0.2243
 6037TIP3    H139526   4.903   5.474  14.373  1.0853 -0.6420 -0.0191
 6037TIP3    H239527   4.907   5.584  14.269 -0.4403 -0.4071  0.1355
 6038TIP3   OH239528   0.808   1.623  10.788  0.0998 -0.4299 -0.1465
 6038TIP3    H139529   0.874   1.664  10.844  0.7015 -2.3760  0.6750
 6038TIP3    H239530   0.852   1.613  10.703  1.0176 -1.9111  0.4527
 6039TIP3   OH239531   0.441   6.287  15.173 -0.3903  0.1014 -0.1921
 6039TIP3    H139532   0.499   6.317  15.243 -1.4051  0.3020  0.5709
 6039TIP3    H239533   0.386   6.362  15.152 -1.6086 -0.6052  0.3586
 6040TIP3   OH239534   1.013   1.825  11.325  0.2076 -0.3206 -0.6605
 6040TIP3    H139535   1.077   1.851  11.258  1.3424 -0.5456  0.3016
 6040TIP3    H239536   1.033   1.733  11.342 -1.6468 -0.9679 -1.6946
 6041TIP3   OH239537   4.278   1.343  13.850  0.4132  0.2555 -0.4636
 6041TIP3    H139538   4.200   1.347  13.794 -0.6601  0.0442  0.9588
 6041TIP3    H239539   4.270   1.259  13.896  0.7362  0.8425  0.7086
 6042TIP3   OH239540   1.222   6.642   0.635 -0.1629  0.8262 -0.1350
 6042TIP3    H139541   1.247   6.550   0.642 -0.0827  0.8397 -0.2369
 6042TIP3    H239542   1.304   6.691   0.644  0.0093  0.8269 -1.5239
 6043TIP3   OH239543   3.857   2.240  16.629 -0.3658 -0.1266 -0.2602
 6043TIP3    H139544   3.896   2.159  16.598  0.3725  0.0174  0.2609
 6043TIP3    H239545   3.764   2.233  16.606 -0.0568 -0.5242 -1.4279
 6044TIP3   OH239546   1.051   4.253   0.422 -0.4010 -0.3585  0.8156
 6044TIP3    H139547   1.052   4.209   0.338 -1.0379  1.6027 -0.2729
 6044TIP3    H239548   0.958   4.260   0.445 -0.5209  2.2636 -0.1287
 6045TIP3   OH239549   3.169   5.996  10.876  0.3201  0.3993  0.4466
 6045TIP3    H139550   3.259   5.990  10.906  0.2923 -1.1662  0.3435
 6045TIP3    H239551   3.123   5.926  10.923 -0.1424 -0.8306 -1.6495
 6046TIP3   OH239552   5.911   0.335  14.586 -0.6013 -0.3054 -0.4601
 6046TIP3    H139553   5.976   0.318  14.654  1.0013 -0.9557 -2.0692
 6046TIP3    H239554   5.880   0.249  14.560 -2.2654  0.0021  0.3636
 6047TIP3   OH239555   3.671   0.394  11.348 -0.2860 -0.5250 -0.3987
 6047TIP3    H139556   3.706   0.481  11.328  1.1188 -0.6669  1.2068
 6047TIP3    H239557   3.728   0.333  11.300  1.4636 -0.7199  1.7315
 6048TIP3   OH239558   3.264   4.396   3.510 -0.0511  0.4104  0.2740
 6048TIP3    H139559   3.194   4.462   3.503  0.7787  1.2438 -0.3255
 6048TIP3    H239560   3.260   4.368   3.601 -1.5544  0.0035  0.1195
 6049TIP3   OH239561   1.360   5.961   2.768 -0.0442 -0.5169  0.4876
 6049TIP3    H139562   1.374   5.866   2.766  1.5137 -0.3000 -0.7930
 6049TIP3    H239563   1.444   5.997   2.795 -0.1659  0.5531 -0.4787
 6050TIP3   OH239564   4.777   2.487   4.730 -0.2612 -0.4525  0.9397
 6050TIP3    H139565   4.726   2.556   4.772 -2.7218 -0.3534 -1.9057
 6050TIP3    H239566   4.815   2.438   4.803 -4.6356 -0.6708  3.4361
 6051TIP3   OH239567   5.024   1.734   5.499 -0.3410  0.0506 -0.5968
 6051TIP3    H139568   4.995   1.817   5.536  2.2614  0.2960  1.1866
 6051TIP3    H239569   4.944   1.693   5.467 -2.1510  1.9141  1.2194
 6052TIP3   OH239570   0.228   1.770  12.831 -0.5340 -0.0829  0.1592
 6052TIP3    H139571   0.242   1.702  12.897  0.1968 -1.3020 -1.2015
 6052TIP3    H239572   0.283   1.843  12.859 -1.0102 -0.1811  1.4204
 6053TIP3   OH239573   6.735   3.647  11.973 -0.4053  0.2401 -0.5183
 6053TIP3    H139574   6.818   3.622  11.933 -0.9357 -0.7319 -1.0425
 6053TIP3    H239575   6.700   3.565  12.009 -0.0116  1.0374  1.8717
 6054TIP3   OH239576   3.720   0.252   6.725  0.1401  0.4092 -0.2215
 6054TIP3    H139577   3.739   0.172   6.774 -0.6406  0.7119  0.6295
 6054TIP3    H239578   3.788   0.258   6.659  1.0319 -0.2140  0.6153
 6055TIP3   OH239579   1.338   4.837  11.334 -0.3534  0.1880  0.0642
 6055TIP3    H139580   1.403   4.878  11.276 -1.8524  3.3342  0.3802
 6055TIP3    H239581   1.389   4.808  11.409  1.1116 -0.4760 -1.1213
 6056TIP3   OH239582   1.275   4.388  15.503 -0.3674  0.1117 -0.3123
 6056TIP3    H139583   1.313   4.325  15.442  0.1910  0.1851 -0.0411
 6056TIP3    H239584   1.240   4.334  15.575  0.0846  0.1079 -0.0942
 6057TIP3   OH239585   6.321   1.275  10.751 -0.3784  0.0723  0.3831
 6057TIP3    H139586   6.411   1.290  10.722 -1.1975  3.3646 -0.8574
 6057TIP3    H239587   6.295   1.358  10.791 -3.5770  0.0679 -1.3742
 6058TIP3   OH239588   6.341   2.074  12.900 -0.3530 -0.0599  0.4581
 6058TIP3    H139589   6.293   2.082  12.983  0.5036  0.7358  0.8931
 6058TIP3    H239590   6.280   2.106  12.834 -0.0187  2.2197  1.1584
 6059TIP3   OH239591   6.588   6.629   1.354 -0.6121  0.0709 -0.0741
 6059TIP3    H139592   6.536   6.651   1.431 -1.9855  0.1487 -0.9854
 6059TIP3    H239593   6.533   6.567   1.305  1.2752 -1.9690  0.2110
 6060TIP3   OH239594   1.693   4.453  13.561  0.5002 -0.1121  0.1829
 6060TIP3    H139595   1.625   4.517  13.543 -0.8361 -1.2459  1.0118
 6060TIP3    H239596   1.728   4.430  13.475 -0.2792  0.3702 -0.2710
 6061TIP3   OH239597   2.666   2.438  16.411 -0.2116  0.0198  0.1590
 6061TIP3    H139598   2.703   2.356  16.444  1.1891  0.5569 -0.0136
 6061TIP3    H239599   2.742   2.494  16.395 -1.1789  2.4551  3.0765
 6062TIP3   OH239600   1.129   6.275  15.392 -0.5309 -0.2389  0.4942
 6062TIP3    H139601   1.093   6.210  15.332 -2.1687 -1.0594  2.2693
 6062TIP3    H239602   1.186   6.226  15.450 -0.2923  0.2436  0.6746
 6063TIP3   OH239603   5.034   6.090  15.655  0.5594 -0.4159 -0.2255
 6063TIP3    H139604   5.103   6.129  15.709 -1.4534 -0.9642  2.9958
 6063TIP3    H239605   5.039   5.996  15.675  0.1301 -0.7327 -1.5205
 6064TIP3   OH239606   1.782   0.580  11.665  0.1297  0.4493  0.1087
 6064TIP3    H139607   1.700   0.556  11.708  0.1598 -0.9643 -0.5539
 6064TIP3    H239608   1.768   0.669  11.634 -0.2183  1.1610  2.1902
 6065TIP3   OH239609   0.165   4.458   5.875 -0.1807 -0.1520 -0.2702
 6065TIP3    H139610   0.114   4.435   5.952 -1.6782 -1.4485 -1.5982
 6065TIP3    H239611   0.119   4.532   5.836 -0.7374 -0.9360 -1.1362
 6066TIP3   OH239612   2.089   4.018  13.328  0.4183  0.1940  0.4367
 6066TIP3    H139613   1.993   4.023  13.330  0.4073 -0.2597  1.3573
 6066TIP3    H239614   2.111   3.955  13.397  1.3320 -0.5101 -0.4765
 6067TIP3   OH239615   6.443   0.651   2.423 -0.2683  0.0417  0.3105
 6067TIP3    H139616   6.408   0.740   2.419  0.3280  0.3303  1.0891
 6067TIP3    H239617   6.415   0.618   2.508 -0.8090 -0.6679 -0.1299
 6068TIP3   OH239618   2.805   6.240  11.423  0.0279  0.2701 -0.1883
 6068TIP3    H139619   2.860   6.313  11.451  0.1507  0.6140 -1.2680
 6068TIP3    H239620   2.776   6.265  11.335  0.4859 -1.2078 -0.7839
 6069TIP3   OH239621   0.392   5.311  16.131  0.5179 -0.1894  1.1121
 6069TIP3    H139622   0.439   5.230  16.108  0.3192  0.7100 -3.1541
 6069TIP3    H239623   0.307   5.281  16.163  0.1187 -1.7821 -1.1758
 6070TIP3   OH239624   2.017   3.537  12.461 -0.5832  0.1671  0.4553
 6070TIP3    H139625   2.097   3.534  12.408 -0.8742 -1.5539  0.0728
 6070TIP3    H239626   2.020   3.458  12.514 -2.3261 -0.2424 -0.0173
 6071TIP3   OH239627   4.874   3.967  11.974 -0.2990  0.3011  0.3415
 6071TIP3    H139628   4.795   3.948  11.923 -0.4941  1.0333  0.3537
 6071TIP3    H239629   4.910   4.046  11.934 -0.7224  1.1790  1.6132
 6072TIP3   OH239630   6.556   2.927   1.397 -0.5559  0.3521 -0.4688
 6072TIP3    H139631   6.652   2.925   1.399 -0.5535 -2.6406  0.1029
 6072TIP3    H239632   6.534   2.918   1.305 -0.2561 -0.2627 -0.4874
 6073TIP3   OH239633   3.750   2.513   4.674 -0.3471  0.0009  0.3050
 6073TIP3    H139634   3.840   2.542   4.694 -0.2419 -1.2215  1.8202
 6073TIP3    H239635   3.746   2.512   4.579  2.6077 -3.6045 -0.0318
 6074TIP3   OH239636   0.664   0.473  13.353 -0.0039 -0.6088 -0.1611
 6074TIP3    H139637   0.623   0.408  13.296 -0.0291  0.1679 -1.0595
 6074TIP3    H239638   0.591   0.510  13.403 -0.0475 -0.9532  0.0365
 6075TIP3   OH239639   5.695   5.079  12.206  0.2151 -0.3066  0.6153
 6075TIP3    H139640   5.643   5.043  12.134  1.6414  0.2234 -0.7294
 6075TIP3    H239641   5.637   5.073  12.282 -2.0576  0.7852 -0.9091
 6076TIP3   OH239642   4.403   3.096   0.857  0.7805  0.4797 -0.4375
 6076TIP3    H139643   4.437   3.029   0.916 -1.9643 -1.0371 -0.4047
 6076TIP3    H239644   4.407   3.055   0.770 -0.3022  0.4955 -0.5086
 6077TIP3   OH239645   6.498   1.980   4.608  0.1627 -0.3673  0.2223
 6077TIP3    H139646   6.506   1.926   4.687 -0.4140 -0.7586  0.0190
 6077TIP3    H239647   6.500   1.917   4.536 -2.0430 -0.3126  0.0324
 6078TIP3   OH239648   4.978   0.989   3.575 -0.0152  0.1874  0.1275
 6078TIP3    H139649   4.983   0.991   3.479  1.3311  0.0629  0.1789
 6078TIP3    H239650   4.887   1.011   3.594  0.1954  2.4751 -1.1063
 6079TIP3   OH239651   4.351   2.153   1.423 -0.1895  0.2567  0.2239
 6079TIP3    H139652   4.413   2.189   1.360 -0.9713  2.6895  0.7378
 6079TIP3    H239653   4.276   2.126   1.370 -0.9742  2.5706  0.0455
 6080TIP3   OH239654   5.226   4.536  13.633 -0.4254 -0.2398 -0.4758
 6080TIP3    H139655   5.206   4.457  13.583  2.3527 -2.4027  1.4921
 6080TIP3    H239656   5.301   4.574  13.588  1.4578 -1.6560  1.2473
 6081TIP3   OH239657   5.553   3.530  12.458 -0.6240  0.4104 -0.3184
 6081TIP3    H139658   5.542   3.624  12.446  2.2249  0.8758  0.1119
 6081TIP3    H239659   5.600   3.502  12.380  0.7383 -0.1816  0.6942
 6082TIP3   OH239660   0.337   6.726   3.340 -0.1694 -0.0353  0.4256
 6082TIP3    H139661   0.424   6.753   3.368  0.1403  0.7300 -1.1674
 6082TIP3    H239662   0.351   6.676   3.260 -0.8787 -3.6340  2.3373
 6083TIP3   OH239663   5.348   5.169  15.716  0.0395 -0.1638  0.4598
 6083TIP3    H139664   5.283   5.120  15.765 -0.2294  0.2427  0.5099
 6083TIP3    H239665   5.427   5.115  15.720 -0.4486 -0.9247 -0.0831
 6084TIP3   OH239666   3.729   2.644  13.149 -0.5443  0.2369  0.2921
 6084TIP3    H139667   3.813   2.597  13.139 -1.1879 -1.2406  1.4741
 6084TIP3    H239668   3.730   2.709  13.079  1.5603  0.2076  0.2349
 6085TIP3   OH239669   2.013   0.444   1.523  1.0217 -0.3344  0.2712
 6085TIP3    H139670   1.975   0.518   1.571 -1.1043 -1.2280  0.1100
 6085TIP3    H239671   2.061   0.395   1.589  1.6758  0.6857  0.5694
 6086TIP3   OH239672   2.405   4.134  14.357 -0.2000 -0.3534 -0.9888
 6086TIP3    H139673   2.342   4.107  14.423  1.7997 -1.8312  0.4204
 6086TIP3    H239674   2.430   4.223  14.382  0.6050 -0.9266  0.3735
 6087TIP3   OH239675   1.557   1.480  13.341 -0.5687  0.5833  0.1365
 6087TIP3    H139676   1.504   1.501  13.263  1.1404  3.5833 -0.3691
 6087TIP3    H239677   1.625   1.422  13.309 -0.7035  0.6699 -0.3203
 6088TIP3   OH239678   3.004   1.290  12.165 -0.6080  0.3674 -0.0884
 6088TIP3    H139679   3.097   1.296  12.187 -0.6671 -1.0592  0.7018
 6088TIP3    H239680   2.965   1.369  12.203  0.2758  1.0225 -0.5028
 6089TIP3   OH239681   5.752   0.157  12.313 -0.4158 -0.8029 -0.6007
 6089TIP3    H139682   5.841   0.182  12.337 -0.9139 -0.0934  0.5871
 6089TIP3    H239683   5.755   0.147  12.218  0.8954 -0.6607 -0.5939
 6090TIP3   OH239684   1.273   3.393   2.367  0.1893 -0.0481 -0.3140
 6090TIP3    H139685   1.272   3.305   2.330  1.4748 -0.3558  0.3328
 6090TIP3    H239686   1.339   3.440   2.316  0.7486  0.0280  0.4787
 6091TIP3   OH239687   1.260   5.716  16.441 -0.1022 -0.2147 -0.2704
 6091TIP3    H139688   1.211   5.719  16.524 -1.3977 -0.1429 -1.0006
 6091TIP3    H239689   1.218   5.784  16.387  0.7090 -0.2761 -0.9927
 6092TIP3   OH239690   2.147   3.372   1.527 -0.3366  0.5150 -0.3339
 6092TIP3    H139691   2.128   3.466   1.519  0.0656  0.7858  1.4421
 6092TIP3    H239692   2.093   3.331   1.461 -0.5793  1.9997 -1.1017
 6093TIP3   OH239693   5.206   5.027  13.057 -0.2083 -0.0836 -0.7094
 6093TIP3    H139694   5.125   5.032  13.006  0.0665  0.9278 -1.0767
 6093TIP3    H239695   5.273   5.065  12.999  0.3414 -0.0172 -0.0437
 6094TIP3   OH239696   5.980   1.638   1.468  0.0077 -0.3315 -0.4160
 6094TIP3    H139697   5.934   1.554   1.474 -0.7188  0.1325  1.3246
 6094TIP3    H239698   6.042   1.627   1.397 -0.4110 -2.1820 -0.5409
 6095TIP3   OH239699   5.566   3.427   3.851 -0.6065 -0.2731  0.1310
 6095TIP3    H139700   5.629   3.449   3.782 -2.0196 -2.1002 -1.8878
 6095TIP3    H239701   5.616   3.372   3.912 -0.1513 -1.7604 -1.4649
 6096TIP3   OH239702   5.391   4.651  16.960 -0.0071  0.4068  0.2902
 6096TIP3    H139703   5.478   4.643  17.000  0.0551 -0.5667 -0.0122
 6096TIP3    H239704   5.330   4.642  17.033  0.1297  2.0700  0.6592
 6097TIP3   OH239705   2.675   5.859   5.458  0.0193  0.2948 -0.0757
 6097TIP3    H139706   2.697   5.824   5.544  1.1281  0.4855 -0.2734
 6097TIP3    H239707   2.699   5.789   5.397 -0.7345  0.1708 -0.2458
 6098TIP3   OH239708   1.380   0.473  15.184 -0.0534 -0.2960 -0.2155
 6098TIP3    H139709   1.404   0.405  15.247  0.7902 -1.3137 -1.5882
 6098TIP3    H239710   1.442   0.463  15.112 -0.8522  0.9789 -1.1283
 6099TIP3   OH239711   1.550   3.074  16.461  1.2877  0.8116 -0.3012
 6099TIP3    H139712   1.623   3.092  16.402  2.8466 -1.2201  0.8762
 6099TIP3    H239713   1.592   3.048  16.543 -0.8031  1.1312  0.9361
 6100TIP3   OH239714   2.969   3.594  12.964  0.4268 -0.0997  0.1422
 6100TIP3    H139715   3.047   3.617  12.913  0.8718 -1.8812 -0.0500
 6100TIP3    H239716   2.897   3.604  12.903  0.7027 -0.0508 -0.1794
 6101TIP3   OH239717   2.133   5.926  17.328 -0.2108 -0.2701 -0.2102
 6101TIP3    H139718   2.090   5.930  17.413 -1.5363 -1.2160 -0.7860
 6101TIP3    H239719   2.199   5.995  17.330 -1.3423  0.8178  0.9583
 6102TIP3   OH239720   1.843   0.430   2.491 -0.0121  0.2767 -1.1490
 6102TIP3    H139721   1.796   0.491   2.546  0.4349 -2.6908  2.9645
 6102TIP3    H239722   1.935   0.458   2.496  0.1189 -0.3529  0.2824
 6103TIP3   OH239723   2.996   3.986   1.993  0.0182 -0.1596 -0.0614
 6103TIP3    H139724   2.957   4.071   2.011 -0.8364 -0.4284 -0.6037
 6103TIP3    H239725   2.971   3.966   1.903  1.1089 -0.5107 -0.3101
 6104TIP3   OH239726   2.632   3.905   4.490 -0.1477  0.1066  0.0210
 6104TIP3    H139727   2.585   3.956   4.555  1.0555 -0.9606  1.8165
 6104TIP3    H239728   2.721   3.899   4.524  0.0921 -1.9813 -0.8200
 6105TIP3   OH239729   5.155   1.967   4.680 -0.5679 -0.3970  0.2116
 6105TIP3    H139730   5.090   1.985   4.613 -0.9269 -1.2798  0.3143
 6105TIP3    H239731   5.209   1.897   4.644 -0.5610 -0.6484  0.6978
 6106TIP3   OH239732   1.580   1.869  11.164 -0.1070 -0.4310  0.2047
 6106TIP3    H139733   1.530   1.949  11.150 -1.1844 -1.4501 -2.3070
 6106TIP3    H239734   1.644   1.893  11.232  0.8438  3.1225 -1.6593
 6107TIP3   OH239735   4.463   5.233   4.277  0.1237 -0.9326  0.2314
 6107TIP3    H139736   4.483   5.321   4.246 -1.2900  0.0023  1.8602
 6107TIP3    H239737   4.516   5.223   4.356  0.9713 -1.9216 -0.4383
 6108TIP3   OH239738   4.144   3.658   3.983 -0.4113 -0.2702  0.9308
 6108TIP3    H139739   4.150   3.567   3.954  0.0702  0.1761 -0.4145
 6108TIP3    H239740   4.223   3.700   3.950 -0.3270  0.5164  2.0501
 6109TIP3   OH239741   5.430   1.050  17.172 -0.3955 -0.6495  0.3875
 6109TIP3    H139742   5.409   1.112  17.241 -0.9680 -2.0327  1.5205
 6109TIP3    H239743   5.452   0.969  17.219 -2.1269 -2.0312 -1.0432
 6110TIP3   OH239744   3.357   4.343  13.605  0.0891  0.3001 -0.1727
 6110TIP3    H139745   3.299   4.399  13.657 -0.1193  1.9046 -2.0253
 6110TIP3    H239746   3.442   4.388  13.608  0.4396 -0.3560 -0.0645
 6111TIP3   OH239747   3.348   4.697   0.693  0.0592 -0.4423  0.8228
 6111TIP3    H139748   3.333   4.602   0.691  0.0943 -0.5044  2.5822
 6111TIP3    H239749   3.266   4.733   0.725 -1.0507  0.4575 -2.5755
 6112TIP3   OH239750   2.381   1.368  16.065 -0.1647 -0.1909  0.3621
 6112TIP3    H139751   2.456   1.310  16.049 -0.1934 -0.8043  2.2251
 6112TIP3    H239752   2.415   1.436  16.122 -0.4245  1.0401 -0.8879
 6113TIP3   OH239753   6.643   0.139  14.481 -0.0315 -0.0524 -0.1725
 6113TIP3    H139754   6.622   0.153  14.573 -1.6120  0.3560 -0.5613
 6113TIP3    H239755   6.606   0.053  14.460 -0.0073  0.0175 -0.5174
 6114TIP3   OH239756   1.206   6.634  11.308  0.8418 -0.1678  0.5500
 6114TIP3    H139757   1.232   6.606  11.220  0.9127 -0.4494  0.6588
 6114TIP3    H239758   1.112   6.650  11.302  1.1051  1.3481  0.0195
 6115TIP3   OH239759   1.572   2.096  17.003  0.1082  0.3892 -0.4792
 6115TIP3    H139760   1.654   2.116  17.050 -0.0922 -0.3212  0.1908
 6115TIP3    H239761   1.539   2.182  16.977  0.9247  0.7085 -0.5129
 6116TIP3   OH239762   2.618   2.811   3.828 -0.0662 -0.3567 -0.3922
 6116TIP3    H139763   2.528   2.830   3.854  0.1352 -0.6383  0.5725
 6116TIP3    H239764   2.610   2.743   3.761 -0.5082 -2.6438  1.8035
 6117TIP3   OH239765   4.507   3.978  16.068 -0.2108 -0.3260  0.2284
 6117TIP3    H139766   4.497   3.974  16.163  1.1531  0.2974  0.4216
 6117TIP3    H239767   4.545   3.893  16.044  0.4860 -0.0723  0.4007
 6118TIP3   OH239768   1.321   0.696  14.755  0.2444  0.0129  0.1149
 6118TIP3    H139769   1.286   0.758  14.690 -0.6959 -1.1331 -0.5319
 6118TIP3    H239770   1.297   0.610  14.720  0.6027 -0.6760  1.5011
 6119TIP3   OH239771   6.767   2.851   2.136  0.3197 -0.1684  0.4110
 6119TIP3    H139772   6.730   2.775   2.091  1.1835  0.9753 -2.4449
 6119TIP3    H239773   6.845   2.874   2.085  1.6256  1.0482  2.7676
 6120TIP3   OH239774   6.422   0.631   4.291  0.4836 -0.7089 -0.5177
 6120TIP3    H139775   6.432   0.576   4.213  1.7997 -1.0899 -0.0940
 6120TIP3    H239776   6.499   0.611   4.344  0.6456  1.0715 -0.0513
 6121TIP3   OH239777   4.951   4.069   5.837  0.3114 -0.0142  0.3132
 6121TIP3    H139778   5.009   3.994   5.822  0.3317 -0.1693  1.1013
 6121TIP3    H239779   4.973   4.098   5.926 -0.9097 -0.1577  0.6808
 6122TIP3   OH239780   5.993   1.168   4.205 -0.6010  0.4663 -0.1268
 6122TIP3    H139781   6.031   1.100   4.150 -2.2221 -0.9879  0.4585
 6122TIP3    H239782   6.054   1.177   4.278 -0.1773 -0.0523 -0.4091
 6123TIP3   OH239783   5.867   3.177   5.151 -0.0370  0.4682 -0.6061
 6123TIP3    H139784   5.928   3.238   5.107  0.0954  1.4884  0.9070
 6123TIP3    H239785   5.895   3.178   5.243 -2.8159  1.6252  0.3317
 6124TIP3   OH239786   4.226   0.677  10.871 -0.1679  0.7526 -0.0447
 6124TIP3    H139787   4.211   0.585  10.853 -1.6435  0.9141  0.1873
 6124TIP3    H239788   4.220   0.720  10.786  1.4180  0.5563 -0.2818
 6125TIP3   OH239789   5.062   6.331   2.899  0.2074  0.2453  0.1788
 6125TIP3    H139790   4.967   6.333   2.890  0.0152 -0.6613  1.6487
 6125TIP3    H239791   5.090   6.421   2.880 -0.9539  0.5696 -0.0719
 6126TIP3   OH239792   6.129   4.575  12.057  0.0762  0.1909 -0.3271
 6126TIP3    H139793   6.040   4.578  12.022 -0.3966 -2.3317  0.4188
 6126TIP3    H239794   6.117   4.554  12.150  1.3184  5.3523  1.3732
 6127TIP3   OH239795   1.199   6.564  15.724 -0.4151  0.1279 -0.3981
 6127TIP3    H139796   1.133   6.503  15.693  1.5452 -0.0903 -4.9191
 6127TIP3    H239797   1.196   6.636  15.662  1.6546  1.5206  0.9894
 6128TIP3   OH239798   0.586   5.125  14.865  0.1211 -0.2528  0.7441
 6128TIP3    H139799   0.548   5.212  14.873  2.6851  0.8532  2.0308
 6128TIP3    H239800   0.513   5.065  14.881 -1.6233  1.6355  0.1848
 6129TIP3   OH239801   5.583   4.159   3.669  0.2677 -1.1359  0.4249
 6129TIP3    H139802   5.592   4.065   3.657 -1.0125 -1.1709 -0.3638
 6129TIP3    H239803   5.664   4.195   3.633 -0.3714 -1.7609 -1.7513
 6130TIP3   OH239804   3.384   1.036  11.265 -0.1877 -0.2839 -1.4158
 6130TIP3    H139805   3.394   1.040  11.360  0.3056 -0.2557 -1.4683
 6130TIP3    H239806   3.312   0.974  11.251 -2.6227  2.2039 -0.9150
 6131TIP3   OH239807   2.905   3.968   4.960 -0.1121  0.4971  0.2925
 6131TIP3    H139808   2.898   4.051   5.006  0.5792  1.2262 -0.8873
 6131TIP3    H239809   2.956   3.987   4.881  1.6564 -1.3713  0.8627
 6132TIP3   OH239810   0.608   0.540   4.026  0.2027 -0.5261 -0.6263
 6132TIP3    H139811   0.666   0.473   3.990  1.4404  0.6302 -0.8466
 6132TIP3    H239812   0.637   0.621   3.985 -1.9096  0.0343 -1.1103
 6133TIP3   OH239813   0.539   3.258   3.688  0.0263 -0.5375  0.3752
 6133TIP3    H139814   0.573   3.210   3.612 -1.3355 -0.8195 -0.0829
 6133TIP3    H239815   0.467   3.204   3.720  0.7765 -0.5653  2.0781
 6134TIP3   OH239816   2.212   5.232   3.243  0.1565  0.1810  0.2416
 6134TIP3    H139817   2.131   5.185   3.222 -0.4958 -0.8857  4.2534
 6134TIP3    H239818   2.260   5.235   3.161 -2.2390 -2.6412 -1.4664
 6135TIP3   OH239819   4.013   3.367   5.814  0.0373 -0.0627 -0.1825
 6135TIP3    H139820   4.058   3.423   5.877  0.1986 -0.7284  0.2973
 6135TIP3    H239821   3.938   3.332   5.861 -1.2895  1.3909 -1.1061
 6136TIP3   OH239822   0.282   5.352   4.989  0.4521  0.1568 -0.3116
 6136TIP3    H139823   0.269   5.263   4.957 -1.4869  0.9244 -1.7963
 6136TIP3    H239824   0.370   5.375   4.959 -0.5632  0.1804 -3.6796
 6137TIP3   OH239825   2.314   5.207   4.245 -0.8948  0.8539 -0.6337
 6137TIP3    H139826   2.282   5.120   4.224  0.3843  0.1509  0.2115
 6137TIP3    H239827   2.367   5.232   4.169  1.5985 -0.6063  0.5072
 6138TIP3   OH239828   1.895   4.230   0.744  0.2868 -0.0362  0.1453
 6138TIP3    H139829   1.974   4.283   0.748 -0.4866  1.2012 -0.5370
 6138TIP3    H239830   1.858   4.236   0.833  0.6878 -0.1939  0.3225
 6139TIP3   OH239831   4.423   0.764   0.371 -0.1676  0.2192 -0.6121
 6139TIP3    H139832   4.386   0.851   0.386  0.6194  0.4899 -0.1994
 6139TIP3    H239833   4.349   0.705   0.382 -1.1210  0.9278 -2.5766
 6140TIP3   OH239834   1.615   0.146   3.647  0.2361  0.3333  0.1117
 6140TIP3    H139835   1.601   0.224   3.701 -2.6629 -0.8569  1.3057
 6140TIP3    H239836   1.683   0.097   3.693  0.2550  0.9687  0.7862
 6141TIP3   OH239837   1.664   4.393   4.556 -0.2617  0.1966 -0.1052
 6141TIP3    H139838   1.661   4.298   4.566 -2.3032  0.2331  0.1265
 6141TIP3    H239839   1.607   4.410   4.481 -1.7075  1.3672  1.2027
 6142TIP3   OH239840   1.472   5.411   4.671  0.3578  0.2273  0.3745
 6142TIP3    H139841   1.550   5.447   4.713  0.7898 -1.4048  1.0412
 6142TIP3    H239842   1.399   5.445   4.722  0.7560  0.1755  0.9863
 6143TIP3   OH239843   2.508   1.787   2.512 -0.4075  0.5513  0.0191
 6143TIP3    H139844   2.555   1.866   2.486  0.5666  0.0534  0.2283
 6143TIP3    H239845   2.490   1.800   2.605  0.0726  0.3613  0.1359
 6144TIP3   OH239846   2.914   0.787  10.701 -0.0608 -0.6888 -0.3116
 6144TIP3    H139847   2.889   0.736  10.623 -1.4994  0.4446 -0.6344
 6144TIP3    H239848   2.936   0.721  10.766 -0.7154 -1.7149 -1.0939
 6145TIP3   OH239849   5.450   5.571  12.279  0.2303  0.1109 -0.4473
 6145TIP3    H139850   5.534   5.566  12.325 -0.0689 -0.6281  0.0513
 6145TIP3    H239851   5.389   5.525  12.337 -0.0672 -1.2881 -1.7947
 6146TIP3   OH239852   2.562   1.428  13.511  0.1984 -0.0104  0.5164
 6146TIP3    H139853   2.552   1.496  13.444  0.0499 -0.3823  0.1536
 6146TIP3    H239854   2.569   1.347  13.461  1.1670 -0.1860  0.9155
 6147TIP3   OH239855   0.775   2.239  14.442 -0.4544  0.7252  0.1135
 6147TIP3    H139856   0.801   2.150  14.465 -1.8182 -0.0091 -1.0790
 6147TIP3    H239857   0.848   2.293  14.472  2.0993 -1.1029 -2.2659
 6148TIP3   OH239858   1.966   4.982  16.209 -0.8417  0.5950  0.1454
 6148TIP3    H139859   2.002   4.961  16.123 -0.9672  0.2549  0.1782
 6148TIP3    H239860   1.949   5.077  16.205  0.1695  0.7925  0.1762
 6149TIP3   OH239861   2.431   2.526   3.707  0.1975 -0.5012  0.5709
 6149TIP3    H139862   2.384   2.540   3.789  0.6976  0.8322  0.6640
 6149TIP3    H239863   2.415   2.607   3.657  2.1056 -0.1366  0.4780
 6150TIP3   OH239864   5.305   4.044   5.989  0.1351 -0.4012  0.4990
 6150TIP3    H139865   5.233   4.077   6.043 -0.3165  0.5613 -0.6749
 6150TIP3    H239866   5.381   4.094   6.018 -0.0377 -0.1188  0.4695
 6151TIP3   OH239867   3.457   3.214   0.462 -0.2789 -0.2847  0.0744
 6151TIP3    H139868   3.520   3.244   0.528 -2.2706  0.2441  1.8857
 6151TIP3    H239869   3.448   3.120   0.478 -0.2805 -0.2742  0.1364
 6152TIP3   OH239870   5.706   0.495   0.418  0.2540 -0.2845  0.7882
 6152TIP3    H139871   5.677   0.415   0.376  2.5368 -0.7222 -0.1411
 6152TIP3    H239872   5.747   0.467   0.500  1.4321 -0.1666  0.2670
 6153TIP3   OH239873   6.232   3.763   6.318  0.0439  0.2714  0.1258
 6153TIP3    H139874   6.326   3.767   6.300 -0.3872  2.9157 -2.3825
 6153TIP3    H239875   6.195   3.716   6.244 -0.6788 -0.8697  1.1610
 6154TIP3   OH239876   3.960   5.265  15.643 -0.7293 -0.2832  0.1499
 6154TIP3    H139877   4.008   5.297  15.567  1.0762 -0.0691  1.3284
 6154TIP3    H239878   3.969   5.334  15.708 -1.3689 -0.9072  0.9221
 6155TIP3   OH239879   6.027   0.756   4.301  0.3267 -0.6968  0.1172
 6155TIP3    H139880   6.116   0.723   4.302 -0.1308 -1.9653  0.4986
 6155TIP3    H239881   5.983   0.709   4.372 -0.2665  1.0058  0.9424
 6156TIP3   OH239882   0.806   4.225  15.117  0.1267 -0.1509 -0.5217
 6156TIP3    H139883   0.727   4.229  15.170  1.0002  2.6744  0.7513
 6156TIP3    H239884   0.778   4.255  15.030 -0.2074  0.9288 -0.0539
 6157TIP3   OH239885   5.540   2.884  15.928  0.2935 -0.1901 -0.1307
 6157TIP3    H139886   5.465   2.931  15.964 -0.6190 -2.3976  1.0446
 6157TIP3    H239887   5.515   2.865  15.838 -0.1581 -0.0734 -0.0351
 6158TIP3   OH239888   6.501   1.991   6.096  0.2031  0.0140  0.3938
 6158TIP3    H139889   6.450   1.912   6.115  1.7649 -0.7656  1.5248
 6158TIP3    H239890   6.503   2.038   6.178 -1.0736  1.5089 -0.3776
 6159TIP3   OH239891   6.131   4.395   3.727  0.1501 -0.2072 -0.7700
 6159TIP3    H139892   6.098   4.354   3.807 -1.5479  0.4492 -1.0757
 6159TIP3    H239893   6.197   4.335   3.694  1.3807 -0.1696  1.4562
 6160TIP3   OH239894   3.474   4.999   4.704  0.2249 -0.6423  0.6698
 6160TIP3    H139895   3.447   5.084   4.736  1.3971  0.2081 -0.4947
 6160TIP3    H239896   3.570   5.004   4.698  0.2339 -1.5786 -0.6057
 6161TIP3   OH239897   1.287   5.226   4.572  0.0700 -0.8967 -0.5046
 6161TIP3    H139898   1.370   5.255   4.611 -0.6958 -1.1214  1.4210
 6161TIP3    H239899   1.244   5.306   4.544  0.5531 -0.6991 -0.6898
 6162TIP3   OH239900   0.444   1.493   5.538 -0.2278  0.6565 -0.0942
 6162TIP3    H139901   0.515   1.429   5.548  1.0623  2.0130 -0.2350
 6162TIP3    H239902   0.364   1.440   5.540  0.7911 -0.9802 -0.4523
 6163TIP3   OH239903   4.779   3.038  16.443 -0.3910 -0.6223  0.0169
 6163TIP3    H139904   4.748   3.019  16.531  2.2125  0.3710  1.2565
 6163TIP3    H239905   4.828   2.960  16.417 -1.0964 -0.8875 -0.5653
 6164TIP3   OH239906   5.788   1.498   4.959 -0.5641  0.3505 -0.1717
 6164TIP3    H139907   5.852   1.565   4.935 -0.2483 -0.3275 -1.3017
 6164TIP3    H239908   5.764   1.519   5.049  2.0367 -0.0093  0.6830
 6165TIP3   OH239909   0.851   1.673  13.868  0.1351  0.0281  0.0200
 6165TIP3    H139910   0.906   1.653  13.793  0.1617 -0.5955  0.2033
 6165TIP3    H239911   0.774   1.716  13.830 -0.2292 -1.0175 -0.4504
 6166TIP3   OH239912   1.355   0.328  13.557  0.2456  0.0992  0.2615
 6166TIP3    H139913   1.293   0.365  13.495  0.7836 -0.2004 -0.4641
 6166TIP3    H239914   1.315   0.245  13.585  0.9069 -0.7693 -1.2366
 6167TIP3   OH239915   4.608   0.313   1.863 -0.3892 -0.3173  0.1827
 6167TIP3    H139916   4.647   0.391   1.904  1.6718 -0.6381 -1.0279
 6167TIP3    H239917   4.683   0.263   1.832 -1.6085 -3.2700  1.6557
 6168TIP3   OH239918   4.684   0.314   6.259 -0.0869  0.3244  0.3907
 6168TIP3    H139919   4.769   0.358   6.261 -0.3015  0.7740 -0.1799
 6168TIP3    H239920   4.641   0.343   6.340  1.3839 -2.1698  2.2196
 6169TIP3   OH239921   1.422   4.537   4.980 -0.3570 -0.0205 -0.2672
 6169TIP3    H139922   1.370   4.547   4.900 -0.4896 -0.2208 -0.2070
 6169TIP3    H239923   1.363   4.493   5.042  0.4281 -1.9184 -0.7816
 6170TIP3   OH239924   1.110   2.689  13.471  0.2624  0.0931 -0.5226
 6170TIP3    H139925   1.067   2.624  13.526  0.1795 -0.9590 -1.7919
 6170TIP3    H239926   1.138   2.757  13.532 -0.8243 -0.4829  0.6700
 6171TIP3   OH239927   5.124   3.613   3.355  0.4955  0.0064 -0.7703
 6171TIP3    H139928   5.061   3.656   3.297 -0.8750  0.6886  1.0900
 6171TIP3    H239929   5.133   3.525   3.320 -1.8183 -0.2398 -0.9543
 6172TIP3   OH239930   5.981   1.767  11.884 -0.0008  0.3668 -0.8440
 6172TIP3    H139931   5.906   1.708  11.878 -1.9920  2.7956 -1.8207
 6172TIP3    H239932   6.003   1.787  11.794  4.0925 -2.7091 -0.8022
 6173TIP3   OH239933   3.517   2.689   4.210  1.0424  0.9896  0.0995
 6173TIP3    H139934   3.479   2.638   4.281 -0.7267  0.9779 -0.7892
 6173TIP3    H239935   3.466   2.664   4.133  4.2459 -0.6362 -1.7059
 6174TIP3   OH239936   4.527   6.686  14.163  0.3729 -0.2488 -0.4992
 6174TIP3    H139937   4.588   6.655  14.096 -0.0209  0.3701 -1.1500
 6174TIP3    H239938   4.482   6.760  14.123  0.2700  0.2617  0.5152
 6175TIP3   OH239939   2.803   5.276  11.959  0.2316 -0.4044  0.8202
 6175TIP3    H139940   2.766   5.314  12.039 -0.1287 -1.2636  1.0710
 6175TIP3    H239941   2.866   5.341  11.929  0.1161  0.0875  1.6129
 6176TIP3   OH239942   0.827   0.496  16.651  0.9158 -0.8276 -0.1932
 6176TIP3    H139943   0.829   0.412  16.604  1.6892 -0.6374 -0.5189
 6176TIP3    H239944   0.904   0.492  16.708  0.1313 -0.9496  0.8846
 6177TIP3   OH239945   1.496   3.436   1.015  0.7434 -0.2975  0.1665
 6177TIP3    H139946   1.523   3.416   1.105  0.3561 -0.9424  0.1507
 6177TIP3    H239947   1.556   3.385   0.961  1.0377  0.1649  0.0506
 6178TIP3   OH239948   3.806   3.511  14.301 -0.6009  0.4287  0.1757
 6178TIP3    H139949   3.788   3.603  14.322 -1.5248  0.2897 -0.0013
 6178TIP3    H239950   3.726   3.479  14.262  0.4380  0.1403 -1.8329
 6179TIP3   OH239951   1.113   5.110   1.895 -0.1089 -0.0661  0.2707
 6179TIP3    H139952   1.051   5.040   1.879 -0.9620 -0.2214  3.4581
 6179TIP3    H239953   1.061   5.179   1.937  1.2595  1.2585 -0.0965
 6180TIP3   OH239954   0.649   3.178   1.209  0.1169  0.2270  0.0081
 6180TIP3    H139955   0.640   3.214   1.297  3.5123  2.0141 -0.2229
 6180TIP3    H239956   0.600   3.238   1.153  1.0422  1.2694  0.2894
 6181TIP3   OH239957   1.922   3.782   2.235  0.1518 -0.2788 -0.1754
 6181TIP3    H139958   1.923   3.737   2.319 -0.3470  0.2354  0.1066
 6181TIP3    H239959   1.940   3.713   2.171  0.6351 -0.6509  0.3556
 6182TIP3   OH239960   6.749   5.248   0.998 -0.2958 -0.0077  0.0200
 6182TIP3    H139961   6.676   5.194   0.969 -0.6733  0.0095  0.9058
 6182TIP3    H239962   6.767   5.306   0.923  0.3225 -1.5293 -1.0511
 6183TIP3   OH239963   3.109   1.311   4.838 -0.2366 -0.0576  0.2863
 6183TIP3    H139964   3.200   1.290   4.818 -0.0844 -0.1543  1.0672
 6183TIP3    H239965   3.067   1.319   4.752  0.7122  0.9164 -0.1027
 6184TIP3   OH239966   2.373   5.685   4.384  0.2424 -0.2141 -0.1080
 6184TIP3    H139967   2.313   5.666   4.312  0.8240  2.0808 -1.3208
 6184TIP3    H239968   2.374   5.781   4.388  2.1754 -0.2455  1.2804
 6185TIP3   OH239969   2.827   0.844   2.272  0.2340 -0.1875 -0.3179
 6185TIP3    H139970   2.772   0.923   2.275 -0.2618 -0.4874 -1.2553
 6185TIP3    H239971   2.790   0.786   2.338  0.9320  0.5582  0.7660
 6186TIP3   OH239972   0.386   4.956   5.317  0.1225 -0.1311  0.2747
 6186TIP3    H139973   0.436   4.944   5.236 -1.6859 -0.0193 -0.9351
 6186TIP3    H239974   0.365   5.050   5.318 -2.9682 -0.6596 -1.1946
 6187TIP3   OH239975   3.147   3.454   2.627 -0.1547 -0.2583  0.0446
 6187TIP3    H139976   3.121   3.458   2.535  0.3083  0.2490 -0.0732
 6187TIP3    H239977   3.234   3.415   2.627  0.8832  1.8741  0.0118
 6188TIP3   OH239978   4.473   0.062  11.956 -0.6377 -0.1821  0.3063
 6188TIP3    H139979   4.555   0.039  11.912 -0.2328 -1.3651  1.6151
 6188TIP3    H239980   4.471   0.007  12.035 -1.7117  1.3019  1.3681
 6189TIP3   OH239981   5.035   5.827  11.348 -0.0236 -0.3469 -0.3643
 6189TIP3    H139982   4.983   5.897  11.387  1.4382  1.4227 -1.4452
 6189TIP3    H239983   5.005   5.823  11.257 -2.3145 -3.3806  0.3537
 6190TIP3   OH239984   4.493   5.954   0.812 -0.6025  0.0577 -0.3554
 6190TIP3    H139985   4.580   5.921   0.834 -0.7013  1.0425  1.8402
 6190TIP3    H239986   4.437   5.876   0.809  0.1156 -0.4574 -0.4481
 6191TIP3   OH239987   6.769   0.440  12.934 -0.6728  0.0761 -0.6411
 6191TIP3    H139988   6.684   0.465  12.970 -0.3698 -0.5372  0.5458
 6191TIP3    H239989   6.829   0.443  13.009 -0.0638 -1.4565 -1.0277
 6192TIP3   OH239990   2.448   1.847  13.419 -0.0642  0.1499  0.1029
 6192TIP3    H139991   2.466   1.859  13.512 -0.8060  0.2477  0.2403
 6192TIP3    H239992   2.370   1.792  13.416 -0.9013  1.3201 -0.4312
 6193TIP3   OH239993   4.369   2.616  13.895  0.2429 -0.3805 -0.2659
 6193TIP3    H139994   4.288   2.596  13.941 -0.5581 -0.7291 -1.7686
 6193TIP3    H239995   4.349   2.693  13.842  1.1742  0.0732  0.0200
 6194TIP3   OH239996   4.279   3.382   0.213  0.2006  0.0550 -0.6151
 6194TIP3    H139997   4.304   3.410   0.126 -1.1310  0.2656 -0.9593
 6194TIP3    H239998   4.315   3.449   0.271 -3.1687  2.8911 -1.4369
 6195TIP3   OH239999   1.198   6.633   0.947 -0.3761 -0.3096  0.5013
 6195TIP3    H140000   1.245   6.557   0.913 -0.3066  0.9341 -2.4866
 6195TIP3    H240001   1.262   6.703   0.947 -0.9095  0.2028  1.4692
 6196TIP3   OH240002   2.312   4.969  16.606 -0.3794  0.5396  0.2330
 6196TIP3    H140003   2.273   5.003  16.525  1.6426 -1.7786 -1.9173
 6196TIP3    H240004   2.364   5.041  16.640 -2.0238  1.8678  0.0650
 6197TIP3   OH240005   6.298   4.574  17.183 -0.1184  0.2203 -0.5825
 6197TIP3    H140006   6.308   4.545  17.092  4.0692  1.6577 -0.8195
 6197TIP3    H240007   6.359   4.519  17.233 -1.8215 -0.0727  1.3019
 6198TIP3   OH240008   4.753   2.361   4.443 -0.2171 -0.2313  0.0978
 6198TIP3    H140009   4.786   2.373   4.532  2.6510  0.0263 -0.8934
 6198TIP3    H240010   4.699   2.438   4.427 -1.3638 -0.6372  1.8269
 6199TIP3   OH240011   2.121   6.147   5.944  0.5615  0.2552  0.3616
 6199TIP3    H140012   2.045   6.132   6.000  1.6695  0.3354  1.9454
 6199TIP3    H240013   2.096   6.110   5.859 -1.5520  1.0460  0.5842
 6200TIP3   OH240014   1.037   6.172  11.367 -0.0413 -0.2468 -0.5372
 6200TIP3    H140015   0.949   6.184  11.401  0.2648 -1.2136  0.6684
 6200TIP3    H240016   1.087   6.246  11.403 -0.1618 -0.2058 -0.4556
 6201TIP3   OH240017   2.044   2.373   2.418  0.3762  0.0761  0.0695
 6201TIP3    H140018   2.029   2.291   2.372  1.5264  1.0180 -2.1483
 6201TIP3    H240019   1.980   2.434   2.381  1.1205  0.7704 -0.1153
 6202TIP3   OH240020   5.851   6.464   3.122  0.5195  0.3722 -0.2019
 6202TIP3    H140021   5.894   6.502   3.045 -0.3285 -0.0265 -0.8865
 6202TIP3    H240022   5.837   6.372   3.099 -2.3823  0.8680 -0.7915
 6203TIP3   OH240023   2.961   6.573  16.495  0.2297  0.0656  0.1755
 6203TIP3    H140024   2.983   6.592  16.404 -0.1166 -0.6067 -0.0569
 6203TIP3    H240025   2.892   6.506  16.489  0.0777  0.1512  0.9267
 6204TIP3   OH240026   3.592   1.131   2.482 -0.0181 -0.2326 -0.5610
 6204TIP3    H140027   3.527   1.156   2.416 -1.1607 -0.1020  0.5663
 6204TIP3    H240028   3.673   1.173   2.453 -0.8883  1.2253 -1.0090
 6205TIP3   OH240029   2.955   6.385   3.034 -0.4264 -0.9279  0.5144
 6205TIP3    H140030   3.013   6.361   3.107  0.9071  1.1033  0.2212
 6205TIP3    H240031   2.894   6.448   3.071 -0.3790 -0.6381  0.1123
 6206TIP3   OH240032   3.589   3.834   6.299 -0.5606 -0.4574 -0.1251
 6206TIP3    H140033   3.562   3.923   6.321  1.2191  0.3801 -1.1292
 6206TIP3    H240034   3.631   3.801   6.378  0.6016  0.3814 -0.3677
 6207TIP3   OH240035   0.221   4.322  14.182 -0.1914  0.0549 -0.1758
 6207TIP3    H140036   0.159   4.292  14.248  0.9540  0.0331  0.9413
 6207TIP3    H240037   0.307   4.295  14.216  0.7411  2.7469 -0.1279
 6208TIP3   OH240038   1.978   3.671  13.810  0.0440 -0.1491 -0.1914
 6208TIP3    H140039   1.956   3.749  13.759  0.5127  1.2003  1.6023
 6208TIP3    H240040   1.968   3.599  13.748 -4.2001  0.8423 -0.9281
 6209TIP3   OH240041   5.501   1.333   5.550 -0.2967 -0.3304  0.1486
 6209TIP3    H140042   5.428   1.369   5.600 -0.7804 -0.0116 -0.7851
 6209TIP3    H240043   5.572   1.325   5.615 -0.8525  0.2413  0.8445
 6210TIP3   OH240044   4.845   1.903  12.503 -0.4226 -0.2237  0.3504
 6210TIP3    H140045   4.912   1.906  12.572  0.0626 -2.0822  0.0130
 6210TIP3    H240046   4.771   1.857  12.542 -0.8423  0.2996  0.1820
 6211TIP3   OH240047   1.747   5.344  15.120 -0.4562 -0.1297 -0.5664
 6211TIP3    H140048   1.791   5.323  15.038 -0.4300  1.2448 -0.9237
 6211TIP3    H240049   1.672   5.285  15.122 -0.1498 -0.5568 -1.3116
 6212TIP3   OH240050   1.832   6.062   1.870  0.3652 -0.7441 -0.2872
 6212TIP3    H140051   1.854   6.094   1.958  0.1790  0.8348 -0.7780
 6212TIP3    H240052   1.830   5.967   1.879 -2.7134 -0.6253  2.1989
 6213TIP3   OH240053   3.211   3.306   4.701 -0.0059  0.3474 -0.0249
 6213TIP3    H140054   3.116   3.295   4.712  0.1785 -0.5689  0.8618
 6213TIP3    H240055   3.248   3.275   4.784  1.2639 -2.6003 -1.5436
 6214TIP3   OH240056   6.728   4.327   5.077 -0.1189  0.4288  0.0925
 6214TIP3    H140057   6.642   4.285   5.085  0.4755 -1.1471 -1.2696
 6214TIP3    H240058   6.747   4.325   4.983  2.0560 -0.6318  0.4949
 6215TIP3   OH240059   5.472   1.222  12.389 -0.6075 -0.2359  0.3996
 6215TIP3    H140060   5.514   1.212  12.475  1.4577 -1.1810 -0.6382
 6215TIP3    H240061   5.394   1.168  12.394 -1.9635  1.7256  2.4774
 6216TIP3   OH240062   0.438   2.176   2.109 -0.0100  0.6684  0.0539
 6216TIP3    H140063   0.388   2.111   2.059 -0.1065  0.1257  0.8359
 6216TIP3    H240064   0.455   2.134   2.193  0.9359  1.2180  0.1544
 6217TIP3   OH240065   2.063   5.866   2.597 -0.0018 -0.0194 -0.0796
 6217TIP3    H140066   2.084   5.959   2.604  0.5053 -0.1496  0.1532
 6217TIP3    H240067   2.109   5.825   2.669 -0.5690 -0.4003  0.0724
 6218TIP3   OH240068   4.868   1.237   3.783 -0.1530 -0.1820 -0.5950
 6218TIP3    H140069   4.831   1.161   3.738 -0.4431 -1.1790  1.2097
 6218TIP3    H240070   4.962   1.228   3.773 -0.1762 -0.9094 -0.2393
 6219TIP3   OH240071   0.223   4.898   3.888 -0.2398 -0.0931 -0.0826
 6219TIP3    H140072   0.151   4.949   3.851 -0.1589 -0.9635 -1.5052
 6219TIP3    H240073   0.241   4.831   3.822  0.2394 -1.4216  1.3421
 6220TIP3   OH240074   5.631   5.917  12.164  0.2784 -0.1051 -0.1632
 6220TIP3    H140075   5.689   5.993  12.160  1.5951 -0.9839  1.1268
 6220TIP3    H240076   5.685   5.843  12.137 -0.3088 -0.9150  0.7723
 6221TIP3   OH240077   3.403   0.588  15.625  0.0403  0.0849  0.6062
 6221TIP3    H140078   3.330   0.569  15.566  0.6493  1.0455 -0.4970
 6221TIP3    H240079   3.417   0.682  15.615  0.9637  0.0380  1.3579
 6222TIP3   OH240080   6.366   2.371  14.782 -0.3458  0.0277 -0.0015
 6222TIP3    H140081   6.390   2.464  14.787 -0.0747  0.0041 -0.6733
 6222TIP3    H240082   6.383   2.337  14.870 -0.5768  0.6436  0.2853
 6223TIP3   OH240083   6.676   5.116   5.191 -0.1257 -0.8506 -0.3135
 6223TIP3    H140084   6.713   5.097   5.105 -1.7520  3.2299 -2.1906
 6223TIP3    H240085   6.584   5.090   5.184 -0.2391 -0.6271  0.2331
 6224TIP3   OH240086   4.633   1.772   0.943  0.0909  0.5578  0.1182
 6224TIP3    H140087   4.701   1.773   0.876 -1.9489  2.1642 -2.1104
 6224TIP3    H240088   4.672   1.726   1.017  2.6776 -0.8366 -1.9613
 6225TIP3   OH240089   3.900   6.546   3.709 -0.2354 -0.0539 -0.1717
 6225TIP3    H140090   3.978   6.595   3.735  0.0490 -0.4183 -0.3343
 6225TIP3    H240091   3.832   6.576   3.770  0.2503 -0.3897  0.5583
 6226TIP3   OH240092   4.011   3.362  15.089 -0.3058 -0.2788 -0.0381
 6226TIP3    H140093   3.961   3.356  15.171 -2.2843  1.6362 -1.0312
 6226TIP3    H240094   4.044   3.452  15.087 -2.6491  0.6647 -2.5479
 6227TIP3   OH240095   6.301   0.416   3.543 -0.4145  0.2847  0.3618
 6227TIP3    H140096   6.245   0.425   3.620 -1.0572 -0.1189 -0.0419
 6227TIP3    H240097   6.376   0.473   3.560 -1.3601  1.5179  0.5537
 6228TIP3   OH240098   1.120   4.908   5.606 -0.1965 -0.5411 -0.2404
 6228TIP3    H140099   1.209   4.924   5.637 -0.3221 -0.6592  0.1845
 6228TIP3    H240100   1.133   4.863   5.522  0.1430 -0.4045 -0.2655
 6229TIP3   OH240101   3.352   5.872   2.895 -0.3736 -0.1098 -0.3469
 6229TIP3    H140102   3.257   5.881   2.902 -0.3607 -0.6305  0.7917
 6229TIP3    H240103   3.372   5.789   2.938  0.5566 -0.2115 -0.9482
 6230TIP3   OH240104   2.888   1.570   0.931  0.0908  0.0883 -0.0729
 6230TIP3    H140105   2.829   1.607   0.865  0.8231 -0.1878 -0.8936
 6230TIP3    H240106   2.889   1.476   0.913 -1.6263 -0.3892  1.8997
 6231TIP3   OH240107   3.811   6.134   0.814 -0.0326 -0.2029 -0.0314
 6231TIP3    H140108   3.812   6.166   0.724 -0.5184 -1.9383 -0.6856
 6231TIP3    H240109   3.730   6.083   0.821 -1.2632  1.8681  2.1424
 6232TIP3   OH240110   1.622   1.582  14.961  0.0648  0.4152 -0.4239
 6232TIP3    H140111   1.546   1.524  14.962  0.5947 -0.3035 -0.8506
 6232TIP3    H240112   1.585   1.670  14.958 -0.7648  0.0421 -2.6263
 6233TIP3   OH240113   3.738   3.483   5.522  0.6845  0.4122 -0.6456
 6233TIP3    H140114   3.807   3.512   5.462  2.1058 -0.1946  0.6364
 6233TIP3    H240115   3.773   3.501   5.609 -0.5454 -0.4492  0.0511
 6234TIP3   OH240116   5.077   1.931   0.395 -0.1080 -0.0306  0.2628
 6234TIP3    H140117   5.032   1.890   0.320 -0.6653  0.2895  0.4155
 6234TIP3    H240118   5.164   1.891   0.395 -0.8026 -1.6144  0.7184
 6235TIP3   OH240119   0.813   1.860   0.188  0.2785 -0.1487  0.4491
 6235TIP3    H140120   0.863   1.880   0.109  1.5374 -2.1477  0.6812
 6235TIP3    H240121   0.879   1.835   0.252 -0.8934 -0.8624  1.4079
 6236TIP3   OH240122   1.638   2.246  14.843  0.1399 -0.4632 -0.7652
 6236TIP3    H140123   1.544   2.255  14.830  0.0429  1.2662  0.7121
 6236TIP3    H240124   1.671   2.215  14.759 -1.7293 -1.0350 -1.3284
 6237TIP3   OH240125   4.833   0.785  12.761  0.5088  0.0975  0.2229
 6237TIP3    H140126   4.879   0.804  12.679  0.3521 -1.5880 -0.2997
 6237TIP3    H240127   4.898   0.739  12.814  0.0134 -0.5747  0.2514
 6238TIP3   OH240128   2.042   0.428  13.542 -0.7876 -0.3538 -0.4092
 6238TIP3    H140129   1.951   0.452  13.559 -0.9527  0.4293 -2.1298
 6238TIP3    H240130   2.036   0.350  13.487 -0.4141 -0.3677 -0.4318
 6239TIP3   OH240131   4.399   1.111   2.083  0.1263 -0.5417 -0.3927
 6239TIP3    H140132   4.472   1.133   2.141  0.7397  0.5116 -1.5048
 6239TIP3    H240133   4.321   1.145   2.128  0.4309 -0.8398  0.3721
 6240TIP3   OH240134   4.932   0.534  16.968 -0.1247  0.3353  0.3880
 6240TIP3    H140135   4.942   0.501  17.057  0.7030 -0.6423 -0.0535
 6240TIP3    H240136   4.859   0.485  16.932 -1.4073  1.7222  0.9422
 6241TIP3   OH240137   5.685   0.544  13.521 -0.4723  0.0145 -0.2230
 6241TIP3    H140138   5.691   0.497  13.438 -2.8219 -0.9900  0.0827
 6241TIP3    H240139   5.766   0.523  13.567  1.5673  1.7824 -2.7633
 6242TIP3   OH240140   0.209   5.774   0.118  0.2386 -0.0728  0.1652
 6242TIP3    H140141   0.301   5.780   0.143  0.5062 -0.3627 -0.7257
 6242TIP3    H240142   0.181   5.864   0.107  0.3095  0.0301  0.8162
 6243TIP3   OH240143   0.769   2.773  13.486 -0.1468 -0.3210 -0.1103
 6243TIP3    H140144   0.831   2.832  13.529 -0.0719  0.4230 -1.1942
 6243TIP3    H240145   0.686   2.821  13.486 -0.1510 -0.3261 -0.7570
 6244TIP3   OH240146   3.912   0.556  13.051  0.1348  0.0202 -0.0578
 6244TIP3    H140147   3.939   0.640  13.088  3.0648 -1.1208  0.7610
 6244TIP3    H240148   3.945   0.558  12.961 -0.7530  0.1354 -0.3865
 6245TIP3   OH240149   1.906   4.274   5.072 -0.0957 -0.0564 -0.0234
 6245TIP3    H140150   1.903   4.261   5.167  1.4054  0.3870  0.1186
 6245TIP3    H240151   1.815   4.285   5.046 -0.6121 -1.0531  1.2301
 6246TIP3   OH240152   0.964   3.819  16.451  0.0235 -0.3996  0.0302
 6246TIP3    H140153   0.998   3.909  16.449 -0.8006 -0.0633  0.5047
 6246TIP3    H240154   0.952   3.796  16.359  0.6837 -0.1951 -0.1087
 6247TIP3   OH240155   1.555   2.652  15.662 -0.2304 -0.0219  0.5754
 6247TIP3    H140156   1.514   2.656  15.576 -1.9238 -1.0544  1.2797
 6247TIP3    H240157   1.588   2.562  15.669 -0.0633  0.0687  0.9723
 6248TIP3   OH240158   6.098   5.394   1.957  0.3563 -0.6092 -0.3245
 6248TIP3    H140159   6.141   5.461   1.904 -0.1556 -0.9537 -1.2079
 6248TIP3    H240160   6.159   5.376   2.028 -0.6683  2.8218  1.6515
 6249TIP3   OH240161   5.775   5.337  13.846 -0.2919 -0.4087 -0.8307
 6249TIP3    H140162   5.729   5.273  13.900 -0.0139 -0.9856 -1.2615
 6249TIP3    H240163   5.837   5.380  13.906 -1.7089  0.7298 -0.1323
 6250TIP3   OH240164   0.949   3.520   2.314  0.1046  0.0018 -0.0278
 6250TIP3    H140165   1.030   3.470   2.325 -0.2715 -0.7112 -0.4192
 6250TIP3    H240166   0.972   3.609   2.340  0.9196 -0.2675  0.2070
 6251TIP3   OH240167   1.333   1.400  17.325  0.1396 -0.1233 -0.1189
 6251TIP3    H140168   1.286   1.449  17.393 -1.3307 -0.4538 -0.8579
 6251TIP3    H240169   1.423   1.395  17.357 -0.5887 -0.6655  2.0438
 6252TIP3   OH240170   2.325   6.525   3.972  0.1567  0.2640  0.0500
 6252TIP3    H140171   2.380   6.603   3.975 -0.3547  0.6632  3.8999
 6252TIP3    H240172   2.385   6.455   3.946  1.2811  1.4618 -0.7079
 6253TIP3   OH240173   6.763   1.379   6.309 -0.0291  0.0573 -0.0308
 6253TIP3    H140174   6.744   1.441   6.238 -0.1425  0.0188 -0.0344
 6253TIP3    H240175   6.743   1.428   6.389  4.7858  1.9375  0.3446
 6254TIP3   OH240176   0.668   6.579  12.117  0.1128 -0.7166 -0.1948
 6254TIP3    H140177   0.610   6.646  12.154 -0.8467 -1.0909 -0.9900
 6254TIP3    H240178   0.619   6.498  12.124  0.2406 -0.9309 -1.5257
 6255TIP3   OH240179   1.889   4.151  13.880  0.2320  0.1149 -0.3869
 6255TIP3    H140180   1.839   4.188  13.807  0.0546  0.5618 -0.0424
 6255TIP3    H240181   1.883   4.217  13.949  0.3916 -0.3088  0.0364
 6256TIP3   OH240182   3.384   5.378   3.444 -0.2257  0.1415 -0.2040
 6256TIP3    H140183   3.393   5.308   3.379 -0.2262  1.5296 -1.7683
 6256TIP3    H240184   3.401   5.458   3.395 -1.0214  1.3160  1.3562
 6257TIP3   OH240185   3.977   5.991  15.362  0.1896 -0.1882 -0.3879
 6257TIP3    H140186   4.068   5.970  15.342  0.2783  0.3085 -0.5103
 6257TIP3    H240187   3.927   5.947  15.293  0.3705 -0.0507 -0.6089
 6258TIP3   OH240188   1.577   2.982   1.533  0.3987 -0.3675 -0.4702
 6258TIP3    H140189   1.553   2.979   1.441  1.2972 -0.5248 -0.7143
 6258TIP3    H240190   1.605   2.892   1.553 -0.8625 -0.6243  0.2700
 6259TIP3   OH240191   6.150   1.820  13.003 -0.4887 -0.2586 -0.4156
 6259TIP3    H140192   6.137   1.836  12.909  0.7177  0.9142 -0.4167
 6259TIP3    H240193   6.066   1.840  13.042 -0.7235  0.2262 -1.1434
 6260TIP3   OH240194   6.637   2.440   2.670 -0.4419 -0.1730  0.0676
 6260TIP3    H140195   6.619   2.354   2.632 -1.9371 -0.1063  0.5558
 6260TIP3    H240196   6.561   2.493   2.648  0.0693  0.7718  0.5070
 6261TIP3   OH240197   3.428   4.231   3.369  0.1041  0.5219 -0.5510
 6261TIP3    H140198   3.434   4.260   3.278  0.8032 -1.2552 -1.1170
 6261TIP3    H240199   3.368   4.293   3.410 -0.9598  0.8324 -2.4472
 6262TIP3   OH240200   3.904   3.368  15.335 -0.3524 -0.6454 -0.1766
 6262TIP3    H140201   3.943   3.284  15.358  0.7996  0.0808  0.6123
 6262TIP3    H240202   3.882   3.408  15.419 -1.4663 -0.3993 -0.5651
 6263TIP3   OH240203   3.392   5.210   2.545 -0.3470  0.3178  0.0456
 6263TIP3    H140204   3.430   5.124   2.562  1.9676  0.7092 -2.3919
 6263TIP3    H240205   3.319   5.217   2.607  0.2247 -2.7869  1.2642
 6264TIP3   OH240206   4.774   2.220  14.667  0.0937  0.5749  0.2244
 6264TIP3    H140207   4.722   2.299  14.681 -0.9504 -0.2721  1.2215
 6264TIP3    H240208   4.833   2.216  14.743 -1.4907 -0.8398  1.4412
 6265TIP3   OH240209   6.772   3.791  12.988 -0.0869 -1.1145 -0.3054
 6265TIP3    H140210   6.793   3.848  12.914  0.0732 -0.7356  0.0314
 6265TIP3    H240211   6.832   3.818  13.058 -2.6153  1.0183  1.2092
 6266TIP3   OH240212   5.459   0.737  13.789 -0.0473 -0.3178  0.5353
 6266TIP3    H140213   5.457   0.726  13.884  2.0174  0.2315  0.6973
 6266TIP3    H240214   5.367   0.746  13.764 -0.5560  1.7346  2.7734
 6267TIP3   OH240215   1.197   0.290  15.905 -0.0435  0.4300 -0.1805
 6267TIP3    H140216   1.231   0.218  15.959 -1.3778  0.8697  1.3242
 6267TIP3    H240217   1.230   0.369  15.947 -2.5762  0.8549  1.1695
 6268TIP3   OH240218   5.804   0.180   5.534  0.7769  0.5143 -0.2409
 6268TIP3    H140219   5.764   0.193   5.449 -1.0007 -0.8988  0.3259
 6268TIP3    H240220   5.781   0.258   5.584  0.7464  0.7634 -0.6389
 6269TIP3   OH240221   1.855   1.721   3.876  0.3140  0.2342 -0.4387
 6269TIP3    H140222   1.825   1.658   3.942  1.7053 -1.1689 -1.0599
 6269TIP3    H240223   1.799   1.798   3.888 -2.6599 -1.7193 -0.7974
 6270TIP3   OH240224   6.274   2.453  14.287  0.1638  0.7067  0.0149
 6270TIP3    H140225   6.370   2.449  14.294  0.4646  1.3758 -2.7969
 6270TIP3    H240226   6.255   2.545  14.273 -0.9094  0.5489  0.3641
 6271TIP3   OH240227   2.622   4.360   2.666 -0.2076 -0.1561  0.0285
 6271TIP3    H140228   2.691   4.420   2.639 -1.3873  1.7457  0.9854
 6271TIP3    H240229   2.584   4.329   2.584  0.3692  0.4982 -0.4954
 6272TIP3   OH240230   2.772   5.924  12.847  0.5469  0.5076 -0.2201
 6272TIP3    H140231   2.829   5.863  12.894  0.2905  0.3976 -0.0465
 6272TIP3    H240232   2.686   5.881  12.849  0.2578  1.0969  0.3193
 6273TIP3   OH240233   4.485   6.216  16.424  0.4052 -0.4767  0.0054
 6273TIP3    H140234   4.463   6.134  16.379  0.0411 -0.4836  0.1955
 6273TIP3    H240235   4.560   6.193  16.479 -0.4200 -0.9870  0.9541
 6274TIP3   OH240236   4.505   3.292  14.798 -0.4977 -0.3257  0.0166
 6274TIP3    H140237   4.442   3.353  14.759  0.6222  0.5664 -0.4426
 6274TIP3    H240238   4.561   3.347  14.853 -0.0079 -1.0771  0.2873
 6275TIP3   OH240239   3.452   0.957  15.685  0.0595  0.6154  0.3247
 6275TIP3    H140240   3.509   0.977  15.759 -1.1080 -1.6291  1.9332
 6275TIP3    H240241   3.370   1.002  15.705 -0.3523 -0.2247  0.5814
 6276TIP3   OH240242   1.330   1.549  13.155  0.4820  0.1285  0.2543
 6276TIP3    H140243   1.317   1.468  13.105 -0.4647  1.6082 -2.0478
 6276TIP3    H240244   1.319   1.619  13.091  0.7001  2.1347  2.2839
 6277TIP3   OH240245   2.238   1.665   2.869 -0.0789 -0.5206 -0.6666
 6277TIP3    H140246   2.177   1.714   2.924  0.8602 -0.6594  0.5428
 6277TIP3    H240247   2.195   1.661   2.783 -0.8849  1.0489 -0.3725
 6278TIP3   OH240248   5.374   5.927  12.694  0.2300 -0.3507  0.2012
 6278TIP3    H140249   5.337   6.015  12.703  0.9361  0.1235 -1.2272
 6278TIP3    H240250   5.352   5.883  12.777  0.1057  1.2497  1.0600
 6279TIP3   OH240251   4.435   5.498   5.703  0.4296  0.0046 -1.1812
 6279TIP3    H140252   4.429   5.476   5.796  0.2555 -0.9622 -1.4139
 6279TIP3    H240253   4.489   5.577   5.701  2.3498 -1.2165 -0.4037
 6280TIP3   OH240254   0.159   1.039  12.268  0.3133  0.8986  0.3514
 6280TIP3    H140255   0.139   0.955  12.310  0.5754 -1.3056 -3.4539
 6280TIP3    H240256   0.254   1.045  12.273  0.3279  0.7392  0.2931
 6281TIP3   OH240257   5.960   6.645   6.233  0.0031 -0.2179  0.2123
 6281TIP3    H140258   5.889   6.581   6.226  0.1793 -0.5021  0.9285
 6281TIP3    H240259   6.018   6.609   6.300 -0.0194  0.8185  0.8062
 6282TIP3   OH240260   1.197   2.196  13.742 -0.4174 -0.4587 -0.2688
 6282TIP3    H140261   1.117   2.147  13.722  0.0097 -1.5555  0.6269
 6282TIP3    H240262   1.263   2.128  13.760  0.3952  0.4423  0.2321
 6283TIP3   OH240263   5.687   5.485   5.486 -0.3350  0.2010 -0.2709
 6283TIP3    H140264   5.717   5.534   5.409  1.5017  0.0228  0.2721
 6283TIP3    H240265   5.768   5.457   5.529 -1.3338 -0.9127  0.9616
 6284TIP3   OH240266   0.867   6.296   1.244 -0.0059 -0.1032 -0.5450
 6284TIP3    H140267   0.953   6.272   1.277  0.4949  0.8147 -1.1459
 6284TIP3    H240268   0.806   6.272   1.314  0.6274 -1.5478 -0.4570
 6285TIP3   OH240269   5.682   2.617  14.688  0.0921 -0.4638  0.0245
 6285TIP3    H140270   5.636   2.559  14.749 -2.7263  0.2381 -1.2504
 6285TIP3    H240271   5.702   2.561  14.613  1.6145 -0.8117  0.6487
 6286TIP3   OH240272   5.843   1.847   4.741  0.0996  0.4897  0.5036
 6286TIP3    H140273   5.905   1.900   4.791 -0.4423  1.7857 -0.1569
 6286TIP3    H240274   5.798   1.909   4.684 -2.8947 -0.1246  2.0150
 6287TIP3   OH240275   1.930   5.420   6.965  0.7469  0.6079 -0.2529
 6287TIP3    H140276   1.851   5.381   6.928  1.2286  1.2399 -2.0505
 6287TIP3    H240277   2.002   5.375   6.922  1.3792  0.5938  0.7733
 6288TIP3   OH240278   4.962   2.323   4.246  0.1281 -0.1376 -0.1972
 6288TIP3    H140279   4.898   2.318   4.317  0.0385  2.3830 -0.0061
 6288TIP3    H240280   4.953   2.412   4.212  0.8205 -0.9636 -2.7891
 6289TIP3   OH240281   1.504   0.095   2.406 -0.0943 -0.0925 -0.3999
 6289TIP3    H140282   1.520   0.189   2.404 -0.0882 -0.0103  1.3726
 6289TIP3    H240283   1.535   0.063   2.322  2.0656  1.1735 -0.1586
 6290TIP3   OH240284   2.476   1.961  13.682 -0.4738  0.3263 -0.0149
 6290TIP3    H140285   2.474   2.047  13.725 -0.7421  0.2359  0.1536
 6290TIP3    H240286   2.533   1.908  13.738 -0.0503  0.4824 -0.2903
 6291TIP3   OH240287   5.180   0.444   5.354  0.1673  0.0554 -0.0354
 6291TIP3    H140288   5.200   0.350   5.360 -0.8895 -0.2764 -1.2246
 6291TIP3    H240289   5.231   0.474   5.278 -1.1065 -0.0465 -0.9591
 6292TIP3   OH240290   5.526   0.277  11.927 -0.1937 -0.2078  0.1083
 6292TIP3    H140291   5.534   0.328  12.008 -2.2772  1.1111 -0.4352
 6292TIP3    H240292   5.538   0.341  11.857 -1.0539 -0.7995 -0.6076
 6293TIP3   OH240293   4.831   5.108   3.374  0.0162  0.4356 -0.8878
 6293TIP3    H140294   4.772   5.118   3.299 -1.5301  1.0762  0.3725
 6293TIP3    H240295   4.892   5.039   3.347 -1.4048 -0.3832 -2.1798
 6294TIP3   OH240296   3.343   2.900  12.489  0.2256  0.2255  0.5731
 6294TIP3    H140297   3.407   2.841  12.449  0.8072  0.6485  0.8723
 6294TIP3    H240298   3.395   2.964  12.537 -0.4251  0.4799  0.9625
 6295TIP3   OH240299   1.163   6.264   1.303  0.1139 -0.0442  0.6868
 6295TIP3    H140300   1.200   6.351   1.290  1.8304 -0.9507 -0.9696
 6295TIP3    H240301   1.206   6.231   1.382  0.4118  0.1319  0.5969
 6296TIP3   OH240302   5.942   2.218  14.983 -0.3736  0.1946 -0.0877
 6296TIP3    H140303   6.035   2.194  14.990 -0.7537 -1.6077 -0.7788
 6296TIP3    H240304   5.931   2.245  14.892 -0.7728 -0.8643 -0.3730
 6297TIP3   OH240305   6.549   0.281   2.945  0.1867  0.0326  0.0644
 6297TIP3    H140306   6.561   0.204   3.001 -0.8430 -0.9009 -0.9462
 6297TIP3    H240307   6.551   0.246   2.856  1.0762  1.3811 -0.4784
 6298TIP3   OH240308   3.901   1.858   0.141  0.3908  0.3509  0.3328
 6298TIP3    H140309   3.909   1.763   0.133  0.6813  0.1717  2.3092
 6298TIP3    H240310   3.820   1.879   0.094 -0.0984 -0.9857  0.5398
 6299TIP3   OH240311   5.685   0.657  11.359  0.7554 -0.8360 -0.0196
 6299TIP3    H140312   5.711   0.567  11.340  1.4761 -0.8225  0.8589
 6299TIP3    H240313   5.707   0.706  11.280  2.7404 -0.9638  0.4128
 6300TIP3   OH240314   3.438   0.603  11.347 -0.5877 -0.1987  0.3532
 6300TIP3    H140315   3.509   0.656  11.383 -0.7483  0.0404  0.3166
 6300TIP3    H240316   3.384   0.579  11.422 -0.6678 -0.0833  0.3317
 6301TIP3   OH240317   0.298   6.191   2.021 -0.4051 -0.0386  0.2194
 6301TIP3    H140318   0.358   6.265   2.035  0.7514 -0.3295 -2.5732
 6301TIP3    H240319   0.215   6.222   2.056  0.0427  2.6038 -0.7993
 6302TIP3   OH240320   2.659   0.878   5.100  0.2977 -0.6718  0.9533
 6302TIP3    H140321   2.708   0.916   5.173 -2.2225  0.6487  2.1018
 6302TIP3    H240322   2.609   0.951   5.064 -0.6737 -1.8739 -0.2361
 6303TIP3   OH240323   4.425   1.081   1.567  0.3457  0.4363 -0.2958
 6303TIP3    H140324   4.512   1.047   1.586  1.2935  1.8597 -1.8436
 6303TIP3    H240325   4.393   1.027   1.494  1.1790  1.7068 -1.6616
 6304TIP3   OH240326   5.503   4.654  17.330 -0.1345 -0.2765 -0.3289
 6304TIP3    H140327   5.533   4.564  17.318  0.9336 -0.0167  0.2717
 6304TIP3    H240328   5.575   4.708  17.300 -1.6620  0.4571 -2.9657
 6305TIP3   OH240329   5.576   3.864  13.277  0.0600 -0.4450  0.5401
 6305TIP3    H140330   5.518   3.936  13.302  0.4974 -0.1064  0.6042
 6305TIP3    H240331   5.657   3.881  13.326  1.2184  0.6400 -1.6023
 6306TIP3   OH240332   1.965   3.870   6.555 -0.0897  0.2601  0.2429
 6306TIP3    H140333   2.025   3.927   6.507  1.1062 -0.7936  0.4399
 6306TIP3    H240334   1.888   3.864   6.499  0.6300  0.3631 -0.7920
 6307TIP3   OH240335   0.069   0.992   2.402  0.4871 -0.0846  0.5478
 6307TIP3    H140336   0.015   0.971   2.326  0.2846  0.7023  0.4661
 6307TIP3    H240337   0.076   1.087   2.401  1.0029 -0.1071  1.1615
 6308TIP3   OH240338   3.689   5.852   2.821 -0.5498 -0.8559 -0.2568
 6308TIP3    H140339   3.704   5.775   2.876  1.0708 -1.8009 -1.9015
 6308TIP3    H240340   3.651   5.816   2.741  0.2552  0.0426 -1.0597
 6309TIP3   OH240341   1.863   2.964  13.340 -0.0569 -0.2242  0.6495
 6309TIP3    H140342   1.898   2.971  13.428  0.1264  2.7137  0.4276
 6309TIP3    H240343   1.776   2.925  13.351 -1.4707  3.1146  2.6089
 6310TIP3   OH240344   5.829   4.803   0.189 -0.0717  0.4427 -0.3716
 6310TIP3    H140345   5.924   4.813   0.197 -0.0717 -0.6119  2.0224
 6310TIP3    H240346   5.794   4.837   0.272 -1.8013  0.8642 -1.2210
 6311TIP3   OH240347   2.678   3.684   3.259  0.5432 -0.0184 -0.3755
 6311TIP3    H140348   2.609   3.635   3.303 -0.1775  0.1248 -1.3113
 6311TIP3    H240349   2.758   3.660   3.305  0.1274 -1.6325 -0.4364
 6312TIP3   OH240350   0.974   1.764   0.383 -0.3505  0.4744  0.4995
 6312TIP3    H140351   0.975   1.675   0.418 -0.7688 -0.0745 -0.8407
 6312TIP3    H240352   0.983   1.820   0.461 -0.6915 -0.7122  1.4263
 6313TIP3   OH240353   2.078   4.610  11.708 -0.8797 -0.2846  0.3970
 6313TIP3    H140354   2.121   4.659  11.638 -2.3345 -1.0397 -1.0911
 6313TIP3    H240355   2.012   4.671  11.743 -1.1827 -0.4134  0.0576
 6314TIP3   OH240356   2.149   6.047  11.822  0.8436 -0.0231  0.1204
 6314TIP3    H140357   2.170   6.139  11.838  0.5381  0.1843 -0.6462
 6314TIP3    H240358   2.078   6.027  11.883  0.5776  0.3835 -0.0557
 6315TIP3   OH240359   6.620   3.057   0.378  0.5108 -0.0981  0.3325
 6315TIP3    H140360   6.689   2.993   0.355  3.0753  1.7447  2.3403
 6315TIP3    H240361   6.646   3.137   0.332 -1.5905  0.1051 -0.6027
 6316TIP3   OH240362   4.243   5.097   0.643  0.3380  0.2287 -0.2674
 6316TIP3    H140363   4.210   5.084   0.732 -0.6595 -0.6282 -0.7470
 6316TIP3    H240364   4.218   5.186   0.620  0.7157  0.5017  0.3438
 6317TIP3   OH240365   5.968   3.462  12.930 -0.0640 -0.9040  0.2200
 6317TIP3    H140366   6.000   3.388  12.877  2.5494  0.7090 -0.6347
 6317TIP3    H240367   5.941   3.528  12.866  1.2891  0.3250  0.8684
 6318TIP3   OH240368   5.548   5.455   6.017  0.1996  0.2047  0.0818
 6318TIP3    H140369   5.501   5.432   5.938 -0.9652 -0.2559  0.8780
 6318TIP3    H240370   5.640   5.446   5.994  0.0033  2.2481 -1.8795
 6319TIP3   OH240371   3.303   1.302  15.478 -0.9564  0.2663  0.4320
 6319TIP3    H140372   3.265   1.309  15.566 -4.5420 -1.7755 -0.7654
 6319TIP3    H240373   3.261   1.373  15.429  2.1954  2.4216  0.5282
 6320TIP3   OH240374   2.569   1.271   2.414  0.0560 -0.1244  0.2656
 6320TIP3    H140375   2.580   1.344   2.475  0.6684  0.6682 -0.7558
 6320TIP3    H240376   2.476   1.251   2.416 -0.0411  0.3634  0.9139
 6321TIP3   OH240377   6.477   3.386   4.297  0.0141  0.1739  0.3258
 6321TIP3    H140378   6.408   3.367   4.233 -0.5291  0.9118  0.6714
 6321TIP3    H240379   6.530   3.454   4.255  0.6274 -0.4950  0.0011
 6322TIP3   OH240380   5.277   0.476   2.896 -0.1455  0.3905  0.6325
 6322TIP3    H140381   5.246   0.390   2.923 -2.1944  1.4147  1.7715
 6322TIP3    H240382   5.198   0.529   2.887  0.6130  1.2140 -3.8954
 6323TIP3   OH240383   4.968   1.558  15.972 -0.3015  0.2250 -0.2493
 6323TIP3    H140384   4.996   1.642  15.936 -0.5413  0.7286  0.7245
 6323TIP3    H240385   4.873   1.565  15.980 -0.4925 -0.6484 -1.4117
 6324TIP3   OH240386   5.127   0.914  16.037 -0.6334  0.1743 -0.5331
 6324TIP3    H140387   5.145   1.006  16.057  0.5633  0.4340 -2.4804
 6324TIP3    H240388   5.212   0.871  16.041 -1.1486 -0.8022  0.1106
 6325TIP3   OH240389   2.233   0.693   1.525 -0.6173  0.2753  0.5674
 6325TIP3    H140390   2.318   0.660   1.554 -0.6263 -2.3298 -1.9525
 6325TIP3    H240391   2.170   0.626   1.552 -1.2643  0.1771 -1.0659
 6326TIP3   OH240392   0.020   1.869  12.076  0.9529  0.2174  0.5844
 6326TIP3    H140393  -0.011   1.823  12.154  1.0753  0.1286  0.5809
 6326TIP3    H240394   0.021   1.962  12.102 -1.3170  0.4994 -0.0558
 6327TIP3   OH240395   0.987   5.802  15.742  0.5302 -0.4232  0.3667
 6327TIP3    H140396   0.927   5.871  15.716  1.8189  0.9260  0.8075
 6327TIP3    H240397   0.969   5.789  15.835 -0.1735 -1.1924  0.1370
 6328TIP3   OH240398   1.300   0.979  11.185 -0.7479  0.6564  0.5844
 6328TIP3    H140399   1.391   0.989  11.213 -0.1879  0.0895 -0.9433
 6328TIP3    H240400   1.280   1.060  11.137 -1.1065  0.8346  1.0211
 6329TIP3   OH240401   6.419   0.040  16.529  0.0293 -0.1162 -0.1307
 6329TIP3    H140402   6.376  -0.036  16.568 -0.2608  0.5274  0.8420
 6329TIP3    H240403   6.512   0.024  16.542 -0.0700  0.2419  1.1623
 6330TIP3   OH240404   6.404   1.055   0.923 -0.6226  0.4119  0.3557
 6330TIP3    H140405   6.474   1.112   0.890  1.5514 -1.7809  0.8232
 6330TIP3    H240406   6.405   1.069   1.018  0.5790 -0.9386  0.5932
 6331TIP3   OH240407   0.295   4.734  15.476  0.5070  0.1080 -0.5816
 6331TIP3    H140408   0.300   4.692  15.390  2.3900  0.9312 -0.9352
 6331TIP3    H240409   0.254   4.669  15.532  0.6500 -1.0562 -1.7690
 6332TIP3   OH240410   1.802   3.267  16.039  0.1064 -0.5357  0.3917
 6332TIP3    H140411   1.718   3.240  16.002  0.0935  1.4325 -1.1520
 6332TIP3    H240412   1.853   3.186  16.043 -1.0268 -1.3663 -0.9562
 6333TIP3   OH240413   5.878   4.025   2.214  0.4108  0.3220  0.2296
 6333TIP3    H140414   5.825   3.957   2.171 -0.1663  0.6599  0.3906
 6333TIP3    H240415   5.950   4.041   2.153  0.3645 -0.1910  0.0334
 6334TIP3   OH240416   0.163   0.051   4.751 -0.2956 -0.3004  0.2684
 6334TIP3    H140417   0.250   0.081   4.725 -0.6778  1.1825  0.6221
 6334TIP3    H240418   0.108   0.068   4.674 -0.2423 -1.4679 -0.0459
 6335TIP3   OH240419   6.162   4.022   4.931 -0.1540 -0.2412 -0.1095
 6335TIP3    H140420   6.246   4.058   4.960 -0.8807  0.0031  1.9265
 6335TIP3    H240421   6.101   4.096   4.938 -0.5954 -0.4738 -1.3276
 6336TIP3   OH240422   4.132   0.105  17.306 -0.2403  0.0973 -0.1994
 6336TIP3    H140423   4.113   0.195  17.331 -2.1134 -0.0299 -1.0328
 6336TIP3    H240424   4.048   0.059  17.314  0.9283 -1.9679  1.6440
 6337TIP3   OH240425   5.738   4.633  13.953 -0.2620 -0.2425 -0.6652
 6337TIP3    H140426   5.813   4.673  13.998 -0.4366 -2.3781  1.7214
 6337TIP3    H240427   5.737   4.542  13.984 -1.9788 -1.1589 -3.0991
 6338TIP3   OH240428   5.631   5.607  14.080  0.2003 -0.1712 -0.3943
 6338TIP3    H140429   5.587   5.538  14.032 -0.0785 -1.5705  1.7498
 6338TIP3    H240430   5.681   5.561  14.148  0.9018  1.6621  0.3950
 6339TIP3   OH240431   1.311   0.996  15.134  0.0202  0.1317  0.4001
 6339TIP3    H140432   1.375   0.955  15.075 -0.5446  0.7450 -0.6679
 6339TIP3    H240433   1.355   1.074  15.167 -0.4255  1.0041 -0.9742
 6340TIP3   OH240434   4.005   0.626  11.100  0.0009 -0.8319 -0.1774
 6340TIP3    H140435   3.991   0.631  11.005  0.4565  2.6592 -0.1885
 6340TIP3    H240436   4.097   0.603  11.110  0.9608  2.2438 -0.8047
 6341TIP3   OH240437   5.299   2.277   3.314 -0.1615 -0.1756 -0.6806
 6341TIP3    H140438   5.308   2.365   3.275  0.5604  0.3990  0.7184
 6341TIP3    H240439   5.371   2.271   3.377 -1.0215 -1.2353  0.2417
 6342TIP3   OH240440   3.003   3.460   2.052 -0.1150  0.5932 -0.1247
 6342TIP3    H140441   2.969   3.442   2.140 -0.3803  1.5188 -0.0206
 6342TIP3    H240442   2.977   3.551   2.035 -1.1364  0.0512 -1.6530
 6343TIP3   OH240443   0.067   6.272   2.155 -0.5555  0.5056 -0.3062
 6343TIP3    H140444   0.038   6.362   2.142  0.4806  0.6105 -2.3203
 6343TIP3    H240445  -0.012   6.219   2.142 -0.6757  1.0013 -1.7456
 6344TIP3   OH240446   0.572   2.781   3.718 -0.0521 -0.3064  0.0598
 6344TIP3    H140447   0.523   2.811   3.641  3.2692 -0.1760 -2.2453
 6344TIP3    H240448   0.640   2.848   3.729  1.2779 -1.8052  1.2911
 6345TIP3   OH240449   0.044   6.768  17.059 -0.1235  0.0841  0.1680
 6345TIP3    H140450  -0.012   6.734  17.129 -0.5149  0.5846  0.1062
 6345TIP3    H240451   0.022   6.716  16.982  1.3932 -1.5090  0.7409
 6346TIP3   OH240452   3.159   3.456   5.040  0.2897 -0.2449  0.0151
 6346TIP3    H140453   3.243   3.437   4.997 -0.1726  0.3919 -1.1908
 6346TIP3    H240454   3.110   3.508   4.977 -0.8503 -0.2138  0.8890
 6347TIP3   OH240455   0.521   2.957  15.509  0.0116  0.0549 -1.0104
 6347TIP3    H140456   0.518   2.871  15.468  2.4950 -1.3900  1.4374
 6347TIP3    H240457   0.580   3.009  15.454  0.3749 -0.6000 -1.2442
 6348TIP3   OH240458   0.680   5.144   1.287 -0.6085  0.1491  0.0557
 6348TIP3    H140459   0.658   5.069   1.342 -0.1376  0.2216  0.3505
 6348TIP3    H240460   0.597   5.171   1.249 -0.9015 -0.0622  0.5325
 6349TIP3   OH240461   1.340   6.707   2.909 -0.5157 -0.2903  0.0197
 6349TIP3    H140462   1.382   6.741   2.987 -0.6459 -0.5787  0.2158
 6349TIP3    H240463   1.252   6.745   2.911  0.3537  2.0814 -1.5104
 6350TIP3   OH240464   2.806   1.742  14.537 -0.3040  0.1462  0.4027
 6350TIP3    H140465   2.727   1.719  14.488  0.4411 -0.9874 -0.3098
 6350TIP3    H240466   2.876   1.735  14.473  0.4307  0.7237  1.1334
 6351TIP3   OH240467   1.052   1.887  14.002  0.3967  0.3507  0.4360
 6351TIP3    H140468   0.985   1.950  14.027  1.3906  0.9525  1.7031
 6351TIP3    H240469   1.004   1.806  13.984 -0.6095  0.5250  2.1675
 6352TIP3   OH240470   0.561   5.613   4.146  0.2547 -0.8582  0.1370
 6352TIP3    H140471   0.470   5.639   4.126  1.0472  0.2790 -2.3942
 6352TIP3    H240472   0.587   5.673   4.216 -0.8298 -1.0098  0.7025
 6353TIP3   OH240473   1.795   1.398  13.033  0.6198  0.0860 -0.1699
 6353TIP3    H140474   1.802   1.398  13.128 -1.0797  0.1355 -0.0279
 6353TIP3    H240475   1.877   1.357  13.003  1.3231  0.3825  1.2769
 6354TIP3   OH240476   0.278   1.415  14.264 -0.2261 -0.2893 -0.2798
 6354TIP3    H140477   0.349   1.475  14.241 -1.0533  0.4421 -1.0328
 6354TIP3    H240478   0.321   1.343  14.311  1.1432 -0.3613 -1.5719
 6355TIP3   OH240479   4.426   1.503  14.389  0.3912  0.1749 -0.0039
 6355TIP3    H140480   4.477   1.472  14.464  2.2031  1.5633 -0.5927
 6355TIP3    H240481   4.392   1.588  14.417  0.4967  0.3805 -0.4779
 6356TIP3   OH240482   3.276   1.389   5.366 -0.0909  0.2856 -0.0066
 6356TIP3    H140483   3.317   1.345   5.292 -1.8812  0.1738 -0.9769
 6356TIP3    H240484   3.343   1.389   5.434  2.2892  1.9851 -2.1528
 6357TIP3   OH240485   4.273   2.082  12.964 -0.3153 -0.0387  0.2622
 6357TIP3    H140486   4.205   2.023  12.933 -0.1737 -0.3970  0.6108
 6357TIP3    H240487   4.355   2.045  12.930 -0.3926  1.2540 -1.4862
 6358TIP3   OH240488   4.319   1.235  10.683 -0.4924  0.1830 -0.2136
 6358TIP3    H140489   4.380   1.261  10.614  1.0586  0.1324  1.0763
 6358TIP3    H240490   4.275   1.157  10.649  1.1840 -0.6154 -0.6484
 6359TIP3   OH240491   2.915   5.158   4.973  0.2851 -0.0749 -0.3491
 6359TIP3    H140492   2.846   5.223   4.964  0.7364  0.2177 -1.8818
 6359TIP3    H240493   2.889   5.086   4.916  1.3158  0.1080 -1.0798
 6360TIP3   OH240494   0.736   1.396   3.764 -0.6618  0.3674  0.4810
 6360TIP3    H140495   0.786   1.328   3.720  1.5916  2.2387 -0.0536
 6360TIP3    H240496   0.775   1.401   3.852 -1.7488  0.0462  0.9929
 6361TIP3   OH240497   1.743   4.298   2.165 -0.1713 -0.1342  0.5767
 6361TIP3    H140498   1.761   4.205   2.154 -0.3941 -0.3317  1.7460
 6361TIP3    H240499   1.800   4.341   2.101  2.0337 -0.9194  1.8818
 6362TIP3   OH240500   1.564   1.230   3.252 -0.3106 -0.5564  0.2162
 6362TIP3    H140501   1.588   1.255   3.341  1.0516  0.5797 -0.4380
 6362TIP3    H240502   1.554   1.135   3.255  3.1801 -1.0294  0.8423
 6363TIP3   OH240503   3.197   2.152  13.977 -0.1480 -0.1266 -0.2607
 6363TIP3    H140504   3.212   2.060  13.959 -1.3433 -0.6336  1.0756
 6363TIP3    H240505   3.102   2.159  13.991 -0.1072  1.3367 -0.5183
 6364TIP3   OH240506   3.150   0.835   0.304 -0.2727  0.3038 -0.2652
 6364TIP3    H140507   3.135   0.924   0.334  0.9809  1.3370 -2.4764
 6364TIP3    H240508   3.242   0.818   0.325 -0.6555 -0.7469  0.6932
 6365TIP3   OH240509   4.978   0.155  14.089 -0.3574  0.1887 -0.2140
 6365TIP3    H140510   5.055   0.101  14.107 -0.3953  0.3576  0.4886
 6365TIP3    H240511   4.982   0.173  13.995  0.4243  0.1478 -0.1918
 6366TIP3   OH240512   0.386   5.700   3.665  0.1876  0.2727  0.5058
 6366TIP3    H140513   0.479   5.720   3.674  0.6558 -0.2339 -2.3853
 6366TIP3    H240514   0.383   5.607   3.642 -0.5235  1.1905 -4.0404
 6367TIP3   OH240515   4.809   0.127  17.209  0.2366 -0.4324  0.2998
 6367TIP3    H140516   4.769   0.069  17.144  0.5537 -0.9825  0.5861
 6367TIP3    H240517   4.771   0.099  17.293  2.4116 -2.1346  0.8230
 6368TIP3   OH240518   2.577   1.101  13.561  0.3747  0.0356 -0.2616
 6368TIP3    H140519   2.662   1.094  13.518 -0.5617 -0.4443 -2.1196
 6368TIP3    H240520   2.561   1.013  13.595  0.3977  0.0003 -0.3412
 6369TIP3   OH240521   3.214   6.730   3.209  0.2439  0.7102  0.2481
 6369TIP3    H140522   3.214   6.751   3.302 -1.6572  1.7005  0.0811
 6369TIP3    H240523   3.122   6.734   3.183  0.8373  1.8617 -1.9749
 6370TIP3   OH240524   5.454   3.805  17.019 -0.2424  0.3279  0.7507
 6370TIP3    H140525   5.537   3.852  17.015  0.7961 -1.3535  1.4262
 6370TIP3    H240526   5.462   3.736  16.953 -1.1746  0.2332  0.7164
 6371TIP3   OH240527   2.182   3.845   1.399 -0.2059 -0.0404 -0.2140
 6371TIP3    H140528   2.188   3.836   1.494  0.9274  0.2251 -0.2485
 6371TIP3    H240529   2.239   3.776   1.365 -0.0445  0.3221 -0.6835
 6372TIP3   OH240530   6.074   5.942  12.804  0.4861  0.2989 -0.4359
 6372TIP3    H140531   6.107   5.993  12.730 -0.2228 -0.2540 -1.1499
 6372TIP3    H240532   6.011   5.881  12.765  0.0756  0.0206  0.6277
 6373TIP3   OH240533   0.572   1.311   1.537 -0.0396  0.2752  0.1196
 6373TIP3    H140534   0.621   1.310   1.619  3.5428 -0.3297 -1.8183
 6373TIP3    H240535   0.510   1.239   1.544  2.2736 -1.7273  1.2290
 6374TIP3   OH240536   5.377   5.940  14.689 -0.3958 -0.0991 -0.4807
 6374TIP3    H140537   5.298   5.972  14.731 -0.9610 -1.5403 -0.3732
 6374TIP3    H240538   5.352   5.922  14.599 -0.0124  0.0853 -0.6271
 6375TIP3   OH240539   6.633   0.212  11.990 -0.8744 -0.1208  0.6802
 6375TIP3    H140540   6.627   0.284  12.053  1.3874  0.7679 -0.0352
 6375TIP3    H240541   6.701   0.155  12.026 -1.2063 -0.8446  0.1824
 6376TIP3   OH240542   3.552   4.894   3.066 -0.2971  0.0035 -0.2947
 6376TIP3    H140543   3.484   4.960   3.052 -1.1043 -1.1717 -2.3724
 6376TIP3    H240544   3.623   4.919   3.007 -0.3341 -0.6068 -0.6088
 6377TIP3   OH240545   3.769   1.649  15.526 -0.5768 -0.0378 -0.5745
 6377TIP3    H140546   3.776   1.721  15.463  0.5298 -0.1079 -0.5643
 6377TIP3    H240547   3.794   1.571  15.476 -0.3253 -0.1894 -0.2152
 6378TIP3   OH240548   0.810   1.876  12.492 -0.1113 -0.2171 -0.3192
 6378TIP3    H140549   0.884   1.913  12.541  0.0054  0.2928 -0.8664
 6378TIP3    H240550   0.739   1.938  12.506 -0.7234 -1.1717  0.9540
 6379TIP3   OH240551   0.209   0.448   4.760 -0.6555  0.5842  0.2768
 6379TIP3    H140552   0.261   0.479   4.686 -1.2400  0.5450 -0.1569
 6379TIP3    H240553   0.127   0.417   4.721 -0.5480 -0.4359  0.8209
 6380TIP3   OH240554   2.514   1.287   0.505  0.4119  0.3516 -0.4780
 6380TIP3    H140555   2.516   1.219   0.438  0.6012  0.7548 -0.8868
 6380TIP3    H240556   2.543   1.242   0.585  1.0183  0.0684 -0.8490
 6381TIP3   OH240557   2.294   0.839  14.561 -0.3251 -0.4086  0.4751
 6381TIP3    H140558   2.220   0.853  14.621 -0.0664 -0.8818  0.9092
 6381TIP3    H240559   2.282   0.906  14.493 -1.3354 -0.6932  0.3589
 6382TIP3   OH240560   0.886   1.557   1.388 -0.4002 -0.2009 -0.1002
 6382TIP3    H140561   0.802   1.591   1.419 -0.2369  0.1614 -0.0499
 6382TIP3    H240562   0.928   1.631   1.345 -0.6412 -0.7089 -1.2514
 6383TIP3   OH240563   3.228   4.520   5.058 -0.2165  0.1946 -0.0771
 6383TIP3    H140564   3.196   4.499   4.970 -1.9635  0.3674  0.4665
 6383TIP3    H240565   3.148   4.531   5.109  0.7733  0.3577  1.4750
 6384TIP3   OH240566   1.419   5.982  15.271  0.1473  0.2900 -0.5691
 6384TIP3    H140567   1.496   5.945  15.228 -0.1233  0.1601 -0.9481
 6384TIP3    H240568   1.431   6.076  15.266  1.2031  0.2712  1.0610
 6385TIP3   OH240569   0.961   5.760   5.690 -0.5315  0.1264 -0.3420
 6385TIP3    H140570   0.879   5.742   5.737 -1.3185  0.6475 -1.4675
 6385TIP3    H240571   1.028   5.760   5.759 -1.6546  0.9674  0.8063
 6386TIP3   OH240572   1.035   5.004  13.988 -0.5999  0.0504  0.5392
 6386TIP3    H140573   0.976   4.937  13.953 -0.5746  0.3526 -0.1025
 6386TIP3    H240574   1.122   4.977  13.958 -0.7424  1.0836 -0.8989
 6387TIP3   OH240575   5.979   4.587  13.260  0.3787 -0.0468 -0.1622
 6387TIP3    H140576   6.043   4.519  13.239  0.4057 -0.0232 -0.1572
 6387TIP3    H240577   5.894   4.544  13.254  0.3270  0.1802 -1.2156
 6388TIP3   OH240578   1.167   0.476  11.974  0.8795  0.2665 -0.4452
 6388TIP3    H140579   1.154   0.390  11.934 -2.2346  1.6562 -2.8812
 6388TIP3    H240580   1.243   0.512  11.929  0.7156 -0.3057 -1.2085
 6389TIP3   OH240581   3.565   5.382  12.596 -0.8032 -0.2464  0.2938
 6389TIP3    H140582   3.651   5.359  12.632 -1.3263 -1.5861  0.7208
 6389TIP3    H240583   3.572   5.362  12.503  0.2216  2.2834 -0.2782
 6390TIP3   OH240584   3.628   6.085   5.780  0.1365 -0.0504  0.1863
 6390TIP3    H140585   3.539   6.119   5.766 -0.3795 -0.7975  1.4630
 6390TIP3    H240586   3.629   6.002   5.731  0.0930 -0.0894  0.2506
 6391TIP3   OH240587   1.796   5.074  12.423 -0.0562 -0.3043 -0.2425
 6391TIP3    H140588   1.761   5.021  12.352 -0.4600 -0.8545  0.3463
 6391TIP3    H240589   1.721   5.088  12.481  0.5173 -0.8982  0.6812
 6392TIP3   OH240590   0.093   4.888   5.512  0.1951 -0.0216  0.0299
 6392TIP3    H140591   0.166   4.877   5.572 -1.3265  0.3924  2.0463
 6392TIP3    H240592   0.128   4.942   5.441  2.3679 -1.5536 -0.1349
 6393TIP3   OH240593   3.902   0.269  11.188 -0.3906  0.4260 -0.0811
 6393TIP3    H140594   3.936   0.226  11.267  1.2197 -0.7102 -1.3272
 6393TIP3    H240595   3.818   0.226  11.172  0.0629 -0.5498  0.0822
 6394TIP3   OH240596   0.003   2.899   4.341  0.5179  0.3059 -0.0624
 6394TIP3    H140597  -0.053   2.947   4.279  0.6829 -0.5147 -0.8633
 6394TIP3    H240598  -0.026   2.929   4.427 -1.4391 -0.3732 -0.4318
 6395TIP3   OH240599   3.339   5.580  11.349 -0.1327  0.4614 -0.7065
 6395TIP3    H140600   3.320   5.568  11.256 -1.9314 -1.9357 -0.1290
 6395TIP3    H240601   3.352   5.491  11.382 -0.0840  1.2184  1.4443
 6396TIP3   OH240602   1.858   0.707   3.075 -0.0088  0.0508  0.8986
 6396TIP3    H140603   1.937   0.745   3.035  0.2500 -2.2644 -1.0566
 6396TIP3    H240604   1.888   0.623   3.111 -1.8199 -1.8056 -1.5988
 6397TIP3   OH240605   3.864   0.949   0.893  0.2502  0.4337  0.3136
 6397TIP3    H140606   3.780   0.961   0.849 -1.4845 -2.4008  2.5080
 6397TIP3    H240607   3.885   1.035   0.930 -2.5359  0.8813  1.0265
 6398TIP3   OH240608   3.395   2.957   0.582  0.0271 -0.1253 -0.6186
 6398TIP3    H140609   3.393   2.871   0.540 -0.1111 -0.3218 -0.2047
 6398TIP3    H240610   3.459   2.948   0.653 -1.4909 -0.4951  0.7515
 6399TIP3   OH240611   3.862   5.487  14.412  0.2454  0.2504 -0.4015
 6399TIP3    H140612   3.868   5.555  14.480  1.9305 -1.5729  1.4238
 6399TIP3    H240613   3.820   5.413  14.456  1.9391 -1.1915 -1.0997
 6400TIP3   OH240614   4.653   5.168  15.771  0.2145 -0.0526  0.4125
 6400TIP3    H140615   4.713   5.207  15.835 -0.2431 -2.1541  2.2669
 6400TIP3    H240616   4.568   5.166  15.816 -0.8720  1.1394 -1.4439
 6401TIP3   OH240617   3.140   4.235   4.688  0.2424 -0.5894  0.3162
 6401TIP3    H140618   3.149   4.211   4.596 -2.2633 -3.0172  0.5477
 6401TIP3    H240619   3.143   4.152   4.735 -1.2956  0.2682  2.1017
 6402TIP3   OH240620   3.111   6.304   1.414 -0.5376  0.5387  0.6206
 6402TIP3    H140621   3.049   6.235   1.438  0.3262  0.0680  1.6208
 6402TIP3    H240622   3.196   6.271   1.445 -0.0157  1.8022  0.6088
 6403TIP3   OH240623   3.285   5.864   3.345  0.2298  0.6798 -0.2990
 6403TIP3    H140624   3.252   5.796   3.285 -1.0914  2.4668 -1.7163
 6403TIP3    H240625   3.285   5.821   3.431 -1.2135 -0.9149 -1.0209
 6404TIP3   OH240626   2.968   0.036   1.509 -0.2189 -0.1095 -0.4251
 6404TIP3    H140627   3.061   0.046   1.526 -0.2446  0.4698 -0.6206
 6404TIP3    H240628   2.957  -0.058   1.494  0.0755 -0.4019  1.0492
 6405TIP3   OH240629   4.808   1.221   0.651  0.1823 -0.0241 -0.1653
 6405TIP3    H140630   4.714   1.230   0.636  0.0531  0.0005  0.6429
 6405TIP3    H240631   4.822   1.126   0.658  0.3867 -0.0918 -1.2962
 6406TIP3   OH240632   1.518   1.302  11.555 -0.0639  0.0185  0.0549
 6406TIP3    H140633   1.569   1.324  11.477  0.3592  1.1790  0.6314
 6406TIP3    H240634   1.579   1.254  11.611  0.4289  1.3564  0.7192
 6407TIP3   OH240635   1.382   6.120   0.536  0.2636 -0.0181 -0.4683
 6407TIP3    H140636   1.387   6.151   0.445  1.4766  1.7794  0.1581
 6407TIP3    H240637   1.469   6.085   0.554  0.2644  0.3141  0.2085
 6408TIP3   OH240638   6.302   2.928   4.529  0.0081  0.0131  0.2594
 6408TIP3    H140639   6.262   2.886   4.453 -0.1294 -1.9693  1.3447
 6408TIP3    H240640   6.363   2.992   4.492 -0.2978 -0.6525 -1.4997
 6409TIP3   OH240641   1.634   1.089  12.748  0.7107  0.3629  0.0573
 6409TIP3    H140642   1.633   1.040  12.665 -0.8728 -0.7105  0.6511
 6409TIP3    H240643   1.721   1.073  12.784  1.1654  0.2448 -1.0584
 6410TIP3   OH240644   5.286   0.224   2.169  0.5267 -0.3493  0.4398
 6410TIP3    H140645   5.217   0.179   2.121  1.3514 -0.4084 -0.7376
 6410TIP3    H240646   5.250   0.311   2.187  0.1381 -0.3812 -0.1679
 6411TIP3   OH240647   0.697   0.626  12.409  0.4240  0.0607  0.2832
 6411TIP3    H140648   0.615   0.589  12.377  0.9132 -1.6271  0.9033
 6411TIP3    H240649   0.681   0.646  12.501  0.5099  0.4054  0.2286
 6412TIP3   OH240650   4.365   0.128   4.383 -0.1528  0.4690 -0.2081
 6412TIP3    H140651   4.274   0.138   4.357 -1.2539 -0.4799  2.8292
 6412TIP3    H240652   4.412   0.109   4.302 -2.9881 -1.1958 -1.5885
 6413TIP3   OH240653   6.333   3.874  14.364  0.1960 -0.0587 -0.0511
 6413TIP3    H140654   6.283   3.793  14.378  1.2933 -0.8697 -0.6304
 6413TIP3    H240655   6.395   3.876  14.437 -0.1801  0.5610  0.2613
 6414TIP3   OH240656   5.658   6.564  13.800  0.1512 -0.7682  0.1218
 6414TIP3    H140657   5.695   6.636  13.850  0.5612 -0.8524 -0.0576
 6414TIP3    H240658   5.689   6.484  13.843 -2.2870 -0.9140  1.8467
 6415TIP3   OH240659   3.427   1.164  13.616 -0.3753  0.7969 -0.2908
 6415TIP3    H140660   3.372   1.121  13.681 -0.9888 -0.6470 -1.7090
 6415TIP3    H240661   3.427   1.256  13.642 -2.5764  0.6605  0.3746
 6416TIP3   OH240662   4.079   0.328   1.760 -0.1729 -0.0227  0.3689
 6416TIP3    H140663   4.173   0.319   1.775 -0.0919  0.2924  0.0423
 6416TIP3    H240664   4.054   0.250   1.710 -0.0547 -0.0199  0.3069
 6417TIP3   OH240665   1.344   4.650  14.863  0.3748  0.3986 -0.1777
 6417TIP3    H140666   1.427   4.626  14.905 -0.2516 -3.0730 -0.6235
 6417TIP3    H240667   1.287   4.675  14.935  0.5473 -1.5153  0.6982
 6418TIP3   OH240668   1.784   3.269  13.515  0.8498 -0.3131  0.3519
 6418TIP3    H140669   1.716   3.329  13.483  1.4212 -0.1464 -0.5852
 6418TIP3    H240670   1.745   3.228  13.592 -0.2092 -0.0166 -0.0042
 6419TIP3   OH240671   6.565   3.669   2.597 -0.1741 -0.0545 -0.1045
 6419TIP3    H140672   6.499   3.613   2.639  0.9649 -2.5005 -1.3959
 6419TIP3    H240673   6.595   3.727   2.668 -1.6654 -0.7936  1.2044
 6420TIP3   OH240674   2.325   2.893   6.414 -0.3290  0.0970 -0.0183
 6420TIP3    H140675   2.230   2.892   6.427 -0.4480 -0.2100 -0.8689
 6420TIP3    H240676   2.352   2.803   6.426 -0.0891  0.2381  0.5432
 6421TIP3   OH240677   1.454   5.392   3.065 -0.4796 -0.4211  0.4212
 6421TIP3    H140678   1.410   5.364   2.985  0.2491 -1.4854  0.3825
 6421TIP3    H240679   1.391   5.375   3.135 -0.3771 -1.3220  0.2949
 6422TIP3   OH240680   6.057   5.954  15.928 -0.3585 -0.9848 -0.1866
 6422TIP3    H140681   6.106   5.971  15.847  0.1870 -0.2764  0.2776
 6422TIP3    H240682   6.083   5.866  15.954  0.4740 -0.7194 -0.0861
 6423TIP3   OH240683   0.975   3.025   6.095  0.2493 -0.4867  0.2229
 6423TIP3    H140684   0.892   3.059   6.061  0.5333  0.5707  0.5623
 6423TIP3    H240685   0.995   3.081   6.170  1.9105  0.0729 -0.5976
 6424TIP3   OH240686   4.646   6.394  16.242 -0.0158  0.2374  0.2058
 6424TIP3    H140687   4.625   6.486  16.256 -0.5957 -0.0815  1.5187
 6424TIP3    H240688   4.693   6.367  16.321 -1.0551 -0.9428  0.4614
 6425TIP3   OH240689   6.592   6.352  13.630  0.2912 -0.6095  0.2224
 6425TIP3    H140690   6.515   6.299  13.653  0.2350 -1.3530 -1.5122
 6425TIP3    H240691   6.585   6.430  13.685 -0.4507 -1.7133  1.7442
 6426TIP3   OH240692   3.140   1.371  10.416 -0.1854  0.3211  0.0038
 6426TIP3    H140693   3.143   1.460  10.449  0.1964 -0.8650  3.5627
 6426TIP3    H240694   3.226   1.357  10.376  0.4112  1.0300  1.0005
 6427TIP3   OH240695   6.195   5.787  14.402 -0.1913  0.1972 -0.3933
 6427TIP3    H140696   6.277   5.836  14.399 -0.0305 -0.0976 -0.9340
 6427TIP3    H240697   6.222   5.696  14.415 -0.4684  0.1976  0.1790
 6428TIP3   OH240698   2.525   3.889   4.225 -0.0051 -0.1307  0.5858
 6428TIP3    H140699   2.576   3.912   4.302  1.1081 -0.2036 -0.1078
 6428TIP3    H240700   2.581   3.829   4.176 -1.1276 -0.9413  0.2460
 6429TIP3   OH240701   1.835   2.989  14.827 -0.2740  0.5898 -0.2741
 6429TIP3    H140702   1.917   2.939  14.825 -0.4393  0.2334  1.2625
 6429TIP3    H240703   1.772   2.930  14.868 -1.1323  1.1306 -0.7887
 6430TIP3   OH240704   3.789   2.866   3.456  0.4951  0.0249 -0.1107
 6430TIP3    H140705   3.732   2.894   3.385  1.1478 -1.4115 -1.2710
 6430TIP3    H240706   3.876   2.864   3.417  0.7616 -1.4841  0.4763
 6431TIP3   OH240707   3.051   3.722   0.996  0.6783 -0.6155 -1.1081
 6431TIP3    H140708   3.010   3.681   0.920  0.4701 -2.4427 -0.0775
 6431TIP3    H240709   3.076   3.648   1.052 -1.0939  0.6570  1.5908
 6432TIP3   OH240710   6.491   3.102   0.145 -0.0200 -0.1453  0.8705
 6432TIP3    H140711   6.538   3.062   0.217  0.4015 -0.9686  0.1614
 6432TIP3    H240712   6.559   3.137   0.087 -0.3712  1.5052  1.3908
 6433TIP3   OH240713   1.809   5.036   4.674  0.3768  0.0389 -0.0358
 6433TIP3    H140714   1.738   4.982   4.710 -0.3422  0.0258 -1.4126
 6433TIP3    H240715   1.868   4.973   4.633  0.3813  0.1646 -0.2236
 6434TIP3   OH240716   0.428   2.460   0.348  0.4524 -0.1213 -0.6476
 6434TIP3    H140717   0.428   2.427   0.437  1.8681  2.0261  0.2145
 6434TIP3    H240718   0.511   2.430   0.311  0.7231  0.5909 -0.6141
 6435TIP3   OH240719   4.898   6.615   2.369  0.5647  0.1921 -0.0254
 6435TIP3    H140720   4.927   6.526   2.346 -0.9844 -0.4728  0.4599
 6435TIP3    H240721   4.902   6.663   2.286 -0.7350 -0.9686 -0.8293
 6436TIP3   OH240722   5.298   0.823  14.510 -0.3674  0.8405  0.0173
 6436TIP3    H140723   5.214   0.832  14.556 -0.5880 -0.7031 -0.0395
 6436TIP3    H240724   5.293   0.738  14.467  0.7143  1.3136 -1.0943
 6437TIP3   OH240725   3.840   6.373  15.919 -0.5552 -0.3475 -0.6080
 6437TIP3    H140726   3.829   6.391  16.012 -0.3127  0.1792 -0.6766
 6437TIP3    H240727   3.769   6.313  15.897  0.9574 -2.7320  0.5300
 6438TIP3   OH240728   5.041   6.347   5.564  0.0656 -0.2921  0.4059
 6438TIP3    H140729   5.087   6.266   5.543 -0.2460 -0.8461  1.7398
 6438TIP3    H240730   5.038   6.395   5.481  0.2053 -1.6638 -0.4295
 6439TIP3   OH240731   4.310   0.971  16.212  0.3220  0.4169 -0.1696
 6439TIP3    H140732   4.389   0.929  16.246  1.3526  1.5383 -1.1199
 6439TIP3    H240733   4.340   1.020  16.136 -1.3122  0.8186 -0.5802
 6440TIP3   OH240734   2.001   2.648   1.215 -0.3693 -0.0622 -0.5767
 6440TIP3    H140735   1.993   2.723   1.274  0.1069 -0.0701 -0.4999
 6440TIP3    H240736   2.094   2.626   1.217 -0.3046  0.0948 -1.5258
 6441TIP3   OH240737   1.624   0.479  13.010  0.0632 -0.3106  0.5111
 6441TIP3    H140738   1.700   0.456  13.063  0.1607 -0.7810  0.1758
 6441TIP3    H240739   1.550   0.441  13.057  0.3614 -2.7058 -0.7895
 6442TIP3   OH240740   5.237   0.527  13.054  0.0902  0.1130  0.4343
 6442TIP3    H140741   5.297   0.592  13.090 -1.1285  1.2879  0.3953
 6442TIP3    H240742   5.193   0.489  13.130 -0.4363  0.5649  0.3579
 6443TIP3   OH240743   2.711   2.852  15.119 -0.0911  0.2088 -0.4274
 6443TIP3    H140744   2.682   2.939  15.147  1.6239  0.8149 -0.4174
 6443TIP3    H240745   2.796   2.867  15.077  1.0179 -1.6140  0.9931
 6444TIP3   OH240746   5.208   6.134   0.998  0.2893 -0.0140 -0.5847
 6444TIP3    H140747   5.197   6.042   1.021  1.1560 -0.2710 -1.1266
 6444TIP3    H240748   5.171   6.183   1.072  0.1158 -0.7888 -0.1505
 6445TIP3   OH240749   4.334   3.340  14.580 -0.4661  0.6643 -0.2015
 6445TIP3    H140750   4.277   3.309  14.510 -0.4911 -0.5084  0.3147
 6445TIP3    H240751   4.413   3.371  14.535 -0.4201 -0.2207 -0.7437
 6446TIP3   OH240752   3.621   2.166   6.153  0.4336  0.1916 -0.0432
 6446TIP3    H140753   3.632   2.075   6.182 -1.2903 -0.4442 -1.2449
 6446TIP3    H240754   3.527   2.177   6.143  0.6616  1.9119 -0.6140
 6447TIP3   OH240755   3.349   3.665   4.113 -0.5461  0.2261 -0.4406
 6447TIP3    H140756   3.410   3.716   4.167 -0.9655  2.0770 -1.6265
 6447TIP3    H240757   3.406   3.611   4.057 -0.0679  0.0063  0.2423
 6448TIP3   OH240758   1.118   0.855   3.773 -0.2256  0.2679 -0.2021
 6448TIP3    H140759   1.208   0.855   3.806  0.3285 -1.3647 -1.5383
 6448TIP3    H240760   1.120   0.793   3.699 -2.4706  0.1268 -0.2090
 6449TIP3   OH240761   2.993   3.360   5.775  0.2814 -0.0302 -0.1068
 6449TIP3    H140762   2.939   3.424   5.822 -0.0299 -0.5104  0.1997
 6449TIP3    H240763   3.049   3.322   5.843 -1.2961 -1.8982  0.2420
 6450TIP3   OH240764   6.228   6.328  16.761  0.0961 -0.1828  0.2923
 6450TIP3    H140765   6.263   6.245  16.794  2.5621 -1.1436 -3.9272
 6450TIP3    H240766   6.148   6.304  16.716 -0.2288  0.1181  0.6999
 6451TIP3   OH240767   6.284   0.874   2.411 -0.4163  0.8181 -0.1069
 6451TIP3    H140768   6.299   0.966   2.387 -1.9966  1.0633 -0.2970
 6451TIP3    H240769   6.223   0.878   2.485 -0.5327 -0.0738 -0.1422
 6452TIP3   OH240770   3.630   0.486  15.452 -0.3047  0.3545  0.1930
 6452TIP3    H140771   3.549   0.534  15.471 -1.0072 -0.0942 -1.5026
 6452TIP3    H240772   3.608   0.395  15.469  0.1205  0.3147  0.5440
 6453TIP3   OH240773   1.908   3.064   0.129 -0.5986  0.7531 -0.4282
 6453TIP3    H140774   1.976   3.087   0.066  0.4403  0.2145  0.4775
 6453TIP3    H240775   1.872   2.982   0.096  1.2838 -0.5742  0.6750
 6454TIP3   OH240776   5.141   2.677  13.426  0.0697  0.0250 -0.3009
 6454TIP3    H140777   5.114   2.739  13.359 -0.1641 -0.4135 -0.6245
 6454TIP3    H240778   5.082   2.693  13.500 -0.7876 -0.6068 -0.8276
 6455TIP3   OH240779   5.542   5.112   5.305 -0.2908  0.3294  0.1552
 6455TIP3    H140780   5.613   5.055   5.275  2.5951  2.9711  1.4056
 6455TIP3    H240781   5.543   5.103   5.401 -1.1176  1.0131  0.2452
 6456TIP3   OH240782   3.747   2.456   1.386  0.3676  0.5314 -0.2537
 6456TIP3    H140783   3.810   2.447   1.315 -2.2017 -2.1199 -2.4641
 6456TIP3    H240784   3.681   2.517   1.352  0.4916  1.4192  1.0444
 6457TIP3   OH240785   1.742   1.865   4.271  0.5087  0.3785 -0.6628
 6457TIP3    H140786   1.677   1.929   4.239  0.0749  0.2780  0.0058
 6457TIP3    H240787   1.690   1.790   4.299  0.9382  0.1926 -0.3585
 6458TIP3   OH240788   2.402   4.595  12.846 -0.7168  0.5975  0.0811
 6458TIP3    H140789   2.470   4.589  12.779  0.0185 -0.5319  0.8872
 6458TIP3    H240790   2.412   4.684  12.883  0.2186  0.5072  0.0715
 6459TIP3   OH240791   1.184   2.681  11.260  0.0079  0.3628  0.0596
 6459TIP3    H140792   1.203   2.589  11.246  0.3280  0.5235 -0.6270
 6459TIP3    H240793   1.199   2.696  11.353  0.7183 -0.0985  0.0189
 6460TIP3   OH240794   1.821   0.615  15.940  0.2298  0.1883 -0.7728
 6460TIP3    H140795   1.897   0.570  15.976 -1.0957 -1.8251 -0.2875
 6460TIP3    H240796   1.857   0.689  15.891  2.3756  0.1628  0.6448
 6461TIP3   OH240797   3.435   5.342  17.017  0.4407  0.7258  0.4290
 6461TIP3    H140798   3.485   5.277  16.967  0.5288  0.1854  1.1980
 6461TIP3    H240799   3.496   5.373  17.085  1.2131  3.3981 -1.3267
 6462TIP3   OH240800   4.812   0.375   4.759 -0.0191  0.1034 -0.0174
 6462TIP3    H140801   4.818   0.281   4.745 -1.1919  0.2281 -1.7475
 6462TIP3    H240802   4.798   0.386   4.853 -1.9013 -1.5997 -0.0313
 6463TIP3   OH240803   0.750   5.374  13.432 -0.4157 -0.2242 -0.5726
 6463TIP3    H140804   0.783   5.352  13.345 -1.5118 -1.4590 -0.7158
 6463TIP3    H240805   0.826   5.406  13.480  0.5991 -1.2966 -1.4224
 6464TIP3   OH240806   3.987   4.806  11.967 -0.0978  0.1590  0.5501
 6464TIP3    H140807   4.061   4.759  11.928 -0.6661 -0.8543  0.6788
 6464TIP3    H240808   4.009   4.899  11.954  0.6228 -0.1350 -0.4704
 6465TIP3   OH240809   3.997   1.170   3.047 -0.2705 -0.0180  0.1674
 6465TIP3    H140810   4.010   1.156   2.953  0.3533  2.3920 -0.1585
 6465TIP3    H240811   3.942   1.096   3.074 -3.2820  0.8743 -2.7598
 6466TIP3   OH240812   6.342   2.037  16.987 -0.3810 -0.1422 -1.0062
 6466TIP3    H140813   6.398   1.961  16.972 -0.9706 -0.7334 -0.2898
 6466TIP3    H240814   6.309   2.026  17.076  0.0057  1.2894 -0.6606
 6467TIP3   OH240815   5.711   1.045  13.167 -0.0233  0.5690  0.9234
 6467TIP3    H140816   5.796   1.028  13.207  0.2251  0.7027  0.4638
 6467TIP3    H240817   5.651   0.985  13.211  0.7413 -1.2246 -0.3471
 6468TIP3   OH240818   2.431   2.718  13.823 -0.1537  0.5319  0.1102
 6468TIP3    H140819   2.511   2.771  13.830 -0.9203  1.6957  0.2102
 6468TIP3    H240820   2.402   2.730  13.733  0.6858 -1.2733 -0.4585
 6469TIP3   OH240821   4.863   2.994  13.628  0.8066  0.2690 -0.0830
 6469TIP3    H140822   4.851   3.041  13.546  1.4018  1.0289  0.2468
 6469TIP3    H240823   4.896   3.060  13.689 -2.0868  0.3699  1.5359
 6470TIP3   OH240824   3.948   0.383   0.805 -0.5384  0.1667 -0.0954
 6470TIP3    H140825   3.981   0.296   0.785  0.3161 -0.1625  2.4547
 6470TIP3    H240826   3.892   0.371   0.882 -0.0029  1.9147  0.6120
 6471TIP3   OH240827   2.096   6.487   1.305  0.1562  0.3577 -0.0598
 6471TIP3    H140828   2.171   6.432   1.284  0.7548 -0.8054  4.3037
 6471TIP3    H240829   2.133   6.576   1.313  0.1589  0.5806 -2.0389
 6472TIP3   OH240830   0.219   1.368  16.134 -0.2335  0.4987  0.4156
 6472TIP3    H140831   0.270   1.291  16.159 -0.2021 -0.6689 -2.7730
 6472TIP3    H240832   0.285   1.436  16.119 -0.0808  0.5305  1.2018
 6473TIP3   OH240833   5.666   5.007  10.968 -0.2828  0.5812  0.1538
 6473TIP3    H140834   5.670   4.915  10.995 -1.4390  0.9670  1.8125
 6473TIP3    H240835   5.597   5.011  10.902 -0.7153  0.3545  0.5869
 6474TIP3   OH240836   4.704   4.600   4.990  0.0544 -0.2938 -0.6929
 6474TIP3    H140837   4.644   4.588   5.065 -0.8126 -1.5664 -1.5367
 6474TIP3    H240838   4.791   4.582   5.026 -0.3503 -0.8847  0.0281
 6475TIP3   OH240839   6.298   2.757  13.953 -0.0704  0.0249  0.0750
 6475TIP3    H140840   6.220   2.743  13.900  0.0793 -0.0010 -0.1380
 6475TIP3    H240841   6.359   2.689  13.926  0.2484  0.4071 -0.1846
 6476TIP3   OH240842   3.978   4.072  13.303 -0.1443  0.3559  0.0998
 6476TIP3    H140843   4.056   4.077  13.248  0.4790 -0.5185  0.8839
 6476TIP3    H240844   3.915   4.024  13.249 -0.5400  2.0012 -0.9586
 6477TIP3   OH240845   1.226   5.695  12.651  0.2972  0.4457  0.0392
 6477TIP3    H140846   1.286   5.699  12.725 -0.7245 -0.2724  0.9316
 6477TIP3    H240847   1.165   5.624  12.673 -0.1430  0.3425 -1.3998
 6478TIP3   OH240848   3.879   2.114  12.182  0.2528  0.0555 -0.1476
 6478TIP3    H140849   3.870   2.119  12.087  1.6209  2.9021 -0.2442
 6478TIP3    H240850   3.934   2.189  12.204 -1.7379  0.7421  3.0982
 6479TIP3   OH240851   3.914   3.843   3.058 -0.2448  0.1482 -0.1787
 6479TIP3    H140852   3.995   3.880   3.094  0.1087 -0.7200 -0.0387
 6479TIP3    H240853   3.844   3.888   3.105  0.1164  1.6635 -1.0410
 6480TIP3   OH240854   3.744   6.636  11.633  0.5695  0.1231 -0.0680
 6480TIP3    H140855   3.651   6.620  11.651 -0.5827  2.7047 -2.8305
 6480TIP3    H240856   3.769   6.565  11.573 -0.8547  1.4478 -2.3825
 6481TIP3   OH240857   0.977   2.913  14.845  0.0638 -0.1097 -0.2260
 6481TIP3    H140858   0.905   2.870  14.892  0.6926 -0.2155  0.6733
 6481TIP3    H240859   1.045   2.846  14.838  0.0997  0.0014 -1.0361
 6482TIP3   OH240860   5.397   2.770  11.268 -0.2814  0.5976  0.0190
 6482TIP3    H140861   5.455   2.770  11.192 -3.3542  1.8658 -2.5528
 6482TIP3    H240862   5.375   2.678  11.282  1.3072  0.2305  0.2821
 6483TIP3   OH240863   0.395   3.338  12.293  0.3718 -0.1285 -0.2631
 6483TIP3    H140864   0.336   3.364  12.222 -0.3791 -1.4732 -0.1642
 6483TIP3    H240865   0.385   3.243  12.299  0.6830 -0.0828  1.4125
 6484TIP3   OH240866   0.697   4.377  11.613 -0.0718  0.0461 -0.6192
 6484TIP3    H140867   0.755   4.310  11.648 -0.4542  0.8088  1.6427
 6484TIP3    H240868   0.753   4.453  11.600 -0.3540  0.5504  0.8620
 6485TIP3   OH240869   0.700   3.989   0.913 -0.5876 -0.1283 -0.2540
 6485TIP3    H140870   0.667   3.906   0.946  1.1903 -0.4176  0.8902
 6485TIP3    H240871   0.741   3.967   0.830  0.5929 -0.5613  0.4294
 6486TIP3   OH240872   0.556   6.434  16.542 -0.2390  0.7314 -0.2369
 6486TIP3    H140873   0.563   6.473  16.629  1.8542  0.0981 -0.0693
 6486TIP3    H240874   0.486   6.369  16.551  1.3337 -0.8334  1.6329
 6487TIP3   OH240875   2.036   5.110  12.246  0.2272 -0.4011 -0.0078
 6487TIP3    H140876   2.016   5.156  12.328 -0.6158 -1.3624  0.3368
 6487TIP3    H240877   2.032   5.017  12.269  1.6086 -0.6689 -0.7704
 6488TIP3   OH240878   6.018   0.742  11.428 -0.2442  0.7209  0.2286
 6488TIP3    H140879   6.078   0.816  11.416  0.5221  0.7660  3.5386
 6488TIP3    H240880   5.966   0.766  11.505 -0.3469 -1.9316  1.0563
 6489TIP3   OH240881   5.421   1.932   4.373 -0.4758  0.1802  0.1651
 6489TIP3    H140882   5.392   1.876   4.445  0.4094  1.0782  1.2635
 6489TIP3    H240883   5.484   1.879   4.325 -0.9614 -0.3768  0.1388
 6490TIP3   OH240884   3.251   5.800   4.996  0.2661  0.6154 -0.3424
 6490TIP3    H140885   3.181   5.832   5.053 -0.2094 -0.1887 -0.4588
 6490TIP3    H240886   3.287   5.724   5.042  0.2095  0.2595 -0.8796
 6491TIP3   OH240887   0.721   3.814   0.678  0.2617 -0.2984 -0.1943
 6491TIP3    H140888   0.746   3.809   0.586 -0.1489 -2.4124 -0.2422
 6491TIP3    H240889   0.649   3.752   0.687  0.9840 -0.9386  1.7386
 6492TIP3   OH240890   6.104   1.918  13.971 -0.2449 -0.6339  0.3760
 6492TIP3    H140891   6.189   1.879  13.990 -0.7596 -1.4120  1.1657
 6492TIP3    H240892   6.048   1.844  13.947 -0.6722 -0.1152 -0.2936
 6493TIP3   OH240893   6.600   6.038  11.812  0.0515 -0.2398  0.4180
 6493TIP3    H140894   6.592   5.997  11.725 -1.2656 -0.6979  0.7290
 6493TIP3    H240895   6.670   6.102  11.802 -0.3819  0.0338 -1.1215
 6494TIP3   OH240896   6.554   4.133  14.393 -0.2448  0.2381 -0.4184
 6494TIP3    H140897   6.470   4.176  14.408  0.6604  1.3862  1.8397
 6494TIP3    H240898   6.543   4.047  14.433  0.1044  0.9634  1.3221
 6495TIP3   OH240899   6.286   1.583  16.973 -0.1401 -0.2893 -0.7163
 6495TIP3    H140900   6.223   1.590  17.045  0.5229  0.2982 -0.1790
 6495TIP3    H240901   6.367   1.555  17.014 -0.4888 -3.0182 -1.6661
 6496TIP3   OH240902   5.881   6.717  16.445 -0.2397 -0.4776 -0.4335
 6496TIP3    H140903   5.877   6.788  16.509  2.8658  1.3592 -2.0004
 6496TIP3    H240904   5.835   6.751  16.368  0.3941 -0.5622 -0.8576
 6497TIP3   OH240905   5.605   3.887   3.578 -0.2594 -0.4979 -0.1580
 6497TIP3    H140906   5.551   3.839   3.641 -0.5588 -1.4929 -1.1294
 6497TIP3    H240907   5.674   3.825   3.554  0.3200  0.1609 -0.1889
 6498TIP3   OH240908   3.823   4.233  13.498 -0.3027 -0.3125 -0.2344
 6498TIP3    H140909   3.790   4.152  13.539 -0.8143  0.3151  0.6290
 6498TIP3    H240910   3.882   4.202  13.430 -0.8010 -1.4330 -0.1932
 6499TIP3   OH240911   6.182   1.231  14.240 -0.1415  0.6450  0.0075
 6499TIP3    H140912   6.276   1.221  14.256 -0.0743 -0.3600 -0.9343
 6499TIP3    H240913   6.162   1.319  14.272  0.7628  0.2447  1.8152
 6500TIP3   OH240914   4.090   2.740  10.869 -0.2281  0.2052  0.2680
 6500TIP3    H140915   4.102   2.655  10.827 -0.6934  0.5222 -0.5309
 6500TIP3    H240916   4.162   2.746  10.932 -0.9042 -1.3132  1.2555
 6501TIP3   OH240917   6.559   4.623  15.274 -0.0886  0.0031  0.1576
 6501TIP3    H140918   6.594   4.548  15.226 -1.1200 -0.7404  0.5212
 6501TIP3    H240919   6.464   4.606  15.278 -0.0205 -0.0850  2.6204
 6502TIP3   OH240920   5.000   0.326   5.597  0.3683 -0.3586 -0.6110
 6502TIP3    H140921   4.906   0.311   5.590  0.2800  0.3538 -1.1396
 6502TIP3    H240922   5.038   0.278   5.523  0.3185  0.1393 -0.9627
 6503TIP3   OH240923   1.326   3.351  13.653  0.1866 -0.8206  0.1102
 6503TIP3    H140924   1.403   3.376  13.705 -0.4574 -0.6958  1.0270
 6503TIP3    H240925   1.265   3.314  13.717 -1.0102  0.2019 -0.4082
 6504TIP3   OH240926   4.638   0.102  10.793  0.1430  0.4129 -0.2783
 6504TIP3    H140927   4.677   0.080  10.709  0.4464  0.0996 -0.0599
 6504TIP3    H240928   4.566   0.162  10.772 -0.2198 -0.2039 -0.8215
 6505TIP3   OH240929   3.912   1.317   1.332  0.0167  0.6021 -0.2256
 6505TIP3    H140930   3.892   1.232   1.371 -1.6445  0.6745 -0.8473
 6505TIP3    H240931   3.911   1.301   1.237 -0.3686  1.3285 -0.3472
 6506TIP3   OH240932   3.053   6.071   3.647 -0.4194  0.0123 -0.3418
 6506TIP3    H140933   3.100   6.111   3.574  1.1559 -1.0079  0.0675
 6506TIP3    H240934   3.085   6.117   3.725  0.4987 -1.1760  0.0112
 6507TIP3   OH240935   1.392   3.618  14.870 -0.0340  0.3958 -0.3683
 6507TIP3    H140936   1.465   3.619  14.808 -0.8636  1.7093 -1.3773
 6507TIP3    H240937   1.339   3.543  14.844  0.7691 -0.3830  0.1778
 6508TIP3   OH240938   4.927   0.647   0.335  0.5802  0.4547 -0.2733
 6508TIP3    H140939   5.020   0.624   0.336  0.1972 -1.8239 -3.3971
 6508TIP3    H240940   4.883   0.570   0.370 -0.3062 -0.7137 -3.6260
 6509TIP3   OH240941   6.226   4.834  12.285  0.2519 -0.0009  0.2044
 6509TIP3    H140942   6.240   4.846  12.191 -0.0537 -1.3950 -0.0463
 6509TIP3    H240943   6.165   4.903  12.310  0.6452  0.6187 -0.5418
 6510TIP3   OH240944   6.685   5.937  12.995  0.2728 -0.5176 -0.0964
 6510TIP3    H140945   6.652   5.891  13.072 -0.1651 -0.3569 -0.1816
 6510TIP3    H240946   6.627   5.909  12.924  1.0989 -1.2074 -0.5171
 6511TIP3   OH240947   1.842   6.060   4.992  0.3239  0.0765 -0.1364
 6511TIP3    H140948   1.770   6.000   4.969  0.9905 -0.2229 -1.6129
 6511TIP3    H240949   1.854   6.113   4.913  1.1620  0.6867  0.3914
 6512TIP3   OH240950   0.719   2.399   3.721 -0.2537  0.8247 -0.0884
 6512TIP3    H140951   0.687   2.451   3.795  0.9846 -2.3934  2.9989
 6512TIP3    H240952   0.682   2.312   3.736  0.2697 -0.0322 -3.1920
 6513TIP3   OH240953   1.143   0.086   4.595  0.0586  0.0317 -0.4278
 6513TIP3    H140954   1.198   0.111   4.520  2.1384 -0.8855  0.6933
 6513TIP3    H240955   1.190   0.120   4.671 -1.1256 -0.4948  0.5662
 6514TIP3   OH240956   0.116   2.972   2.772  0.1773 -0.0708  0.0199
 6514TIP3    H140957   0.065   2.944   2.695 -0.2939  0.3309  0.1790
 6514TIP3    H240958   0.155   2.891   2.805  0.5760 -0.2111 -0.7799
 6515TIP3   OH240959   0.358   5.523  14.941  0.1773 -0.1098  0.5338
 6515TIP3    H140960   0.404   5.575  14.875 -1.7033  0.4956 -0.3815
 6515TIP3    H240961   0.353   5.581  15.018 -1.6064  1.0245 -0.3654
 6516TIP3   OH240962   1.162   0.620   0.897 -0.4855  0.1924  0.8954
 6516TIP3    H140963   1.227   0.550   0.903 -0.5931  0.0150 -0.0199
 6516TIP3    H240964   1.128   0.627   0.987  1.4985  0.9785  1.6492
 6517TIP3   OH240965   2.466   0.488   4.278  0.0748  0.2223 -0.3797
 6517TIP3    H140966   2.415   0.462   4.201 -0.8337 -0.9876  0.5838
 6517TIP3    H240967   2.407   0.471   4.352  0.8157  1.6150  0.5784
 6518TIP3   OH240968   0.888   2.738   5.717  0.0303 -0.5649  0.0954
 6518TIP3    H140969   0.907   2.672   5.651  2.0648 -0.0872  0.1515
 6518TIP3    H240970   0.901   2.821   5.673  0.1924 -0.2300  0.7646
 6519TIP3   OH240971   3.982   5.764  12.950  0.5187  0.2061  0.5992
 6519TIP3    H140972   4.005   5.684  12.997  0.8950 -0.1846 -0.2229
 6519TIP3    H240973   3.887   5.759  12.940  0.7044 -1.0513 -0.9829
 6520TIP3   OH240974   3.765   1.796   1.196 -0.2687 -0.2493  0.2005
 6520TIP3    H140975   3.746   1.813   1.103 -0.1821  1.6512  0.4953
 6520TIP3    H240976   3.738   1.705   1.209 -2.2322  0.0700 -1.1841
 6521TIP3   OH240977   5.092   4.818   2.929  0.1119 -0.1718 -0.2958
 6521TIP3    H140978   5.151   4.786   2.861  0.8458 -1.1002  0.7200
 6521TIP3    H240979   5.023   4.751   2.934 -0.1378  0.0783 -0.3707
 6522TIP3   OH240980   1.571   5.874  14.261 -0.6329  0.1362  0.7072
 6522TIP3    H140981   1.553   5.965  14.238 -0.4191 -0.1814 -0.7859
 6522TIP3    H240982   1.549   5.868  14.354 -0.5920  1.7232  0.8454
 6523TIP3   OH240983   6.391   4.817   1.441 -0.2567  0.1335  0.3614
 6523TIP3    H140984   6.481   4.811   1.407 -0.8139  1.0024 -1.3492
 6523TIP3    H240985   6.346   4.875   1.380 -2.3441 -1.3190  0.4219
 6524TIP3   OH240986   4.234   1.807   6.461  0.1895  0.2656  0.5755
 6524TIP3    H140987   4.201   1.726   6.498 -0.7353  0.0334 -0.6742
 6524TIP3    H240988   4.241   1.790   6.367  1.6993  1.0684  0.5099
 6525TIP3   OH240989   1.735   5.598  15.244  0.1656 -0.2422  0.2822
 6525TIP3    H140990   1.687   5.558  15.316 -0.6138 -1.3791 -0.8181
 6525TIP3    H240991   1.737   5.531  15.176  0.9160  0.7719 -0.7465
 6526TIP3   OH240992   3.423   5.498   6.100  0.1098  0.4200  0.2449
 6526TIP3    H140993   3.421   5.407   6.127 -2.6797  0.6040  0.9731
 6526TIP3    H240994   3.485   5.540   6.160 -1.7321 -0.2496  2.7843
 6527TIP3   OH240995   5.163   3.026   1.042 -0.2047 -0.1107  0.1180
 6527TIP3    H140996   5.238   2.968   1.032 -0.2578  0.1051 -1.7795
 6527TIP3    H240997   5.186   3.105   0.993 -0.6586  1.0055  1.6010
 6528TIP3   OH240998   6.328   5.285  12.655 -0.2301  0.5243 -0.3092
 6528TIP3    H140999   6.237   5.311  12.640  0.1248  2.0435 -0.0680
 6528TIP3    H241000   6.346   5.314  12.745  0.1824 -0.7245  0.0219
 6529TIP3   OH241001   6.213   2.698   5.166  0.0578 -0.7360 -0.0702
 6529TIP3    H141002   6.270   2.732   5.096 -1.1114 -1.5747 -1.4867
 6529TIP3    H241003   6.230   2.755   5.240  2.5953 -0.8228 -0.4850
 6530TIP3   OH241004   1.357   3.069   1.763 -0.2208 -0.4287 -0.0525
 6530TIP3    H141005   1.439   3.109   1.734 -0.0564 -0.1873  0.7210
 6530TIP3    H241006   1.368   3.059   1.857 -0.6535 -1.3916 -0.0926
 6531TIP3   OH241007   4.575   1.476   2.307 -0.1148 -0.3140  0.0756
 6531TIP3    H141008   4.652   1.510   2.261 -1.7969  2.5489 -0.8898
 6531TIP3    H241009   4.608   1.453   2.394  2.0266 -0.2540 -0.6531
 6532TIP3   OH241010   6.418   5.784   3.204  0.9050  0.0225 -0.2032
 6532TIP3    H141011   6.351   5.852   3.208  1.9181  0.9983  2.8160
 6532TIP3    H241012   6.400   5.728   3.280  2.4626 -0.7175 -0.3363
 6533TIP3   OH241013   6.568   5.473   2.186  0.4273  0.1880 -0.2123
 6533TIP3    H141014   6.581   5.381   2.167  3.8973  0.6825 -0.9840
 6533TIP3    H241015   6.580   5.480   2.281 -1.2071 -0.2828  0.0483
 6534TIP3   OH241016   0.673   3.893  17.093 -0.0696  0.4074 -0.3939
 6534TIP3    H141017   0.653   3.936  17.010  0.3969  3.3007  0.8713
 6534TIP3    H241018   0.686   3.965  17.155 -1.2222 -1.6291  2.4188
 6535TIP3   OH241019   0.981   2.452   2.996 -0.3346 -0.0533 -0.1866
 6535TIP3    H141020   1.040   2.471   3.069 -0.8565  0.3501  0.1426
 6535TIP3    H241021   0.968   2.537   2.954 -1.5181  0.0796  0.3945
 6536TIP3   OH241022   5.784   2.648  13.262 -0.3377 -0.1162  0.1779
 6536TIP3    H141023   5.752   2.671  13.349  0.0223 -0.9804  0.5479
 6536TIP3    H241024   5.806   2.731  13.222  3.2756  0.1811  2.3502
 6537TIP3   OH241025   6.368   1.593  11.390 -0.1827  0.0690 -0.1360
 6537TIP3    H141026   6.422   1.556  11.460 -1.6280 -1.5581  0.1732
 6537TIP3    H241027   6.413   1.568  11.309 -0.2515 -0.9675  0.1300
 6538TIP3   OH241028   0.802   2.231   2.142 -0.3022 -0.4093 -0.2180
 6538TIP3    H141029   0.891   2.198   2.127  0.0460  1.1580 -1.9767
 6538TIP3    H241030   0.808   2.278   2.225 -0.3249 -2.8869  1.2897
 6539TIP3   OH241031   3.718   5.401  16.153  0.1500 -0.8234  0.7960
 6539TIP3    H141032   3.624   5.386  16.167 -0.0708 -0.0057  0.2457
 6539TIP3    H241033   3.751   5.429  16.238 -0.3002 -0.1839  0.7651
 6540TIP3   OH241034   0.252   6.075  13.443 -0.4762 -0.6321  0.5508
 6540TIP3    H141035   0.198   6.148  13.471 -0.6294 -0.7522  0.5708
 6540TIP3    H241036   0.190   6.004  13.426 -0.1689 -1.6074  3.0632
 6541TIP3   OH241037   5.513   3.198  11.506 -0.3765 -0.1685 -0.3386
 6541TIP3    H141038   5.438   3.164  11.457  0.0586 -2.4335  0.4499
 6541TIP3    H241039   5.589   3.153  11.468  0.4827  1.2153 -0.3445
 6542TIP3   OH241040   5.018   4.064  11.745  0.5695 -0.0683  0.1829
 6542TIP3    H141041   5.068   4.128  11.795  1.9925  1.2543 -2.7331
 6542TIP3    H241042   5.058   3.980  11.768  0.7149  0.3861  1.7237
 6543TIP3   OH241043   4.542   3.335   5.664 -0.1904 -0.1123  0.0565
 6543TIP3    H141044   4.633   3.335   5.635  0.0124  0.5151  0.6653
 6543TIP3    H241045   4.539   3.402   5.732 -0.3798 -2.2177  2.2575
 6544TIP3   OH241046   6.176   2.178   5.669  0.0552 -0.6573 -0.5621
 6544TIP3    H141047   6.177   2.122   5.747  0.4479  1.4070  1.0008
 6544TIP3    H241048   6.084   2.202   5.658  0.3863  2.0181  1.6125
 6545TIP3   OH241049   4.754   0.623  14.067  0.2814 -0.1313  0.7020
 6545TIP3    H141050   4.796   0.689  14.122 -0.1470 -0.8925  1.9897
 6545TIP3    H241051   4.755   0.661  13.979  1.3770  0.9375  1.1422
 6546TIP3   OH241052   0.975   0.037  16.863  0.9189 -0.0693 -0.3150
 6546TIP3    H141053   1.031   0.037  16.785  1.5377  0.4502  0.1204
 6546TIP3    H241054   1.026  -0.008  16.930 -0.0099 -1.4122 -0.4599
 6547TIP3   OH241055   3.153   6.036  12.411  0.1541  0.1718  0.1300
 6547TIP3    H141056   3.059   6.049  12.412  0.3139  1.5127  1.2019
 6547TIP3    H241057   3.166   5.949  12.372 -1.6914 -1.5601  3.0489
 6548TIP3   OH241058   1.949   1.166   2.393 -0.7090 -0.1027  0.4849
 6548TIP3    H141059   1.929   1.087   2.344 -1.3717  1.0132 -1.1278
 6548TIP3    H241060   2.045   1.167   2.399 -0.7286 -1.5512  1.4961
 6549TIP3   OH241061   6.035   6.436   4.126  0.4657 -0.0500  0.6652
 6549TIP3    H141062   5.965   6.502   4.124 -0.5336 -0.9745  2.3869
 6549TIP3    H241063   6.003   6.367   4.068 -0.1344 -0.5146  1.5244
 6550TIP3   OH241064   5.676   0.998  16.483 -0.1552  0.2016 -0.0942
 6550TIP3    H141065   5.743   0.947  16.528 -0.9046  0.4198  1.3085
 6550TIP3    H241066   5.678   1.084  16.525 -2.3695 -0.2556  1.1140
 6551TIP3   OH241067   2.235   2.225  11.334 -0.0513  0.1531  0.2633
 6551TIP3    H141068   2.269   2.232  11.423  1.8134 -0.6693 -0.3344
 6551TIP3    H241069   2.312   2.225  11.278 -0.9442 -2.3529 -1.1654
 6552TIP3   OH241070   5.186   6.522   3.502  0.2732 -0.1136 -0.4139
 6552TIP3    H141071   5.253   6.553   3.440 -1.1661 -0.2362 -2.1225
 6552TIP3    H241072   5.162   6.600   3.552  1.0072  0.1434 -0.4528
 6553TIP3   OH241073   4.169   4.672  14.987 -0.2985  0.7237 -0.0590
 6553TIP3    H141074   4.133   4.593  15.027  2.4921 -0.3649  0.5220
 6553TIP3    H241075   4.176   4.651  14.894  1.0241 -0.0252  0.1813
 6554TIP3   OH241076   3.899   2.135  14.032  0.1120  0.2227  0.2600
 6554TIP3    H141077   3.818   2.163  13.988 -0.3498 -2.8870 -1.1914
 6554TIP3    H241078   3.869   2.083  14.106  0.8166  0.0771  0.4484
 6555TIP3   OH241079   0.201   4.093  12.940 -0.2904 -0.5941  0.1257
 6555TIP3    H141080   0.108   4.111  12.928 -0.1487 -0.4762 -0.9102
 6555TIP3    H241081   0.225   4.138  13.021 -1.2144 -0.9490  0.6029
 6556TIP3   OH241082   1.182   1.418   5.520 -0.2625  0.1560  0.2937
 6556TIP3    H141083   1.246   1.384   5.458  0.7212 -0.9101  1.8233
 6556TIP3    H241084   1.215   1.504   5.544  0.4481 -0.2438  0.8040
 6557TIP3   OH241085   0.090   0.618  11.592 -0.1864 -0.5754 -0.3367
 6557TIP3    H141086   0.018   0.638  11.531 -0.7166 -1.8826 -0.1927
 6557TIP3    H241087   0.142   0.552  11.545  1.4085  0.9051 -0.7588
 6558TIP3   OH241088   6.187   1.484  13.042  0.0824  0.1725 -0.3705
 6558TIP3    H141089   6.125   1.528  12.984  0.6636  0.1848 -1.0035
 6558TIP3    H241090   6.242   1.555  13.076  0.3868  0.0555 -0.6104
 6559TIP3   OH241091   6.574   5.206  12.966 -0.7030  0.5381 -0.2358
 6559TIP3    H141092   6.612   5.231  12.882  1.0601 -2.8694 -0.6300
 6559TIP3    H241093   6.631   5.246  13.031  0.0803  0.2938 -0.7546
 6560TIP3   OH241094   1.414   3.854   5.257 -1.0987  0.4122  0.0002
 6560TIP3    H141095   1.479   3.787   5.240 -0.2564  0.5660  2.2206
 6560TIP3    H241096   1.331   3.807   5.258 -0.8899 -0.0362 -1.4004
 6561TIP3   OH241097   5.047   4.128  15.151 -0.2134  0.0006 -0.3268
 6561TIP3    H141098   5.034   4.211  15.106  1.1879  1.2523  1.4398
 6561TIP3    H241099   5.111   4.082  15.097  0.9647  1.2045 -0.0054
 6562TIP3   OH241100   5.739   5.967   2.318 -0.1169 -0.1023  0.2267
 6562TIP3    H141101   5.792   5.956   2.239  0.2989 -1.7658  0.7017
 6562TIP3    H241102   5.654   5.996   2.285  0.3094  0.0705 -0.7638
 6563TIP3   OH241103   5.031   4.134   1.469 -0.5114 -0.5704  0.1613
 6563TIP3    H141104   5.111   4.085   1.451  1.2842  2.6422 -1.4788
 6563TIP3    H241105   4.986   4.138   1.384 -1.2824 -0.4429  0.5677
 6564TIP3   OH241106   6.589   4.087  13.056 -0.2222  0.6392 -0.2542
 6564TIP3    H141107   6.556   4.022  12.994 -0.8352  2.2208 -1.6558
 6564TIP3    H241108   6.589   4.169  13.007  1.8936  1.4657  0.9976
 6565TIP3   OH241109   6.473   1.670   6.245 -0.4080  0.5736 -0.3040
 6565TIP3    H141110   6.398   1.628   6.287 -0.4500 -0.2252 -1.1520
 6565TIP3    H241111   6.451   1.671   6.152  1.5915 -1.8340 -0.9120
 6566TIP3   OH241112   1.546   3.328  17.288  0.5427  0.3030 -0.1173
 6566TIP3    H141113   1.585   3.284  17.363 -1.1064 -1.3481 -0.1561
 6566TIP3    H241114   1.452   3.314  17.298 -0.0408  3.2854 -0.5383
 6567TIP3   OH241115   0.729   1.051  16.870 -0.1397 -0.6504 -0.1787
 6567TIP3    H141116   0.816   1.034  16.833  0.4225  0.4403  0.5804
 6567TIP3    H241117   0.691   0.964  16.881  0.3308 -1.0906 -1.7089
 6568TIP3   OH241118   1.160   3.110   3.935 -0.4717  0.5635  0.2958
 6568TIP3    H141119   1.167   3.086   4.028 -0.1936 -2.6489 -0.4414
 6568TIP3    H241120   1.249   3.134   3.910  0.4136 -2.5531  0.0156
 6569TIP3   OH241121   5.425   4.291   0.220 -0.7670 -0.3276  0.2892
 6569TIP3    H141122   5.387   4.318   0.303  0.4604 -1.7228  1.3553
 6569TIP3    H241123   5.464   4.206   0.237  1.3664  0.2692 -1.1373
 6570TIP3   OH241124   2.298   5.970  12.691 -0.2258  0.5418  0.6303
 6570TIP3    H141125   2.248   6.032  12.637 -1.3449 -0.9120 -0.0729
 6570TIP3    H241126   2.356   5.925  12.628 -0.5290 -0.1835  0.8624
 6571TIP3   OH241127   5.873   4.343   3.084  0.2354 -0.0572 -0.2838
 6571TIP3    H141128   5.927   4.418   3.058 -0.0257 -0.0428 -0.7907
 6571TIP3    H241129   5.869   4.288   3.006 -0.0915 -0.2931 -0.1046
 6572TIP3   OH241130   0.322   1.966  16.444 -1.0500 -0.2575  0.0110
 6572TIP3    H141131   0.327   1.916  16.363 -0.7104  0.4224 -0.3907
 6572TIP3    H241132   0.232   1.998  16.447 -1.0392 -0.2125 -0.1385
 6573TIP3   OH241133   2.501   1.533  16.319 -0.5253 -0.3688 -0.6720
 6573TIP3    H141134   2.435   1.515  16.386  1.1157  0.7804  1.3647
 6573TIP3    H241135   2.469   1.610  16.272 -0.6792  0.1413  0.2624
 6574TIP3   OH241136   0.561   4.449   4.516  0.2591  0.2480 -0.2783
 6574TIP3    H141137   0.486   4.503   4.493 -0.4014 -0.9150 -0.9874
 6574TIP3    H241138   0.601   4.426   4.432 -0.4054 -1.5921 -0.1578
 6575TIP3   OH241139   2.836   5.151  13.365 -0.1451  0.0342 -0.1047
 6575TIP3    H141140   2.867   5.064  13.343  1.1226  0.0446  1.4699
 6575TIP3    H241141   2.747   5.156  13.328 -0.1371 -1.8041 -0.4272
 6576TIP3   OH241142   6.611   5.342   3.137 -0.0766  0.2813 -0.1432
 6576TIP3    H141143   6.582   5.255   3.164  3.0477 -0.4224  1.4857
 6576TIP3    H241144   6.621   5.391   3.218  2.3670  0.6407 -0.5702
 6577TIP3   OH241145   4.820   2.534   5.281 -0.4503  0.1656 -0.2597
 6577TIP3    H141146   4.853   2.617   5.246  0.8188  0.1373  0.8349
 6577TIP3    H241147   4.858   2.467   5.224  0.6936  0.1887  0.4579
 6578TIP3   OH241148   1.156   1.287  16.973 -0.0382 -0.4325 -0.2133
 6578TIP3    H141149   1.122   1.313  16.888  2.3496 -0.6298 -1.2987
 6578TIP3    H241150   1.159   1.369  17.023  0.8645  0.1587 -1.1923
 6579TIP3   OH241151   5.379   4.471   4.514 -0.4490  0.1304  0.4826
 6579TIP3    H141152   5.473   4.484   4.529 -0.5471 -0.8801  2.2580
 6579TIP3    H241153   5.336   4.518   4.586 -1.2876  0.2293 -0.0679
 6580TIP3   OH241154   0.564   3.664   2.257 -0.8658  0.0970 -0.9817
 6580TIP3    H141155   0.564   3.636   2.349 -1.5909 -0.2241 -1.0764
 6580TIP3    H241156   0.648   3.631   2.223 -0.0480  1.2211 -0.1573
 6581TIP3   OH241157   3.936   2.883  16.392 -0.4046  0.0743  0.3911
 6581TIP3    H141158   3.987   2.957  16.423  1.8635 -1.1959 -0.0958
 6581TIP3    H241159   3.966   2.809  16.445  0.3974 -1.2715 -1.8121
 6582TIP3   OH241160   5.378   3.126   4.063  0.0647  0.1429 -1.0050
 6582TIP3    H141161   5.284   3.117   4.082  0.5176 -1.1382  0.8214
 6582TIP3    H241162   5.384   3.117   3.968 -1.6885  0.6182 -1.1966
 6583TIP3   OH241163   0.600   3.394  11.039  0.4890  0.9009 -0.1241
 6583TIP3    H141164   0.607   3.395  11.134 -0.4783 -0.7581  0.0005
 6583TIP3    H241165   0.690   3.385  11.008  0.6448 -1.4181  0.7707
 6584TIP3   OH241166   2.662   6.700  14.101 -0.1571 -0.2482  0.8361
 6584TIP3    H141167   2.631   6.754  14.173 -1.0252 -0.2966  0.5098
 6584TIP3    H241168   2.626   6.613  14.119 -2.9794  0.3508 -1.1509
 6585TIP3   OH241169   3.645   3.047   2.375  0.0037  0.1748  0.3016
 6585TIP3    H141170   3.690   3.074   2.455  0.3400 -0.5131  0.3505
 6585TIP3    H241171   3.673   3.111   2.310  2.7886 -1.4152 -0.2107
 6586TIP3   OH241172   5.866   5.351  13.259  0.3079  0.1148  0.4849
 6586TIP3    H141173   5.960   5.370  13.269  0.3508  1.5883 -1.9737
 6586TIP3    H241174   5.824   5.405  13.327  1.1236  1.0384  0.2775
 6587TIP3   OH241175   1.529   0.982  16.639  0.1268 -0.0498  0.0519
 6587TIP3    H141176   1.613   0.988  16.685 -0.4967  0.9250  1.1232
 6587TIP3    H241177   1.525   0.892  16.608  1.0723 -0.4273  0.9621
 6588TIP3   OH241178   6.331   0.766   5.866 -0.5135  1.1936 -0.0406
 6588TIP3    H141179   6.355   0.798   5.779  0.2452 -0.9128 -0.6764
 6588TIP3    H241180   6.408   0.781   5.920 -1.1236  2.8760  0.4397
 6589TIP3   OH241181   1.781   1.295   1.075 -0.0097  0.6282  0.3588
 6589TIP3    H141182   1.728   1.361   1.029  1.3539  0.8951 -0.8965
 6589TIP3    H241183   1.718   1.227   1.098 -1.2295  1.7770  0.5883
 6590TIP3   OH241184   3.277   6.237   3.851  0.0196 -0.0874  0.1342
 6590TIP3    H141185   3.213   6.300   3.818 -1.3911 -2.0919 -1.1900
 6590TIP3    H241186   3.230   6.187   3.917  0.5840 -0.8098  0.0063
 6591TIP3   OH241187   6.113   6.007  12.064  0.0398 -0.1972 -0.1938
 6591TIP3    H141188   6.133   5.942  11.997 -0.7109 -0.9202  0.2592
 6591TIP3    H241189   6.054   6.069  12.021 -0.6127 -0.7813 -0.1560
 6592TIP3   OH241190   4.920   5.683  15.875 -0.2830  0.2700  0.2870
 6592TIP3    H141191   4.937   5.732  15.956  1.2070  0.0167  0.1537
 6592TIP3    H241192   4.946   5.743  15.805  1.6589 -0.6896  0.1247
 6593TIP3   OH241193   6.007   5.577  14.227  0.1818  0.3594 -0.0388
 6593TIP3    H141194   5.931   5.560  14.283  0.6108  0.6712  0.6490
 6593TIP3    H241195   5.990   5.662  14.187  0.1560  0.4209  0.1023
 6594TIP3   OH241196   2.317   4.961  12.615 -0.1431  0.2797  0.1662
 6594TIP3    H141197   2.286   5.049  12.593 -1.2343 -0.0526  0.3443
 6594TIP3    H241198   2.393   4.948  12.558  0.4704  1.6100  0.6492
 6595TIP3   OH241199   4.933   3.943   0.257  0.4960 -0.1059  0.1706
 6595TIP3    H141200   4.906   3.874   0.197 -0.4976  0.0660  0.4004
 6595TIP3    H241201   5.023   3.963   0.232  1.2922 -2.3770  0.9276
 6596TIP3   OH241202   4.099   0.350  15.771  0.1708  0.0911 -0.0993
 6596TIP3    H141203   4.052   0.282  15.819  0.6820  0.7513  1.4025
 6596TIP3    H241204   4.030   0.402  15.729 -0.3142 -0.2842  0.2218
 6597TIP3   OH241205   6.166   2.096  13.429 -0.7485  0.3668 -0.2875
 6597TIP3    H141206   6.204   2.011  13.406  0.6770  0.6031  1.0230
 6597TIP3    H241207   6.179   2.103  13.524 -1.2541  1.8413 -0.3019
 6598TIP3   OH241208   0.949   3.880  14.630 -0.2375  0.3737 -0.0500
 6598TIP3    H141209   0.957   3.918  14.543 -1.2330 -1.7967 -1.1585
 6598TIP3    H241210   0.868   3.918  14.665 -1.1494 -0.5110 -1.0895
 6599TIP3   OH241211   5.455   4.529   2.498  0.0196 -0.0222  0.6421
 6599TIP3    H141212   5.494   4.490   2.420 -0.8968 -0.7775  0.5402
 6599TIP3    H241213   5.365   4.496   2.499 -0.0831  0.2468  1.8405
 6600TIP3   OH241214   2.750   1.884   1.439 -0.2735 -0.0045 -0.1814
 6600TIP3    H141215   2.789   1.944   1.375  1.1325 -1.2482 -0.5557
 6600TIP3    H241216   2.795   1.800   1.423 -0.3756 -0.5207  1.9912
 6601TIP3   OH241217   1.286   5.528  14.176 -0.0626  0.2099 -0.2874
 6601TIP3    H141218   1.339   5.544  14.254  0.8367 -1.7876 -0.4211
 6601TIP3    H241219   1.269   5.434  14.177 -1.5198  0.4072 -1.5895
 6602TIP3   OH241220   6.184   2.195  14.287 -0.0091  0.0269  0.2966
 6602TIP3    H141221   6.128   2.183  14.364 -0.5953 -0.5428 -0.2052
 6602TIP3    H241222   6.207   2.288  14.288 -0.8859  0.2511  0.5637
 6603TIP3   OH241223   1.672   6.082  13.412  0.5038 -0.3014  0.2163
 6603TIP3    H141224   1.632   5.996  13.430  1.6861 -1.0857 -0.7384
 6603TIP3    H241225   1.656   6.096  13.318  0.6896  0.3189  0.2769
 6604TIP3   OH241226   3.598   5.238  14.344  0.3130 -0.0622 -0.1555
 6604TIP3    H141227   3.649   5.162  14.315  0.4550  0.3111 -0.9001
 6604TIP3    H241228   3.630   5.255  14.433  1.0544 -0.2134 -0.3808
 6605TIP3   OH241229   1.186   3.999  16.686 -0.1714  0.1679 -0.2967
 6605TIP3    H141230   1.105   3.950  16.698  0.2041 -0.3712  0.0887
 6605TIP3    H241231   1.161   4.090  16.696 -0.6357 -0.0276  0.3763
 6606TIP3   OH241232   1.047   1.156  14.153 -0.3479 -0.3444  0.6038
 6606TIP3    H141233   1.099   1.237  14.144 -0.6834 -0.2726 -0.9906
 6606TIP3    H241234   1.100   1.100  14.209  0.4280  0.5501  0.8005
 6607TIP3   OH241235   3.037   6.066   6.128  0.1303  0.0567 -0.4217
 6607TIP3    H141236   3.130   6.073   6.148 -0.4841  1.4167  2.4570
 6607TIP3    H241237   2.999   6.023   6.205 -1.4723 -2.0237 -2.2222
 6608TIP3   OH241238   3.589   6.101  13.533 -0.2168 -0.7597  0.5268
 6608TIP3    H141239   3.600   6.129  13.442  1.9937 -2.0686  0.3271
 6608TIP3    H241240   3.511   6.148  13.563 -0.0686  0.9519 -1.5360
 6609TIP3   OH241241   0.630   2.977  13.631  0.6148  0.3582 -0.1237
 6609TIP3    H141242   0.641   2.965  13.725 -0.3159 -0.4837 -0.1112
 6609TIP3    H241243   0.560   3.043  13.623  0.0019 -0.2968 -0.2218
 6610TIP3   OH241244   5.242   5.686   0.083 -0.4757  0.3991 -0.1239
 6610TIP3    H141245   5.154   5.687   0.121 -0.0055 -1.2643  1.1123
 6610TIP3    H241246   5.270   5.777   0.086 -2.6078  1.2057 -1.7391
 6611TIP3   OH241247   1.328   2.482   0.372 -0.3185 -0.0982 -0.4760
 6611TIP3    H141248   1.268   2.429   0.424  0.0450 -0.5880 -0.5361
 6611TIP3    H241249   1.337   2.564   0.420  0.3038 -0.6858  0.4482
 6612TIP3   OH241250   5.563   1.002   5.366  0.0822  0.0694 -0.3580
 6612TIP3    H141251   5.488   0.943   5.359 -1.5979  2.2717 -2.8257
 6612TIP3    H241252   5.527   1.089   5.352  2.5219  1.7501  2.6441
 6613TIP3   OH241253   2.605   0.958  12.137  0.9223  0.0824 -0.0166
 6613TIP3    H141254   2.633   0.977  12.226 -1.6629 -2.4044  1.5073
 6613TIP3    H241255   2.655   0.881  12.112  1.3946  0.5738 -0.6213
 6614TIP3   OH241256   6.211   6.177  11.485  0.5646  0.2804 -0.1148
 6614TIP3    H141257   6.129   6.194  11.439  0.8828  0.9366 -0.4555
 6614TIP3    H241258   6.278   6.178  11.416  0.8070 -0.7509  0.0883
 6615TIP3   OH241259   2.516   5.097   5.000 -0.3056  0.3026 -0.1698
 6615TIP3    H141260   2.515   5.047   4.918  1.4085  0.1049 -0.1169
 6615TIP3    H241261   2.424   5.103   5.026 -0.8033 -0.3665 -1.6605
 6616TIP3   OH241262   2.215   4.193   3.954  0.4129 -0.7384  0.3560
 6616TIP3    H141263   2.219   4.249   4.032 -0.3186 -2.4799  1.7306
 6616TIP3    H241264   2.223   4.104   3.989 -1.2628 -1.6451 -1.4100
 6617TIP3   OH241265   6.756   1.387   1.104  0.0014  0.5566  0.2072
 6617TIP3    H141266   6.728   1.335   1.179 -0.4727  1.7904  0.9159
 6617TIP3    H241267   6.823   1.446   1.139  1.3072 -0.2757 -0.8133
 6618TIP3   OH241268   2.646   2.656   4.540  0.3572  0.6922 -0.1346
 6618TIP3    H141269   2.675   2.600   4.612 -0.7606  1.1953  0.7319
 6618TIP3    H241270   2.609   2.733   4.583 -0.3362  1.0043 -1.2540
 6619TIP3   OH241271   1.490   2.526  10.551  1.1049 -0.4626  0.5912
 6619TIP3    H141272   1.429   2.518  10.478 -0.0136  0.0570  1.4535
 6619TIP3    H241273   1.526   2.437  10.562 -2.0801 -1.7280  2.2346
 6620TIP3   OH241274   0.652   1.862  13.823  0.1829 -0.5509  0.1991
 6620TIP3    H141275   0.643   1.950  13.785  0.6061 -1.1383 -1.3756
 6620TIP3    H241276   0.667   1.877  13.916  0.5133  1.0536 -0.0838
 6621TIP3   OH241277   1.625   0.157   2.855 -0.0853 -0.4547  0.2264
 6621TIP3    H141278   1.636   0.123   2.766  0.8523  2.4627 -0.8767
 6621TIP3    H241279   1.566   0.094   2.897 -1.3180 -1.4524 -2.7137
 6622TIP3   OH241280   2.114   2.718   2.336 -0.0811  0.0766 -0.1713
 6622TIP3    H141281   2.151   2.635   2.305 -0.8553 -0.3894  0.1471
 6622TIP3    H241282   2.093   2.766   2.256 -1.6367 -0.9280 -0.4111
 6623TIP3   OH241283   0.620   2.022  16.348 -0.3005  0.5729  0.0682
 6623TIP3    H141284   0.578   2.087  16.292 -0.9493 -0.0267 -0.1518
 6623TIP3    H241285   0.641   2.070  16.428 -0.3527  1.1674 -0.2657
 6624TIP3   OH241286   3.017   4.437   3.035  0.2578 -0.5770  0.0451
 6624TIP3    H141287   3.088   4.431   3.099 -0.0594 -1.0617  0.3616
 6624TIP3    H241288   3.058   4.415   2.951  0.2571 -2.0197  0.3895
 6625TIP3   OH241289   5.734   3.026   5.614 -0.5368  0.2256 -0.3950
 6625TIP3    H141290   5.745   2.931   5.610 -0.4636 -0.0203  2.9302
 6625TIP3    H241291   5.646   3.039   5.651 -1.1156  1.5512 -2.0746
 6626TIP3   OH241292   0.808   1.213   1.409 -1.1300 -0.0211  0.3814
 6626TIP3    H141293   0.728   1.265   1.414 -0.5313  1.3296 -2.2208
 6626TIP3    H241294   0.798   1.146   1.477 -3.8094  0.9364  1.0473
 6627TIP3   OH241295   3.725   3.664  12.180  0.1261  0.1479 -0.3403
 6627TIP3    H141296   3.797   3.648  12.241  0.0751 -0.5148 -0.4420
 6627TIP3    H241297   3.648   3.674  12.235  0.3949  1.5674 -0.1863
 6628TIP3   OH241298   5.347   5.061  15.036  0.1230  0.3126 -0.5964
 6628TIP3    H141299   5.335   5.124  14.965  0.5962  2.1894  0.9258
 6628TIP3    H241300   5.259   5.036  15.061 -0.0493 -0.5707 -1.9648
 6629TIP3   OH241301   4.522   1.145   6.395  0.5570 -0.0610 -0.0839
 6629TIP3    H141302   4.555   1.203   6.327 -1.8147 -0.3148 -1.5795
 6629TIP3    H241303   4.507   1.202   6.470 -0.6227  1.1139 -1.1540
 6630TIP3   OH241304   0.457   2.549  11.876 -0.1555  0.6181  0.2111
 6630TIP3    H141305   0.528   2.565  11.938 -0.1212  1.1192  0.0475
 6630TIP3    H241306   0.436   2.635  11.841  0.0169  0.3037 -0.6859
 6631TIP3   OH241307   2.041   6.477   2.597  0.1567 -0.5292  0.0783
 6631TIP3    H141308   2.001   6.405   2.548 -1.3606  0.3075  0.0053
 6631TIP3    H241309   1.966   6.530   2.626  1.2410  1.3328 -0.3597
 6632TIP3   OH241310   2.875   6.527   1.943  0.0154 -0.5257 -0.6298
 6632TIP3    H141311   2.780   6.516   1.933  0.0074 -1.2043  0.0540
 6632TIP3    H241312   2.904   6.444   1.982  0.6820  0.1953  0.4510
 6633TIP3   OH241313   2.898   6.772   2.845  0.7366  0.2443 -0.4662
 6633TIP3    H141314   2.934   6.858   2.823  1.1998  0.6059  1.4726
 6633TIP3    H241315   2.918   6.762   2.939 -1.0855 -1.1155 -0.1829
 6634TIP3   OH241316   6.580   5.371  14.295  0.3198 -0.1339  0.3735
 6634TIP3    H141317   6.568   5.409  14.382  1.5513  2.0916 -0.3601
 6634TIP3    H241318   6.632   5.292  14.310 -0.1002 -0.1731  1.7099
 6635TIP3   OH241319   1.362   4.032  14.696  0.0448 -0.1392  0.2129
 6635TIP3    H141320   1.315   4.014  14.615  1.4885 -2.0452 -0.2733
 6635TIP3    H241321   1.442   3.980  14.690  0.8680  0.7778  2.2430
 6636TIP3   OH241322   5.242   1.036  15.009 -0.1771  0.1579 -0.3898
 6636TIP3    H141323   5.250   1.128  15.037 -0.5192  0.0395  0.0982
 6636TIP3    H241324   5.224   1.042  14.915  1.5717  0.5411 -0.7399
 6637TIP3   OH241325   2.861   4.753   0.239  0.3847 -0.2462 -0.0943
 6637TIP3    H141326   2.848   4.847   0.224  0.8003 -0.3829 -1.4140
 6637TIP3    H241327   2.900   4.721   0.158  0.5808 -1.5015  0.4750
 6638TIP3   OH241328   1.964   1.636  12.638  0.3291  0.7621  0.1258
 6638TIP3    H141329   1.910   1.643  12.716  0.0594 -1.0352  0.1460
 6638TIP3    H241330   2.005   1.550  12.644  1.8236  1.3559 -0.7753
 6639TIP3   OH241331   1.390   6.727   1.805 -0.3988  0.0838  0.1564
 6639TIP3    H141332   1.328   6.778   1.857 -0.8492 -0.2269 -0.0667
 6639TIP3    H241333   1.411   6.784   1.730 -0.6738  0.0627  0.0607
 6640TIP3   OH241334   1.678   0.989   5.027 -0.8775 -0.1792  0.0122
 6640TIP3    H141335   1.650   0.948   5.109 -0.7702 -0.3718 -0.0475
 6640TIP3    H241336   1.655   1.081   5.037 -0.3062 -0.0864  0.5047
 6641TIP3   OH241337   4.115   4.887  11.030  0.5199  0.3329 -0.1369
 6641TIP3    H141338   4.118   4.933  10.946  0.8110  1.5026  0.4824
 6641TIP3    H241339   4.044   4.930  11.078  0.2371 -0.4429  0.1452
 6642TIP3   OH241340   4.482   4.933   1.563  0.4621 -0.1324  0.1816
 6642TIP3    H141341   4.497   4.919   1.656  1.9113  0.4163  0.0552
 6642TIP3    H241342   4.433   5.015   1.558 -0.1478 -0.4695  0.4721
 6643TIP3   OH241343   0.933   2.214   0.750 -0.1039 -0.1582  0.4863
 6643TIP3    H141344   0.956   2.291   0.698 -0.7505 -0.7445 -0.6912
 6643TIP3    H241345   0.989   2.220   0.827  0.7851  0.8013 -0.2122
 6644TIP3   OH241346   3.079   3.207   0.374  0.2863  0.1295 -0.1168
 6644TIP3    H141347   3.144   3.177   0.437  0.9701 -1.1807 -1.3707
 6644TIP3    H241348   3.114   3.288   0.338  2.8641 -1.9682 -2.8981
 6645TIP3   OH241349   5.227   6.690  12.440 -0.1943  0.2055  0.1024
 6645TIP3    H141350   5.136   6.706  12.464 -0.2272  1.4259 -0.7290
 6645TIP3    H241351   5.266   6.777  12.433  0.7910 -0.2573 -0.4764
 6646TIP3   OH241352   0.138   1.668  16.493  0.1779  0.0033  0.7393
 6646TIP3    H141353   0.223   1.628  16.475 -0.3137 -1.5816  1.7807
 6646TIP3    H241354   0.133   1.742  16.432  1.2962 -1.2739 -0.9784
 6647TIP3   OH241355   4.164   0.353  12.310 -0.1161  0.3538  0.3735
 6647TIP3    H141356   4.134   0.281  12.365 -0.5888  0.0593 -0.2576
 6647TIP3    H241357   4.256   0.365  12.334  0.4581 -1.5609 -0.6538
 6648TIP3   OH241358   1.416   3.811   4.664 -0.4300 -0.8020 -0.3686
 6648TIP3    H141359   1.332   3.765   4.671 -1.0162  0.3981  0.9568
 6648TIP3    H241360   1.405   3.869   4.589 -0.3188 -1.5124 -0.9524
 6649TIP3   OH241361   6.545   2.438  14.282  0.2575 -0.1166 -0.8035
 6649TIP3    H141362   6.626   2.489  14.285 -0.4711  1.0313  0.1735
 6649TIP3    H241363   6.574   2.347  14.281  1.5661  0.2346  0.8153
 6650TIP3   OH241364   3.680   2.679   1.055 -0.3985  0.1788 -0.0516
 6650TIP3    H141365   3.704   2.757   1.106 -0.7410 -0.6072  1.3498
 6650TIP3    H241366   3.702   2.702   0.965 -1.3797  2.2718  0.1754
 6651TIP3   OH241367   2.034   2.857   2.130 -0.3513  0.3307 -0.4306
 6651TIP3    H141368   1.992   2.935   2.095 -0.3409 -0.2112 -1.7058
 6651TIP3    H241369   2.109   2.843   2.073 -0.5090 -0.7624 -0.3878
 6652TIP3   OH241370   0.561   5.390  15.403 -0.2868 -0.1240  0.5762
 6652TIP3    H141371   0.643   5.370  15.358  0.1201  1.0774  0.7460
 6652TIP3    H241372   0.502   5.317  15.381  0.0166  0.2418 -1.5595
 6653TIP3   OH241373   4.480   3.109  12.633  0.4798  0.2995 -0.8141
 6653TIP3    H141374   4.449   3.019  12.645  0.2275  0.3583 -1.0168
 6653TIP3    H241375   4.570   3.108  12.664  0.4295  0.0096 -0.6782
 6654TIP3   OH241376   3.435   3.599   6.595  0.1395  0.1071 -0.1624
 6654TIP3    H141377   3.365   3.664   6.602  0.4665  0.6553 -1.6716
 6654TIP3    H241378   3.514   3.651   6.581  0.5490 -0.5861 -0.4634
 6655TIP3   OH241379   3.151   4.854   0.829 -0.5875  0.1893  0.3067
 6655TIP3    H141380   3.091   4.896   0.768 -0.0450 -0.0764 -0.4290
 6655TIP3    H241381   3.096   4.824   0.901 -1.1928  0.8018  0.1088
 6656TIP3   OH241382   1.628   1.823   2.868  0.2356  0.5877  0.4232
 6656TIP3    H141383   1.587   1.824   2.781  3.0874 -1.7763 -1.1495
 6656TIP3    H241384   1.722   1.814   2.849  0.8800 -0.9488  3.7581
 6657TIP3   OH241385   2.061   2.784  13.217 -0.3304  0.2780  0.3792
 6657TIP3    H141386   2.131   2.766  13.279 -0.4637  1.8287  1.0164
 6657TIP3    H241387   1.996   2.832  13.267  0.1465  2.7908 -1.2329
 6658TIP3   OH241388   3.137   4.578   6.672 -0.1517  0.0571  0.1994
 6658TIP3    H141389   3.217   4.604   6.625 -0.8458  1.7696 -0.1298
 6658TIP3    H241390   3.137   4.483   6.668  0.3484  0.0695 -2.4725
 6659TIP3   OH241391   5.609   4.368   0.031  0.5620  0.1610  0.1843
 6659TIP3    H141392   5.699   4.383   0.060  0.5871  2.3804 -0.8247
 6659TIP3    H241393   5.561   4.347   0.111  1.4998  1.5129  1.1508
 6660TIP3   OH241394   0.166   3.351   5.051  0.5948  0.2550  0.2755
 6660TIP3    H141395   0.115   3.341   4.970  1.4912  1.0388 -0.4050
 6660TIP3    H241396   0.223   3.426   5.035  1.7335 -0.3875  1.1314
 6661TIP3   OH241397   4.712   3.160   2.215 -0.4808 -0.9703  0.6527
 6661TIP3    H141398   4.752   3.241   2.184 -0.7634 -1.6437 -1.5922
 6661TIP3    H241399   4.714   3.168   2.311  0.9505  0.9537  0.5180
 6662TIP3   OH241400   3.865   5.639  14.945 -0.1920  0.3428 -0.3829
 6662TIP3    H141401   3.947   5.656  14.898 -0.2517  0.9825 -0.2533
 6662TIP3    H241402   3.880   5.554  14.988 -0.2221 -0.3743 -1.7287
 6663TIP3   OH241403   2.924   2.631   5.742 -0.1745  0.1977 -0.3248
 6663TIP3    H141404   2.840   2.641   5.787  0.1082 -0.7021  0.4414
 6663TIP3    H241405   2.920   2.693   5.669 -0.6461  1.7288  0.9371
 6664TIP3   OH241406   2.394   4.424  15.747 -0.2528  0.0820  0.1848
 6664TIP3    H141407   2.476   4.459  15.711 -0.4456  0.2683 -0.0688
 6664TIP3    H241408   2.382   4.341  15.702  0.1650 -0.2815  0.7316
 6665TIP3   OH241409   0.901   5.688   6.118  0.2579  0.5460  0.1002
 6665TIP3    H141410   0.906   5.781   6.097  2.0418  0.9603  2.0299
 6665TIP3    H241411   0.986   5.653   6.094 -0.1910 -0.4760 -0.0741
 6666TIP3   OH241412   5.828   0.095  13.749  0.7036  0.1174 -0.2212
 6666TIP3    H141413   5.870   0.013  13.724 -0.4108 -0.3347 -0.6693
 6666TIP3    H241414   5.787   0.076  13.834  1.8327  0.7153  0.4759
 6667TIP3   OH241415   2.390   4.629   3.460  0.1972  0.6996  0.3878
 6667TIP3    H141416   2.436   4.576   3.525  0.3855  0.9327  0.4476
 6667TIP3    H241417   2.446   4.627   3.382 -0.1894  0.1462  0.1157
 6668TIP3   OH241418   5.058   3.088   6.097 -0.2453 -0.4346  0.5051
 6668TIP3    H141419   5.144   3.119   6.068 -0.2191  0.4074  1.4402
 6668TIP3    H241420   4.998   3.116   6.027  0.2258 -1.0440 -0.1611
 6669TIP3   OH241421   6.703   0.403   0.451  0.3807 -0.1198 -0.3005
 6669TIP3    H141422   6.699   0.343   0.378 -0.2310 -0.5855  0.1052
 6669TIP3    H241423   6.797   0.419   0.464  0.4765  0.5411 -1.6271
 6670TIP3   OH241424   3.558   4.250   1.884 -0.4558 -0.7266  0.4610
 6670TIP3    H141425   3.652   4.241   1.865 -0.8696 -2.2944 -1.2214
 6670TIP3    H241426   3.554   4.270   1.977  1.6146  1.8763  0.1265
 6671TIP3   OH241427   5.338   6.665   1.654 -0.1208  0.1683 -0.6394
 6671TIP3    H141428   5.256   6.698   1.619 -0.6923 -2.6918 -2.3078
 6671TIP3    H241429   5.313   6.615   1.732  0.4611  1.6422  0.5539
 6672TIP3   OH241430   5.905   5.327   4.688  0.0664 -0.2783 -0.0279
 6672TIP3    H141431   5.855   5.270   4.747  0.4591  0.0444  0.6197
 6672TIP3    H241432   5.853   5.329   4.608 -1.6244  1.0376  1.0353
 6673TIP3   OH241433   6.619   5.403   4.366 -0.4143  0.1242 -0.5578
 6673TIP3    H141434   6.683   5.461   4.406 -1.0669  1.8421 -1.8809
 6673TIP3    H241435   6.621   5.324   4.420  2.6104  0.1991 -0.4079
 6674TIP3   OH241436   5.314   1.314   6.669  0.3540  0.4868 -0.5955
 6674TIP3    H141437   5.399   1.274   6.687 -0.3380 -0.0751  1.8608
 6674TIP3    H241438   5.326   1.406   6.691  0.9523  0.9714 -2.7165
 6675TIP3   OH241439   5.179   1.495   1.763  0.2575  0.1900 -0.0152
 6675TIP3    H141440   5.170   1.419   1.821 -1.3554  0.1828 -0.2134
 6675TIP3    H241441   5.169   1.459   1.675  1.9868  0.3008 -0.2801
 6676TIP3   OH241442   0.062   5.695  10.366 -0.0669  0.2663 -0.9415
 6676TIP3    H141443  -0.011   5.704  10.304 -1.7785  0.3393  0.9924
 6676TIP3    H241444   0.070   5.601  10.381 -1.1725  0.3616  0.3945
 6677TIP3   OH241445   5.966   3.313  16.346 -0.4774  0.8186 -0.1354
 6677TIP3    H141446   5.957   3.223  16.378 -0.0374  0.7447 -0.2151
 6677TIP3    H241447   6.047   3.345  16.385 -1.3140  1.6574  1.0049
 6678TIP3   OH241448   5.958   4.417   4.110 -0.3059  0.6827 -0.3707
 6678TIP3    H141449   5.951   4.474   4.033  0.2833  0.8311 -0.3182
 6678TIP3    H241450   5.875   4.428   4.155 -1.1835 -0.3670 -1.6383
 6679TIP3   OH241451   1.019   4.979  13.318 -0.6481 -0.0693 -0.3048
 6679TIP3    H141452   1.071   4.921  13.374 -0.2428  0.7238  0.1459
 6679TIP3    H241453   0.928   4.951  13.332 -0.7331  1.1729  2.0448
 6680TIP3   OH241454   2.628   2.991  14.087  0.0097  0.4317 -0.0487
 6680TIP3    H141455   2.688   2.998  14.013 -1.2033 -1.2044 -1.2587
 6680TIP3    H241456   2.641   3.072  14.136  1.4626  1.1851 -1.5640
 6681TIP3   OH241457   0.803   0.738  17.156  0.4798  0.0244  0.1491
 6681TIP3    H141458   0.717   0.740  17.197  1.0807  0.1838  1.4648
 6681TIP3    H241459   0.806   0.656  17.108 -0.9119  0.6623 -1.0897
 6682TIP3   OH241460   2.201   5.532  14.982  0.1248  0.0060  0.1212
 6682TIP3    H141461   2.174   5.619  14.952  3.7578  1.6504  1.1190
 6682TIP3    H241462   2.230   5.487  14.903  0.0323  0.4238 -0.1523
 6683TIP3   OH241463   5.108   5.934  16.566 -0.2456  0.1841  0.6522
 6683TIP3    H141464   5.192   5.922  16.610 -0.0271  0.9122  0.4387
 6683TIP3    H241465   5.057   5.856  16.590  0.4253 -0.1798  0.9177
 6684TIP3   OH241466   4.280   4.261   3.859  0.1344 -0.2708  0.1812
 6684TIP3    H141467   4.253   4.338   3.808  1.3492 -0.9315 -1.5585
 6684TIP3    H241468   4.268   4.187   3.799 -0.1528 -1.3410  1.5226
 6685TIP3   OH241469   5.685   5.706  17.021  0.7373 -0.4775  0.4421
 6685TIP3    H141470   5.779   5.692  17.011  0.5526 -0.5260 -1.6055
 6685TIP3    H241471   5.666   5.785  16.970 -0.2449 -0.0959  1.3589
 6686TIP3   OH241472   5.547   3.256   0.525 -0.8873  0.2694  0.2110
 6686TIP3    H141473   5.593   3.215   0.452 -0.9794 -2.1575  1.4138
 6686TIP3    H241474   5.547   3.349   0.504  0.1127 -0.2114 -2.2800
 6687TIP3   OH241475   5.274   2.478  11.536  0.4828 -0.1110  0.3460
 6687TIP3    H141476   5.271   2.563  11.581  1.4982 -0.2317  0.6722
 6687TIP3    H241477   5.268   2.500  11.443 -0.6005  0.2134  0.4718
 6688TIP3   OH241478   2.249   1.591  12.086  0.6576  0.1875  0.1165
 6688TIP3    H141479   2.188   1.534  12.132  2.0802 -0.5121  1.2212
 6688TIP3    H241480   2.324   1.598  12.145  0.5836  3.2045  0.0465
 6689TIP3   OH241481   4.774   6.297   1.535  0.0629 -0.3540  0.6688
 6689TIP3    H141482   4.717   6.277   1.609  0.2146 -1.0389  0.6079
 6689TIP3    H241483   4.862   6.298   1.572 -0.0278  1.5022  0.9239
 6690TIP3   OH241484   6.343   5.246  14.148 -0.6572  0.2073  0.4124
 6690TIP3    H141485   6.305   5.334  14.158 -2.5645 -0.7152  1.8489
 6690TIP3    H241486   6.417   5.246  14.208 -0.3521  0.9808  0.0504
 6691TIP3   OH241487   0.986   2.627  15.106  0.9300  0.0757 -0.0320
 6691TIP3    H141488   1.052   2.557  15.107  0.6773 -0.2163 -1.7031
 6691TIP3    H241489   0.907   2.586  15.072  0.0046  0.5659  1.4303
 6692TIP3   OH241490   4.761   5.854  15.353  0.0095 -0.0527  0.6734
 6692TIP3    H141491   4.847   5.817  15.335 -0.4420 -0.3244 -1.1059
 6692TIP3    H241492   4.776   5.948  15.359  0.5046 -0.1462  0.9710
 6693TIP3   OH241493   3.289   3.616   0.185 -0.1957 -0.2122  1.0195
 6693TIP3    H141494   3.286   3.688   0.248  0.2477  0.2015  0.5877
 6693TIP3    H241495   3.335   3.546   0.230  0.9327  0.4013  0.8556
 6694TIP3   OH241496   4.972   2.788   3.650 -0.6450  0.3410 -0.2721
 6694TIP3    H141497   4.983   2.869   3.701 -0.4146 -0.3500  0.8050
 6694TIP3    H241498   4.937   2.725   3.713  1.2872 -1.0312 -0.4961
 6695TIP3   OH241499   0.499   0.855   4.411 -0.3674 -0.3344  0.1059
 6695TIP3    H141500   0.448   0.921   4.364  0.3885  0.3302  0.2027
 6695TIP3    H241501   0.470   0.863   4.502  0.0214  0.1588  0.1904
 6696TIP3   OH241502   2.598   1.947  12.278 -0.3059  0.4080 -0.2049
 6696TIP3    H141503   2.528   1.955  12.213 -0.2916 -2.2002 -0.6472
 6696TIP3    H241504   2.556   1.910  12.355 -0.1771  2.8234  1.1268
 6697TIP3   OH241505   0.861   2.381   2.391  0.1066 -0.1337 -0.1884
 6697TIP3    H141506   0.951   2.374   2.358 -0.4298  0.7347 -1.9866
 6697TIP3    H241507   0.843   2.475   2.392 -0.3760 -0.2143  1.4048
 6698TIP3   OH241508   3.970   6.741   6.623  0.7529 -0.5427  0.6048
 6698TIP3    H141509   3.900   6.777   6.677 -0.0226 -1.1428  0.0234
 6698TIP3    H241510   3.940   6.654   6.600  1.5252 -0.6639  0.0256
 6699TIP3   OH241511   2.334   2.225   5.553  0.1461  0.1910 -0.1790
 6699TIP3    H141512   2.426   2.203   5.560  0.4712  0.4559 -2.7210
 6699TIP3    H241513   2.331   2.299   5.492 -1.8599 -1.1032 -1.7659
 6700TIP3   OH241514   6.680   0.510  14.722 -0.5222 -0.1957 -0.2334
 6700TIP3    H141515   6.608   0.447  14.715 -0.4199 -0.1780 -1.6382
 6700TIP3    H241516   6.649   0.587  14.676 -0.4892  0.6743  1.1507
 6701TIP3   OH241517   2.229   4.466   2.120  0.7341  0.1494 -0.5631
 6701TIP3    H141518   2.159   4.410   2.155  2.2718 -0.6498  1.3776
 6701TIP3    H241519   2.235   4.539   2.182  1.3421  0.4345 -0.9465
 6702TIP3   OH241520   4.441   0.254   6.158  0.1846 -0.1711 -0.9769
 6702TIP3    H141521   4.441   0.187   6.226 -2.5941 -0.5472 -1.2424
 6702TIP3    H241522   4.528   0.295   6.164  0.7971 -1.6495  1.2949
 6703TIP3   OH241523   3.078   0.870  14.203 -0.2988  0.3558  0.9994
 6703TIP3    H141524   2.987   0.865  14.232 -0.9639  0.8871 -0.8597
 6703TIP3    H241525   3.074   0.911  14.116  1.6763 -0.0036  0.6759
 6704TIP3   OH241526   1.048   2.677   3.326  0.1123  0.2614  0.1104
 6704TIP3    H141527   0.967   2.627   3.333 -1.2244  2.3884  0.8058
 6704TIP3    H241528   1.059   2.717   3.412  2.7250 -1.0601  0.5074
 6705TIP3   OH241529   3.125   0.297   1.405  0.2366 -0.1699 -0.2042
 6705TIP3    H141530   3.046   0.253   1.374  0.4658 -0.1466 -0.8352
 6705TIP3    H241531   3.120   0.292   1.501 -1.8039  2.0492 -0.1162
 6706TIP3   OH241532   5.934   1.916   5.756  0.2395  0.2919  0.2942
 6706TIP3    H141533   6.024   1.944   5.771  1.9529 -3.6412 -1.2555
 6706TIP3    H241534   5.900   1.894   5.843  1.5994 -0.2276  0.7195
 6707TIP3   OH241535   1.092   0.830   0.759  0.0604 -0.1179  0.3648
 6707TIP3    H141536   1.057   0.875   0.836  0.1070 -1.2183  1.0618
 6707TIP3    H241537   1.118   0.744   0.792 -0.3681 -0.7890 -0.9775
 6708TIP3   OH241538   4.745   2.594  16.464 -0.1132 -0.5848  0.2007
 6708TIP3    H141539   4.803   2.533  16.509  0.2829 -1.5353 -1.5005
 6708TIP3    H241540   4.682   2.621  16.531  1.5388 -0.4451  1.7826
 6709TIP3   OH241541   5.300   5.309  16.333  0.0331  0.1784 -0.1662
 6709TIP3    H141542   5.241   5.305  16.258 -0.1666 -2.2970  0.0472
 6709TIP3    H241543   5.348   5.392  16.321 -2.9448  1.9909 -0.6649
 6710TIP3   OH241544   1.658   5.828   3.869 -0.0861  0.3945 -0.1197
 6710TIP3    H141545   1.723   5.774   3.913 -0.0340 -1.6895 -2.5438
 6710TIP3    H241546   1.709   5.885   3.811 -0.3037 -0.4983 -1.2306
 6711TIP3   OH241547   6.683   2.595  11.727  0.5759  0.0462  0.4918
 6711TIP3    H141548   6.612   2.558  11.674  1.0643 -0.4178  0.1533
 6711TIP3    H241549   6.641   2.665  11.777 -0.3489 -0.8598  1.0395
 6712TIP3   OH241550   0.740   1.673  12.348 -0.3472 -0.0873 -0.3377
 6712TIP3    H141551   0.741   1.758  12.393  0.6990  0.0679 -0.6341
 6712TIP3    H241552   0.737   1.608  12.418  1.0546  0.1570 -0.0253
 6713TIP3   OH241553   3.326   6.227   1.198  0.1692 -0.2492  0.0756
 6713TIP3    H141554   3.367   6.231   1.284  0.6209 -0.3410 -0.1285
 6713TIP3    H241555   3.264   6.300   1.196  2.6978  2.0546 -0.8069
 6714TIP3   OH241556   3.552   4.442   1.233  0.2559 -0.3387  0.1395
 6714TIP3    H141557   3.603   4.520   1.208  0.0295 -0.8543 -2.1251
 6714TIP3    H241558   3.610   4.369   1.212 -0.3140 -0.8359  0.2951
 6715TIP3   OH241559   5.238   3.183   4.692  0.3918  0.0827  0.4139
 6715TIP3    H141560   5.217   3.270   4.726  0.9103  0.7369 -0.8804
 6715TIP3    H241561   5.276   3.137   4.766  0.4664  1.0890  1.0237
 6716TIP3   OH241562   5.201   4.696  12.366 -0.1461  0.5601 -0.0431
 6716TIP3    H141563   5.296   4.696  12.372 -0.1867 -0.5095  1.0452
 6716TIP3    H241564   5.176   4.789  12.370  0.7963  0.7909  0.6823
 6717TIP3   OH241565   1.214   0.585  14.309 -0.1756 -0.3060 -0.1747
 6717TIP3    H141566   1.127   0.584  14.349  0.0764  0.7448  0.4202
 6717TIP3    H241567   1.273   0.613  14.379  0.7941 -1.8327 -0.3214
 6718TIP3   OH241568   2.678   2.921   2.154  0.4488 -0.2699  0.0566
 6718TIP3    H141569   2.596   2.883   2.185 -0.4458  1.3097 -0.2513
 6718TIP3    H241570   2.654   3.010   2.126  1.8478 -0.4770 -2.0261
 6719TIP3   OH241571   3.120   6.600   5.529 -0.3994 -0.3864 -0.2902
 6719TIP3    H141572   3.201   6.550   5.524  0.2989  0.4654  1.6107
 6719TIP3    H241573   3.147   6.691   5.515 -0.8702 -0.0004  1.1686
 6720TIP3   OH241574   3.144   1.951   5.843  0.1065  1.0214  0.3522
 6720TIP3    H141575   3.229   1.994   5.844  0.6654 -0.0559  0.6538
 6720TIP3    H241576   3.088   2.008   5.897  0.6188  1.7499  0.1327
 6721TIP3   OH241577   5.761   1.138  10.754 -0.5829 -0.4020  0.2275
 6721TIP3    H141578   5.667   1.125  10.772 -0.5639  1.2265  1.8718
 6721TIP3    H241579   5.770   1.118  10.661 -2.7499  0.1955 -0.1918
 6722TIP3   OH241580   1.611   6.304  14.974  0.1797  0.4279 -0.3203
 6722TIP3    H141581   1.644   6.375  15.028 -0.2213 -0.9033  1.7916
 6722TIP3    H241582   1.516   6.316  14.974  0.2152  0.8506 -1.4197
 6723TIP3   OH241583   4.349   3.456  16.495 -0.0261 -0.8253  0.3782
 6723TIP3    H141584   4.301   3.439  16.576  0.2716 -1.6043  0.3990
 6723TIP3    H241585   4.284   3.442  16.425 -0.0025 -1.2030  0.4331
 6724TIP3   OH241586   4.430   1.543   3.725 -0.4601  0.4873 -0.0029
 6724TIP3    H141587   4.424   1.630   3.764 -0.0753  0.7464 -0.5083
 6724TIP3    H241588   4.483   1.556   3.646  2.1029 -0.7222  1.4071
 6725TIP3   OH241589   2.796   1.550   0.676  0.2641 -0.1518 -0.0184
 6725TIP3    H141590   2.815   1.461   0.706 -0.1228 -0.0767  0.4651
 6725TIP3    H241591   2.728   1.540   0.610  0.7544 -0.2737 -0.5149
 6726TIP3   OH241592   0.076   0.165  14.227  0.5005  0.6541  0.0692
 6726TIP3    H141593  -0.018   0.180  14.230  0.6354  1.3970  2.5536
 6726TIP3    H241594   0.087   0.077  14.263  0.7238  0.1336 -1.2061
 6727TIP3   OH241595   1.071   1.187  16.151 -0.7178 -0.2210 -0.2361
 6727TIP3    H141596   1.040   1.148  16.069  1.0953 -0.9229 -0.6306
 6727TIP3    H241597   1.091   1.112  16.207  1.5428  0.0852 -0.5245
 6728TIP3   OH241598   2.544   1.166   2.711 -0.4860 -0.5070 -0.2256
 6728TIP3    H141599   2.547   1.183   2.805 -2.1798  2.6892 -0.5918
 6728TIP3    H241600   2.630   1.194   2.679 -0.9485  1.3634  0.0643
 6729TIP3   OH241601   4.826   4.915  12.280  0.1361 -0.0366  0.2769
 6729TIP3    H141602   4.737   4.905  12.247 -0.0470  2.0546 -0.0290
 6729TIP3    H241603   4.877   4.942  12.203  0.3671  1.7393  0.9834
 6730TIP3   OH241604   4.069   3.979   3.240 -0.2702 -0.6060 -0.0325
 6730TIP3    H141605   4.122   3.988   3.319  0.9308  0.0308 -0.8888
 6730TIP3    H241606   4.059   4.069   3.207  0.0151 -0.9471 -1.0983
 6731TIP3   OH241607   0.985   2.718   4.838 -0.2131  0.3761  0.0759
 6731TIP3    H141608   0.944   2.711   4.752  1.3406 -1.0055 -0.5920
 6731TIP3    H241609   1.071   2.756   4.821  0.4713 -0.7493  0.8661
 6732TIP3   OH241610   3.602   5.818   5.676 -0.0835  0.4665  0.2607
 6732TIP3    H141611   3.525   5.804   5.731 -0.4556  0.9804 -0.1127
 6732TIP3    H241612   3.675   5.782   5.726 -0.5302  0.2089  0.7344
 6733TIP3   OH241613   1.423   1.088  12.332 -0.0506  0.1908  0.0225
 6733TIP3    H141614   1.336   1.058  12.358  1.2074 -4.3576 -0.1593
 6733TIP3    H241615   1.419   1.093  12.237 -0.2040  0.4249  0.0393
 6734TIP3   OH241616   0.050   3.999   4.754 -0.3341 -0.6168 -0.5141
 6734TIP3    H141617  -0.024   3.981   4.811 -0.5943  0.2810 -0.5619
 6734TIP3    H241618   0.021   3.973   4.667 -1.4243  1.7321 -0.9258
 6735TIP3   OH241619   0.341   1.762  12.571  0.2678 -0.1431 -0.4481
 6735TIP3    H141620   0.319   1.688  12.514  0.0863 -0.7921  0.4484
 6735TIP3    H241621   0.288   1.748  12.649  0.9998  0.3838  0.1497
 6736TIP3   OH241622   5.449   4.845   4.250  0.5493  0.6149  0.0540
 6736TIP3    H141623   5.536   4.806   4.238  0.4016  0.0167  0.8180
 6736TIP3    H241624   5.389   4.771   4.242  0.0930  1.0468 -0.5910
 6737TIP3   OH241625   4.153   3.573  12.614  0.6494 -0.0278  0.2294
 6737TIP3    H141626   4.203   3.491  12.610  0.8736  0.1603 -1.3991
 6737TIP3    H241627   4.208   3.637  12.568  0.0313  0.8057  0.6232
 6738TIP3   OH241628   6.194   1.465   5.872  0.0794 -0.2614  0.2663
 6738TIP3    H141629   6.196   1.539   5.812 -2.1138  0.1189  0.5898
 6738TIP3    H241630   6.227   1.500   5.955  0.7350 -0.1444 -0.0331
 6739TIP3   OH241631   6.059   0.473   2.618  0.0014  0.3602 -0.1818
 6739TIP3    H141632   6.093   0.562   2.607  0.4055  0.3086  0.6214
 6739TIP3    H241633   6.012   0.475   2.701  0.9339 -0.4447  0.3950
 6740TIP3   OH241634   0.562   3.635  11.700  0.0638 -0.1119  0.7484
 6740TIP3    H141635   0.614   3.695  11.753  0.4354  0.1374  0.1090
 6740TIP3    H241636   0.504   3.691  11.649  0.5216 -0.2834  0.0310
 6741TIP3   OH241637   2.931   0.289   0.382 -0.3385 -0.0864  0.4563
 6741TIP3    H141638   2.915   0.354   0.313 -1.2291 -0.9423 -0.1721
 6741TIP3    H241639   2.873   0.316   0.454  1.8319  1.8250  1.6536
 6742TIP3   OH241640   0.640   1.690   4.841  0.0989  0.8830  0.3954
 6742TIP3    H141641   0.665   1.780   4.859  1.2168  0.5849  0.4347
 6742TIP3    H241642   0.719   1.639   4.860  0.6798  0.2693 -2.9860
 6743TIP3   OH241643   1.380   0.510  15.937 -0.3242 -0.1659  0.4978
 6743TIP3    H141644   1.440   0.437  15.926  0.6409  0.4400  1.4993
 6743TIP3    H241645   1.437   0.585  15.955 -1.2886  0.8156 -0.4071
 6744TIP3   OH241646   3.688   6.332  13.775 -0.2264  0.1632 -0.1475
 6744TIP3    H141647   3.741   6.283  13.837 -0.3770  1.3775  0.9777
 6744TIP3    H241648   3.738   6.412  13.759 -0.9541  0.5892 -0.3239
 6745TIP3   OH241649   1.410   4.548  11.666  0.4218 -0.1533 -0.4128
 6745TIP3    H141650   1.456   4.532  11.584  2.4878  0.4952  0.5471
 6745TIP3    H241651   1.353   4.471  11.678  1.1012 -0.8924 -1.7622
 6746TIP3   OH241652   0.187   4.861  11.219 -0.1215 -0.7832  0.0284
 6746TIP3    H141653   0.217   4.951  11.206 -1.8378 -0.3761 -1.4973
 6746TIP3    H241654   0.092   4.868  11.226 -0.1607 -2.3147  1.8166
 6747TIP3   OH241655   4.831   1.308  11.637  0.0744  0.2224  0.0530
 6747TIP3    H141656   4.803   1.367  11.706 -0.6911  0.9722 -0.8641
 6747TIP3    H241657   4.797   1.222  11.663 -0.8427  0.6317  0.2494
 6748TIP3   OH241658   5.438   0.107   4.567 -0.6456 -0.6726  1.0612
 6748TIP3    H141659   5.355   0.060   4.563  0.0288 -1.8058 -0.3094
 6748TIP3    H241660   5.429   0.177   4.502 -0.8853 -0.1413  1.6493
 6749TIP3   OH241661   1.531   6.727  16.177  0.0882  0.4221 -0.0225
 6749TIP3    H141662   1.497   6.653  16.226 -0.6078  0.4912 -0.3848
 6749TIP3    H241663   1.625   6.711  16.170  0.1628  0.2990  1.1269
 6750TIP3   OH241664   4.996   4.059   2.804  0.1993 -0.2881 -0.3858
 6750TIP3    H141665   4.963   4.049   2.893  1.7506 -1.2159  0.1312
 6750TIP3    H241666   5.003   3.969   2.771  1.8372 -0.1199 -0.5722
 6751TIP3   OH241667   5.721   5.205   4.865  0.2583  0.0005  0.1277
 6751TIP3    H141668   5.653   5.224   4.800  1.8661  0.0597 -1.6594
 6751TIP3    H241669   5.721   5.282   4.922 -1.7274 -0.4001  0.7373
 6752TIP3   OH241670   0.279   4.366  15.150 -0.2931 -0.3846  0.0967
 6752TIP3    H141671   0.240   4.297  15.097 -0.8598 -0.3531  0.4570
 6752TIP3    H241672   0.208   4.429  15.165  0.0801  0.0272  0.1880
 6753TIP3   OH241673   0.548   6.454  14.434 -0.3721 -0.1075 -0.3697
 6753TIP3    H141674   0.513   6.451  14.345 -2.0421  0.7974  0.1964
 6753TIP3    H241675   0.478   6.495  14.485  0.9126  0.2430  1.1870
 6754TIP3   OH241676   3.067   1.931   2.956  0.2822 -0.3881 -0.3340
 6754TIP3    H141677   2.981   1.959   2.924 -0.0601 -0.8846  0.1307
 6754TIP3    H241678   3.118   2.012   2.961 -0.1416 -0.0958 -0.6592
 6755TIP3   OH241679   0.973   5.367   5.189  0.7737 -0.6346 -0.6261
 6755TIP3    H141680   0.950   5.352   5.097 -0.6674 -0.1623 -0.3615
 6755TIP3    H241681   0.939   5.291   5.236 -1.0004  0.4309 -0.1258
 6756TIP3   OH241682   2.287   4.910  14.500  0.7340 -0.5821  0.3480
 6756TIP3    H141683   2.202   4.871  14.479  0.4581 -0.9557  2.0072
 6756TIP3    H241684   2.266   4.997  14.532  0.7887 -1.2649  2.3492
 6757TIP3   OH241685   0.105   6.705  14.340  0.2923  0.0910  0.0117
 6757TIP3    H141686   0.165   6.646  14.386  0.7507 -0.8726 -1.7475
 6757TIP3    H241687   0.018   6.676  14.368  0.5795  0.3546  1.2293
 6758TIP3   OH241688   2.781   2.049  13.433 -0.5314 -0.0998  0.2576
 6758TIP3    H141689   2.759   2.087  13.518  0.2868  0.1385  0.3760
 6758TIP3    H241690   2.699   2.049  13.384 -0.5152  2.1631  0.1233
 6759TIP3   OH241691   5.064   5.791   4.012 -0.9220  0.0481 -0.6172
 6759TIP3    H141692   5.053   5.875   4.055  2.0216  0.8091 -1.1133
 6759TIP3    H241693   5.096   5.813   3.924 -1.0853 -1.5666 -1.1151
 6760TIP3   OH241694   4.332   0.382  14.842  0.0098 -0.5008 -0.0430
 6760TIP3    H141695   4.407   0.325  14.856  0.5803 -0.5766 -2.7509
 6760TIP3    H241696   4.367   0.456  14.793 -1.3276  0.4867  0.4383
 6761TIP3   OH241697   6.723   6.457   0.324  0.0411 -0.2004  0.5454
 6761TIP3    H141698   6.736   6.410   0.407  1.5063 -2.2394 -0.7458
 6761TIP3    H241699   6.799   6.515   0.317  0.8882 -1.3618 -0.1746
 6762TIP3   OH241700   0.107   3.115   1.468  0.2698 -0.0054  0.1462
 6762TIP3    H141701   0.046   3.085   1.536  0.2793 -0.7722 -0.1677
 6762TIP3    H241702   0.118   3.208   1.485 -2.6062  0.6467 -1.0318
 6763TIP3   OH241703   4.394   0.239  13.503 -0.1696 -0.0677 -0.5440
 6763TIP3    H141704   4.452   0.303  13.462  2.5892 -0.1145  2.8425
 6763TIP3    H241705   4.322   0.291  13.538  0.1243  0.6657 -1.0069
 6764TIP3   OH241706   5.858   3.712   2.324 -0.1711 -0.2846  0.1583
 6764TIP3    H141707   5.797   3.769   2.372  1.5539  1.4696  0.3919
 6764TIP3    H241708   5.837   3.728   2.232  0.0605  0.4975  0.2321
 6765TIP3   OH241709   1.537   4.835   4.216 -0.1213 -0.2367  0.1214
 6765TIP3    H141710   1.524   4.895   4.290  0.2146 -0.2009  0.1525
 6765TIP3    H241711   1.552   4.892   4.141 -0.7717 -0.2684 -0.0361
 6766TIP3   OH241712   2.327   3.272   5.678  0.7246  0.0244 -0.0912
 6766TIP3    H141713   2.328   3.180   5.651  1.1510  0.4723 -1.6712
 6766TIP3    H241714   2.394   3.314   5.624 -1.1699  1.7696 -1.1974
 6767TIP3   OH241715   6.157   6.214   3.593  0.2692 -0.3889  0.2990
 6767TIP3    H141716   6.160   6.122   3.566  0.3329 -0.4955  0.6628
 6767TIP3    H241717   6.105   6.257   3.525 -1.5424 -1.0670  1.1902
 6768TIP3   OH241718   0.331   4.049   1.974  0.0805  0.2313 -0.0320
 6768TIP3    H141719   0.407   4.018   2.024  1.1132  2.5740 -0.0063
 6768TIP3    H241720   0.256   4.035   2.032  0.3745 -2.5211 -0.2231
 6769TIP3   OH241721   3.055   3.881  15.708  0.2980 -0.3197 -0.0778
 6769TIP3    H141722   2.995   3.829  15.762 -0.6624  0.7321 -0.0927
 6769TIP3    H241723   3.107   3.816  15.661  0.5966 -1.2613  1.4863
 6770TIP3   OH241724   0.381   4.576   2.651  0.1233  0.0160  0.2583
 6770TIP3    H141725   0.409   4.502   2.598 -1.3620 -1.5764  1.5659
 6770TIP3    H241726   0.456   4.635   2.653  0.5565 -0.2967 -2.7636
 6771TIP3   OH241727   3.235   1.214  17.271  0.2735  0.3698  0.1057
 6771TIP3    H141728   3.216   1.297  17.227  1.1363  0.7861  0.5092
 6771TIP3    H241729   3.204   1.148  17.209 -0.1901  0.9812 -0.3344
 6772TIP3   OH241730   6.225   4.133   6.175  0.3996  0.5793 -0.4974
 6772TIP3    H141731   6.199   4.042   6.162 -0.4470  0.6081  0.7672
 6772TIP3    H241732   6.146   4.184   6.154  0.0052  0.8125  1.3636
 6773TIP3   OH241733   0.746   5.336  17.030  0.1268 -0.3504 -0.2668
 6773TIP3    H141734   0.718   5.408  16.973  0.6519  1.5311  1.7156
 6773TIP3    H241735   0.666   5.287  17.048 -0.5518  0.6503 -0.4577
 6774TIP3   OH241736   4.567   4.141  15.610  0.1544 -0.1961 -0.5227
 6774TIP3    H141737   4.518   4.210  15.654 -0.8471 -1.7499  0.8939
 6774TIP3    H241738   4.575   4.172  15.520  0.6307  2.2130  0.2716
 6775TIP3   OH241739   5.452   4.789  13.983  0.7247 -0.1972  0.0454
 6775TIP3    H141740   5.544   4.783  14.005  0.9481  2.9381  0.4337
 6775TIP3    H241741   5.408   4.807  14.066  0.2055  1.2267 -0.4917
 6776TIP3   OH241742   2.754   3.270  13.569 -0.1731 -0.3190  0.0926
 6776TIP3    H141743   2.735   3.243  13.658  0.5618  0.8228  0.6219
 6776TIP3    H241744   2.790   3.192  13.527  1.1987 -0.4024  1.3462
 6777TIP3   OH241745   2.542   2.685   4.111 -0.2464 -0.0899 -0.2061
 6777TIP3    H141746   2.507   2.774   4.110 -1.0622 -0.3785 -2.0869
 6777TIP3    H241747   2.505   2.645   4.189 -0.5789  0.9420  0.1889
 6778TIP3   OH241748   5.480   2.928   4.772 -0.2923  0.5207  0.2031
 6778TIP3    H141749   5.409   2.968   4.822 -0.8556  1.2272 -1.1118
 6778TIP3    H241750   5.449   2.840   4.752 -1.0510  0.9993 -0.8075
 6779TIP3   OH241751   5.813   1.589  16.837  0.1568 -0.4836 -0.7242
 6779TIP3    H141752   5.748   1.519  16.836 -0.8635  0.4172  0.0607
 6779TIP3    H241753   5.816   1.618  16.929  0.6472  0.4120 -1.0091
 6780TIP3   OH241754   2.002   6.731   3.911 -0.1774  0.1951 -0.5053
 6780TIP3    H141755   2.066   6.789   3.952  0.4580 -0.5456 -0.4180
 6780TIP3    H241756   2.056   6.665   3.866 -0.7595  1.6231 -3.5743
 6781TIP3   OH241757   5.028   0.664  12.909 -0.0819 -0.2286  0.6155
 6781TIP3    H141758   5.063   0.658  12.821 -1.4255  0.6007 -0.0116
 6781TIP3    H241759   5.079   0.600  12.960  0.6964 -0.7306 -0.7438
 6782TIP3   OH241760   0.957   1.576  14.706 -0.1504  0.0611 -0.2500
 6782TIP3    H141761   0.900   1.612  14.637 -1.3359 -0.4583  0.4401
 6782TIP3    H241762   0.940   1.482  14.704  2.1695 -0.4133 -1.3417
 6783TIP3   OH241763   0.926   3.249   3.383 -0.0069 -0.0407  0.7761
 6783TIP3    H141764   1.003   3.302   3.363 -1.4552  1.0298 -2.9268
 6783TIP3    H241765   0.858   3.313   3.406 -1.1897 -0.3143 -1.6091
 6784TIP3   OH241766   5.298   6.671   0.897 -0.2309 -0.2535  0.2066
 6784TIP3    H141767   5.318   6.765   0.897  0.4774 -0.3998  0.5662
 6784TIP3    H241768   5.303   6.645   0.805 -1.7042  0.3108 -0.0714
 6785TIP3   OH241769   2.412   0.808  14.820  0.0725 -0.0793 -0.1854
 6785TIP3    H141770   2.415   0.803  14.916  1.0498 -0.0205 -0.2028
 6785TIP3    H241771   2.320   0.800  14.799 -0.1478 -0.2004  0.7606
 6786TIP3   OH241772   3.574   4.105  14.760  0.2607  0.0047 -0.1256
 6786TIP3    H141773   3.652   4.094  14.705  1.2236 -0.1188  1.2293
 6786TIP3    H241774   3.501   4.090  14.700  1.2617  0.2379 -1.4528
 6787TIP3   OH241775   4.295   2.543   1.790  0.1850 -0.1918 -0.0827
 6787TIP3    H141776   4.376   2.507   1.755  0.0076  0.5766 -1.3627
 6787TIP3    H241777   4.274   2.488   1.865  1.5761 -0.7592 -0.0821
 6788TIP3   OH241778   4.875   4.211  12.867  0.7558 -0.0727 -0.3580
 6788TIP3    H141779   4.883   4.306  12.859  0.0402  0.0434  0.2570
 6788TIP3    H241780   4.924   4.177  12.792  0.4409  0.7939 -0.9733
 6789TIP3   OH241781   3.454   6.189  14.294 -0.0417  0.1363  0.3976
 6789TIP3    H141782   3.482   6.104  14.328  0.7910 -0.0217 -0.6325
 6789TIP3    H241783   3.448   6.245  14.372  2.0685 -0.1369  0.8109
 6790TIP3   OH241784   1.681   1.905  10.774 -0.1635 -0.7999  0.3938
 6790TIP3    H141785   1.620   1.976  10.794 -1.5464 -2.4029  2.2526
 6790TIP3    H241786   1.767   1.939  10.799 -0.3766  1.1237 -1.2646
 6791TIP3   OH241787   3.114   4.593   5.952 -0.3272  0.0928 -0.1765
 6791TIP3    H141788   3.029   4.550   5.964 -0.5170  0.7651  1.0304
 6791TIP3    H241789   3.138   4.572   5.862 -1.8317  0.0034 -0.5948
 6792TIP3   OH241790   5.390   2.137   5.194 -0.2282 -0.1125  0.3595
 6792TIP3    H141791   5.436   2.130   5.278 -0.7510  2.1072  0.9064
 6792TIP3    H241792   5.460   2.137   5.128  0.3570  0.2782  0.9674
 6793TIP3   OH241793   6.188   4.928  13.918 -0.2444  0.8146 -0.2941
 6793TIP3    H141794   6.153   4.950  14.004 -0.9023 -1.1692  0.0083
 6793TIP3    H241795   6.112   4.926  13.861 -0.5377 -2.0984  0.0577
 6794TIP3   OH241796   4.420   2.766   6.378 -0.2184 -0.3288 -0.2925
 6794TIP3    H141797   4.513   2.770   6.401 -0.0082 -0.9897 -0.9970
 6794TIP3    H241798   4.377   2.819   6.445  0.8621  1.5170 -0.9736
 6795TIP3   OH241799   1.945   5.735   1.177 -0.2207  0.0924 -0.2972
 6795TIP3    H141800   2.001   5.734   1.099  1.5261  0.2409  0.9165
 6795TIP3    H241801   1.911   5.825   1.180 -1.0951 -0.1743 -1.3995
 6796TIP3   OH241802   2.481   3.044  15.800  0.2532  0.6487  0.4478
 6796TIP3    H141803   2.443   3.061  15.714 -0.4416 -1.2250  0.3533
 6796TIP3    H241804   2.413   3.071  15.862  0.7889  2.0848  0.4555
 6797TIP3   OH241805   5.768   1.640   5.209 -0.0549 -0.3004  0.1375
 6797TIP3    H141806   5.695   1.603   5.259 -1.5512 -0.6234 -2.1257
 6797TIP3    H241807   5.830   1.669   5.276 -1.7034 -1.0844  2.1460
 6798TIP3   OH241808   5.822   5.797   5.804  0.1197 -0.3771 -0.2263
 6798TIP3    H141809   5.840   5.717   5.852 -0.2912  0.1973  0.9320
 6798TIP3    H241810   5.731   5.819   5.827 -0.5972 -0.8413 -2.4170
 6799TIP3   OH241811   6.241   3.189  15.522  0.0910  0.0178  0.1996
 6799TIP3    H141812   6.328   3.200  15.560  1.6425 -3.6790 -1.7909
 6799TIP3    H241813   6.184   3.170  15.596  1.8146 -1.3478  1.2260
 6800TIP3   OH241814   2.574   4.355  13.993  0.0791  0.0165 -0.3902
 6800TIP3    H141815   2.484   4.323  13.989 -0.4130  1.3974 -1.2023
 6800TIP3    H241816   2.627   4.276  13.998 -1.2016 -0.8157  1.1389
 6801TIP3   OH241817   5.078   2.915   0.399 -0.1138 -0.2324  0.5337
 6801TIP3    H141818   5.153   2.963   0.364  0.6165 -1.7332 -0.0324
 6801TIP3    H241819   5.062   2.956   0.485  1.9622 -0.4782  1.0957
 6802TIP3   OH241820   6.187   6.630  12.922 -0.5772  0.1110 -0.0616
 6802TIP3    H141821   6.251   6.578  12.971 -0.2928  1.2315  0.8084
 6802TIP3    H241822   6.102   6.591  12.944 -0.2599 -0.9904 -0.7189
 6803TIP3   OH241823   0.150   1.449  15.671 -0.2235 -0.1393 -0.1091
 6803TIP3    H141824   0.075   1.391  15.686 -1.1765  0.9555 -0.4600
 6803TIP3    H241825   0.110   1.533  15.649  1.1037  1.1941  2.2757
 6804TIP3   OH241826   0.051   5.133  12.337  0.3204  0.1425  0.4656
 6804TIP3    H141827   0.120   5.199  12.341 -0.4373  0.9440  0.8214
 6804TIP3    H241828   0.078   5.064  12.397  1.5150 -0.2705 -0.5167
 6805TIP3   OH241829   5.491   5.245  11.103  0.5584 -0.0010 -0.7910
 6805TIP3    H141830   5.508   5.338  11.091  1.8556 -0.1805 -0.5455
 6805TIP3    H241831   5.437   5.220  11.029  0.5622  0.8576 -1.0923
 6806TIP3   OH241832   5.650   5.746  16.415 -0.1393 -0.2078  0.3996
 6806TIP3    H141833   5.644   5.651  16.402 -2.6010 -0.2266  1.1366
 6806TIP3    H241834   5.639   5.758  16.509 -1.1933  0.8488  0.1694
 6807TIP3   OH241835   4.626   0.262  14.629  0.1512  0.2994  0.3718
 6807TIP3    H141836   4.589   0.243  14.543 -0.0955 -0.1164  0.5623
 6807TIP3    H241837   4.718   0.235  14.622 -0.4181 -2.0236  0.9296
 6808TIP3   OH241838   1.652   2.458   6.636  0.0224 -0.2971  0.1203
 6808TIP3    H141839   1.571   2.506   6.618 -0.5205 -0.9352  0.8412
 6808TIP3    H241840   1.689   2.502   6.712  1.1134  0.9029 -1.0507
 6809TIP3   OH241841   1.144   2.462  16.931 -0.1105 -0.4809 -0.3793
 6809TIP3    H141842   1.230   2.421  16.917  0.4471  0.1597  1.0329
 6809TIP3    H241843   1.122   2.442  17.022 -1.5406 -0.7536 -0.7615
 6810TIP3   OH241844   2.105   0.310  13.217 -0.1595  0.4320 -0.5379
 6810TIP3    H141845   2.095   0.288  13.125  0.7663  0.7603 -0.7328
 6810TIP3    H241846   2.111   0.226  13.262  0.1978  0.2672 -0.8869
 6811TIP3   OH241847   5.815   5.167  13.606  0.1748 -0.1099  0.3903
 6811TIP3    H141848   5.878   5.096  13.615  2.8792  2.2773  2.0841
 6811TIP3    H241849   5.806   5.203  13.694  0.9873  3.1886 -0.7202
 6812TIP3   OH241850   5.729   3.020   2.769 -0.2460 -0.6900  0.6052
 6812TIP3    H141851   5.719   3.090   2.833  0.4413 -0.9610  1.0107
 6812TIP3    H241852   5.679   3.050   2.693 -1.0695 -0.3690  1.2548
 6813TIP3   OH241853   2.968   5.450   5.245  0.5821  0.4049  0.2300
 6813TIP3    H141854   3.017   5.479   5.168 -0.1542  0.9516 -0.0466
 6813TIP3    H241855   2.920   5.372   5.215 -0.5071  1.2036 -0.1933
 6814TIP3   OH241856   4.054   5.771  15.957  0.2780 -0.4817 -0.3269
 6814TIP3    H141857   4.135   5.793  15.912  0.6656 -1.5828 -0.2182
 6814TIP3    H241858   3.995   5.744  15.887 -0.1667  0.7846 -0.4511
 6815TIP3   OH241859   0.215   1.804   4.125  0.0109  0.2526 -0.4331
 6815TIP3    H141860   0.136   1.756   4.101  0.5044 -0.4061 -0.7761
 6815TIP3    H241861   0.192   1.896   4.111 -0.8198  0.0970 -0.1420
 6816TIP3   OH241862   3.538   6.083   0.347  0.1679  0.0213  0.2270
 6816TIP3    H141863   3.492   6.097   0.430 -0.8546 -0.6443 -0.2105
 6816TIP3    H241864   3.606   6.150   0.346 -0.4633  0.7038  1.1269
 6817TIP3   OH241865   5.656   4.204   0.795  0.3060 -0.7573 -0.1421
 6817TIP3    H141866   5.723   4.137   0.805  1.8818  0.5874 -1.1270
 6817TIP3    H241867   5.590   4.164   0.739  0.6347 -1.8745  0.2556
 6818TIP3   OH241868   5.847   3.606  12.700  0.3832  0.2631  0.0872
 6818TIP3    H141869   5.849   3.697  12.728 -0.0396  0.2271  0.2399
 6818TIP3    H241870   5.758   3.577  12.718  0.7361 -0.4166  0.8018
 6819TIP3   OH241871   3.162   3.289  11.355  0.5263  0.1379  0.3192
 6819TIP3    H141872   3.142   3.332  11.272  0.5704 -2.9465 -1.4255
 6819TIP3    H241873   3.078   3.286  11.401 -0.0362 -0.2488 -0.7003
 6820TIP3   OH241874   3.615   4.688  13.432  0.2094  0.2004  0.0730
 6820TIP3    H141875   3.572   4.622  13.487  0.3059  2.2294  2.8202
 6820TIP3    H241876   3.705   4.690  13.463  0.2013  1.6198  0.0509
 6821TIP3   OH241877   5.273   2.730  11.614 -0.2334 -0.0308 -0.2169
 6821TIP3    H141878   5.220   2.806  11.591 -1.2896 -0.4408  0.7726
 6821TIP3    H241879   5.360   2.749  11.578 -0.5923  1.4341 -0.3515
 6822TIP3   OH241880   1.821   3.954  13.040 -0.3628 -0.3633 -0.3132
 6822TIP3    H141881   1.901   3.905  13.055 -0.1882  0.1047  0.3052
 6822TIP3    H241882   1.750   3.891  13.057 -0.1566 -0.1711  1.3469
 6823TIP3   OH241883   1.684   5.308   5.491  0.5601 -0.3711 -0.2162
 6823TIP3    H141884   1.697   5.358   5.410 -1.0891 -0.1973 -0.4077
 6823TIP3    H241885   1.646   5.225   5.462 -0.0905 -0.2831  0.3859
 6824TIP3   OH241886   1.545   6.728  15.406  0.0355  0.7861 -0.0793
 6824TIP3    H141887   1.490   6.669  15.353 -0.7427  2.7681 -1.6367
 6824TIP3    H241888   1.565   6.678  15.485 -1.1714 -1.2761 -0.9922
 6825TIP3   OH241889   3.712   0.920   4.519 -0.2547 -0.1342  0.0818
 6825TIP3    H141890   3.728   0.890   4.429  0.0984  1.9868 -0.6236
 6825TIP3    H241891   3.637   0.869   4.548  1.2830 -2.8168 -0.3897
 6826TIP3   OH241892   0.667   0.291  10.860 -0.7739  0.0064  0.0281
 6826TIP3    H141893   0.610   0.312  10.934  0.0361  1.2455  0.3205
 6826TIP3    H241894   0.756   0.306  10.893 -0.2048 -2.2211 -0.2999
 6827TIP3   OH241895   3.802   0.472   2.828 -0.0976  0.1016 -0.3277
 6827TIP3    H141896   3.798   0.459   2.922  0.6046  1.3670 -0.0902
 6827TIP3    H241897   3.885   0.433   2.802  0.3462  0.9090 -0.1803
 6828TIP3   OH241898   5.683   3.220   3.341  0.2268  0.7511  0.0272
 6828TIP3    H141899   5.703   3.168   3.419 -1.2895  0.2951  0.1416
 6828TIP3    H241900   5.723   3.172   3.269 -0.4107 -0.1197  0.2411
 6829TIP3   OH241901   1.502   1.277  11.030 -0.1301  0.0088 -0.4417
 6829TIP3    H141902   1.502   1.352  11.090 -0.8335 -1.3175  1.2948
 6829TIP3    H241903   1.410   1.260  11.013  0.0540  0.1044 -1.5977
 6830TIP3   OH241904   1.277   2.744  12.207  0.2288  0.5263 -0.0762
 6830TIP3    H141905   1.195   2.706  12.238  0.5827 -0.1308  0.0685
 6830TIP3    H241906   1.255   2.782  12.122 -0.1898  0.2067 -0.1168
 6831TIP3   OH241907   6.016   6.048   2.292 -0.0165  0.9909 -0.4084
 6831TIP3    H141908   5.924   6.077   2.292 -1.0653 -1.9430 -0.4398
 6831TIP3    H241909   6.020   5.985   2.220  1.3256 -0.8634  1.2006
 6832TIP3   OH241910   5.665   5.762  14.535  0.3852 -0.5334 -1.0253
 6832TIP3    H141911   5.735   5.698  14.523 -0.2781 -1.4372 -0.1710
 6832TIP3    H241912   5.585   5.711  14.532 -0.1026  0.0072  1.1197
 6833TIP3   OH241913   0.380   4.980   3.048 -0.5292 -0.1350 -0.0171
 6833TIP3    H141914   0.384   5.048   3.116  1.9624  0.0831 -0.2852
 6833TIP3    H241915   0.426   4.906   3.086 -1.4468 -0.9782 -0.5108
 6834TIP3   OH241916   4.434   3.396   0.903 -0.7480  0.2058  0.0698
 6834TIP3    H141917   4.449   3.316   0.853  1.6201  0.5330  0.1332
 6834TIP3    H241918   4.515   3.446   0.892 -2.4524  3.0195 -0.6852
 6835TIP3   OH241919   2.476   3.470   2.393 -0.0339  0.2498  0.0980
 6835TIP3    H141920   2.516   3.491   2.309 -1.3434 -1.1077 -0.9181
 6835TIP3    H241921   2.539   3.411   2.435  1.2287  1.9467  0.7007
 6836TIP3   OH241922   5.616   6.666   5.560 -0.1003 -0.5793  0.1180
 6836TIP3    H141923   5.567   6.740   5.523 -1.1081 -1.7943 -1.1142
 6836TIP3    H241924   5.625   6.605   5.487  3.5328 -0.3460  0.2302
 6837TIP3   OH241925   0.828   6.593   4.212 -0.9620  0.0805 -0.0267
 6837TIP3    H141926   0.874   6.666   4.253 -0.8936  0.2634 -0.4297
 6837TIP3    H241927   0.736   6.606   4.236 -0.6303 -1.2131  2.2006
 6838TIP3   OH241928   0.689   3.183  12.827 -0.3526 -0.0459 -0.0941
 6838TIP3    H141929   0.658   3.207  12.740 -1.5077  1.0387  0.5678
 6838TIP3    H241930   0.613   3.142  12.869  0.5555 -1.6978  0.0104
 6839TIP3   OH241931   5.688   2.167  14.683 -0.3157  0.1755 -0.3818
 6839TIP3    H141932   5.728   2.119  14.610  3.5168  0.5818  1.2261
 6839TIP3    H241933   5.677   2.101  14.752 -0.7939  0.4319 -0.2105
 6840TIP3   OH241934   4.145   2.187   0.400  0.0596  0.2471 -0.6738
 6840TIP3    H141935   4.154   2.251   0.470  0.0444 -0.1993 -0.2587
 6840TIP3    H241936   4.230   2.143   0.397  0.1896  0.5160 -1.1936
 6841TIP3   OH241937   0.476   3.846   1.820  0.1514 -0.0855  0.5651
 6841TIP3    H141938   0.548   3.908   1.813 -0.1623  0.3572  1.1320
 6841TIP3    H241939   0.408   3.893   1.868 -0.0352 -0.9171  1.1510
 6842TIP3   OH241940   5.337   4.643  15.162 -0.1629  0.0933  0.1544
 6842TIP3    H141941   5.252   4.655  15.121  0.1145  0.2686 -0.3836
 6842TIP3    H241942   5.337   4.552  15.192 -0.6648  0.1918  0.4677
 6843TIP3   OH241943   5.543   4.416  16.093 -0.0803 -0.1099  0.2018
 6843TIP3    H141944   5.527   4.339  16.038 -0.2008 -0.5133  0.7858
 6843TIP3    H241945   5.542   4.490  16.032 -2.5271 -0.2592 -0.0540
 6844TIP3   OH241946   4.473   3.515   0.367  0.4874  0.2263  0.1803
 6844TIP3    H141947   4.488   3.443   0.427  0.2938  0.7991  0.9340
 6844TIP3    H241948   4.561   3.539   0.336  0.7575  0.8434  1.3459
 6845TIP3   OH241949   3.241   3.296   1.964  0.1753 -0.2332 -0.1603
 6845TIP3    H141950   3.265   3.357   1.895 -1.2079 -0.4942 -0.9018
 6845TIP3    H241951   3.188   3.347   2.025 -0.7229 -0.5828 -0.6210
 6846TIP3   OH241952   5.696   5.233  15.584  0.1293  0.6835  0.0659
 6846TIP3    H141953   5.701   5.260  15.493 -1.5152  1.3326  0.1387
 6846TIP3    H241954   5.709   5.138  15.582 -2.8278  0.2247 -1.2200
 6847TIP3   OH241955   0.508   0.208  13.882  0.3552 -0.6373 -0.0197
 6847TIP3    H141956   0.569   0.212  13.955  0.5311 -0.1042 -0.1892
 6847TIP3    H241957   0.424   0.185  13.922  0.5602 -0.8700  0.2789
 6848TIP3   OH241958   4.921   2.522   3.019  0.2680 -0.4817  0.7009
 6848TIP3    H141959   4.851   2.534   2.955 -1.3794 -0.9937  2.3467
 6848TIP3    H241960   4.931   2.609   3.059  0.2980 -0.5005  0.7343
 6849TIP3   OH241961   5.698   0.150   3.919  0.5436 -0.5004 -0.7473
 6849TIP3    H141962   5.636   0.217   3.948 -0.3094 -0.9888 -1.3800
 6849TIP3    H241963   5.721   0.176   3.829  0.4426 -0.8801 -0.8855
 6850TIP3   OH241964   1.902   2.350  14.872 -0.2623  0.4270  0.2715
 6850TIP3    H141965   1.807   2.341  14.880 -0.2115  0.2223  0.7232
 6850TIP3    H241966   1.933   2.262  14.851 -0.1525  0.4399  0.3740
 6851TIP3   OH241967   5.801   1.241  12.210 -0.1105  0.8148  0.3970
 6851TIP3    H141968   5.755   1.317  12.247 -0.1299  1.6841 -1.3025
 6851TIP3    H241969   5.785   1.248  12.116  1.1422 -0.4774  0.0701
 6852TIP3   OH241970   0.794   4.520  11.179 -0.4952  0.1520  0.2317
 6852TIP3    H141971   0.705   4.504  11.149 -0.5285 -1.6127  1.1369
 6852TIP3    H241972   0.850   4.472  11.117 -0.4561 -1.8684  1.7039
 6853TIP3   OH241973   6.011   4.564   2.995  0.3186  0.7080  0.4546
 6853TIP3    H141974   6.003   4.610   2.912  0.6361 -0.2964 -0.1493
 6853TIP3    H241975   6.098   4.524   2.993 -0.6714 -1.6007  0.0481
 6854TIP3   OH241976   1.641   2.002  15.846 -0.5682 -0.1588 -0.3422
 6854TIP3    H141977   1.678   2.082  15.810  0.6913 -0.3675  0.4061
 6854TIP3    H241978   1.714   1.940  15.846 -1.2640 -1.0001  0.0013
 6855TIP3   OH241979   1.337   1.986   4.422 -0.2530  0.5142 -0.7168
 6855TIP3    H141980   1.256   2.029   4.395 -1.0826 -0.3858  0.2334
 6855TIP3    H241981   1.313   1.937   4.501  1.6294  1.6457  0.6448
 6856TIP3   OH241982   0.106   0.230   5.697  0.2097  0.0421 -0.3691
 6856TIP3    H141983   0.181   0.289   5.692  0.8439 -0.4256  2.0905
 6856TIP3    H241984   0.143   0.147   5.726 -0.9596 -0.9852 -1.6786
 6857TIP3   OH241985   0.664   4.779  12.804 -0.4736 -0.1034 -0.1711
 6857TIP3    H141986   0.701   4.866  12.793 -2.1444  0.6775  0.1584
 6857TIP3    H241987   0.618   4.762  12.721 -2.1223  0.3498  0.6070
 6858TIP3   OH241988   5.889   0.446  10.473  0.5060  0.1010 -0.4668
 6858TIP3    H141989   5.793   0.448  10.474  0.4161 -0.8795  2.3903
 6858TIP3    H241990   5.912   0.386  10.545  3.2695  0.2483 -1.1297
 6859TIP3   OH241991   6.747   6.300   2.802 -0.4102 -0.0229  0.3177
 6859TIP3    H141992   6.778   6.315   2.892 -1.1755  0.6109  0.4875
 6859TIP3    H241993   6.662   6.256   2.813  0.9826 -3.0670 -0.1524
 6860TIP3   OH241994   4.643   0.492   0.589  0.0267  0.0708  0.2340
 6860TIP3    H141995   4.720   0.436   0.581  0.4667  0.7476 -0.3235
 6860TIP3    H241996   4.613   0.505   0.499 -0.3434  0.3686  0.3961
 6861TIP3   OH241997   3.021   1.489   5.539 -0.3252 -0.1810  0.1644
 6861TIP3    H141998   3.031   1.480   5.634 -0.6960 -0.1864  0.2035
 6861TIP3    H241999   3.106   1.464   5.503  1.2139  3.5433  0.7265
 6862TIP3   OH242000   0.870   6.443  13.808 -0.0570 -0.1313 -0.5020
 6862TIP3    H142001   0.807   6.479  13.746 -0.2652 -2.5648 -1.7977
 6862TIP3    H242002   0.819   6.383  13.862  0.7499 -0.5267 -0.1680
 6863TIP3   OH242003   6.772   1.022  11.522  0.0493  0.3654  0.3181
 6863TIP3    H142004   6.753   1.104  11.476 -1.4328  0.1921  0.5935
 6863TIP3    H242005   6.856   0.993  11.485 -0.3423  1.0258 -1.1515
 6864TIP3   OH242006   2.889   5.605   6.702 -0.6810 -0.2408  0.3115
 6864TIP3    H142007   2.811   5.654   6.728 -1.3607 -2.2788  2.3732
 6864TIP3    H242008   2.865   5.513   6.713  1.1715 -1.0376 -1.6169
 6865TIP3   OH242009   5.413   3.909  16.243  0.3092 -0.0553  0.3068
 6865TIP3    H142010   5.491   3.895  16.295  0.9558 -0.8632 -0.8378
 6865TIP3    H242011   5.387   3.822  16.213  1.2252  0.5099 -2.4572
 6866TIP3   OH242012   2.455   0.384  12.383 -0.4529  0.2208  0.1163
 6866TIP3    H142013   2.384   0.332  12.419  0.9856 -2.3351 -0.4766
 6866TIP3    H242014   2.440   0.384  12.288  0.8328 -1.2894 -0.1351
 6867TIP3   OH242015   3.944   2.113  14.320 -0.5589 -0.1382 -0.1048
 6867TIP3    H142016   3.987   2.081  14.399 -1.1096  0.0355  0.2790
 6867TIP3    H242017   3.875   2.171  14.353 -1.4195 -0.8094 -0.6730
 6868TIP3   OH242018   1.292   5.557  11.333  0.9770 -0.0861 -0.3660
 6868TIP3    H142019   1.297   5.514  11.419 -1.3215 -0.0772 -0.1816
 6868TIP3    H242020   1.311   5.649  11.351 -0.1132  0.0357  0.2733
 6869TIP3   OH242021   6.717   5.981   4.496 -0.4714  0.3818  0.0100
 6869TIP3    H142022   6.644   5.946   4.546 -0.7305 -0.9615 -1.2378
 6869TIP3    H242023   6.677   6.037   4.430 -0.1373  2.0713  1.1656
 6870TIP3   OH242024   4.015   1.824  14.213 -0.0462 -0.0780 -0.1997
 6870TIP3    H142025   4.050   1.875  14.286 -1.7709  0.3237  0.3958
 6870TIP3    H242026   3.928   1.861  14.198 -0.2611 -1.0817 -1.5492
 6871TIP3   OH242027   2.674   3.955   1.083  0.3021 -0.2591  0.5219
 6871TIP3    H142028   2.700   3.965   0.991  2.0110 -1.0119  0.8911
 6871TIP3    H242029   2.725   4.021   1.129 -1.0340  0.5605  0.8872
 6872TIP3   OH242030   4.736   5.445   1.110  0.0281  0.1552  0.6325
 6872TIP3    H142031   4.651   5.434   1.067 -0.2228 -1.1706  1.4001
 6872TIP3    H242032   4.718   5.431   1.203  0.7003  2.2341  1.1117
 6873TIP3   OH242033   3.481   3.132  14.999  0.4951  0.6417  0.1838
 6873TIP3    H142034   3.560   3.159  15.045  0.0969  0.0302  1.2597
 6873TIP3    H242035   3.513   3.084  14.922  1.1649  0.0954  0.7967
 6874TIP3   OH242036   6.293   0.231   0.028 -0.0862 -0.0854  0.1745
 6874TIP3    H142037   6.297   0.280   0.110 -1.4587 -0.4172  0.4538
 6874TIP3    H242038   6.226   0.165   0.042  0.2186 -0.6663 -0.9517
 6875TIP3   OH242039   4.018   1.116  12.306 -0.5219 -0.1704  0.1991
 6875TIP3    H142040   4.017   1.198  12.257 -1.5767 -1.1630 -1.5233
 6875TIP3    H242041   3.985   1.140  12.393  0.9038  1.5319  0.3396
 6876TIP3   OH242042   6.515   4.879  16.891  0.1578 -0.0296  0.0008
 6876TIP3    H142043   6.495   4.948  16.953  0.7464 -0.0151  0.1748
 6876TIP3    H242044   6.436   4.825  16.889  0.0604  0.0879  0.6025
 6877TIP3   OH242045   0.190   6.241  12.291 -0.2758  0.2656  0.7905
 6877TIP3    H142046   0.224   6.330  12.303  0.8568 -0.1070  0.4697
 6877TIP3    H242047   0.115   6.251  12.233  0.8709  0.8432 -0.6686
 6878TIP3   OH242048   0.003   2.878  13.912  0.5416  0.1523 -0.8719
 6878TIP3    H142049  -0.081   2.857  13.871 -0.7647  0.1615  1.5694
 6878TIP3    H242050  -0.009   2.967  13.947  0.8239 -0.5475  1.1345
 6879TIP3   OH242051   1.882   0.021   1.741 -0.3754  0.0706 -0.1199
 6879TIP3    H142052   1.946   0.086   1.713 -1.4490  1.1271 -0.1701
 6879TIP3    H242053   1.834  -0.002   1.661 -1.2211  0.5990  0.2301
 6880TIP3   OH242054   5.062   6.365  10.435  0.3706  0.3242  0.2436
 6880TIP3    H142055   5.157   6.362  10.433  0.3444 -2.0313 -1.8796
 6880TIP3    H242056   5.040   6.370  10.528  2.5599 -1.5703  0.9450
 6881TIP3   OH242057   3.448   1.585   4.090  0.3131  0.0849  0.1319
 6881TIP3    H142058   3.355   1.570   4.075  0.1537  0.6756  0.4820
 6881TIP3    H242059   3.461   1.568   4.183  0.8044 -1.1643 -0.1387
 6882TIP3   OH242060   3.115   6.542  12.138  0.5208 -0.5295  0.4795
 6882TIP3    H142061   3.184   6.604  12.114  0.2205 -0.2465  0.3425
 6882TIP3    H242062   3.156   6.456  12.129  1.2431 -0.3266  1.6119
 6883TIP3   OH242063   2.579   5.231   5.947  0.4079  0.5592  0.1533
 6883TIP3    H142064   2.659   5.184   5.924 -0.1784 -0.9300  1.0214
 6883TIP3    H242065   2.515   5.200   5.884 -0.1014 -0.2246  1.0214
 6884TIP3   OH242066   6.018   2.221  12.945 -0.2565  0.1517 -0.3005
 6884TIP3    H142067   5.990   2.297  12.997 -1.3679 -1.0858  1.0054
 6884TIP3    H242068   6.090   2.184  12.995 -0.0019  0.0988 -0.7069
 6885TIP3   OH242069   2.143   4.117   0.980  0.6863  0.1775 -0.1596
 6885TIP3    H142070   2.080   4.046   0.974  0.6031  0.2999 -0.7883
 6885TIP3    H242071   2.226   4.073   1.000  0.6219 -0.0895 -0.4737
 6886TIP3   OH242072   5.861   3.255   3.742  0.3694 -0.5508 -0.5681
 6886TIP3    H142073   5.942   3.220   3.705  0.2367 -1.6284  0.1413
 6886TIP3    H242074   5.883   3.280   3.831 -0.3339 -1.9400  0.0305
 6887TIP3   OH242075   4.161   5.234  13.080  0.5800  0.2323 -0.2388
 6887TIP3    H142076   4.099   5.189  13.023  0.0464  1.3845 -0.6125
 6887TIP3    H242077   4.120   5.233  13.167 -0.4058  1.6976 -0.6406
 6888TIP3   OH242078   1.223   1.827   3.763 -0.1425 -0.2817  0.2553
 6888TIP3    H142079   1.147   1.767   3.762  0.2429 -0.7723 -0.5099
 6888TIP3    H242080   1.225   1.864   3.675  0.7836 -0.6339  0.1184
 6889TIP3   OH242081   6.433   0.666  14.340 -0.0283  0.1599  0.0416
 6889TIP3    H142082   6.449   0.725  14.267  1.2274  0.2779  0.3928
 6889TIP3    H242083   6.432   0.579  14.301  0.8765  0.2042 -0.0969
 6890TIP3   OH242084   0.246   2.696  15.210 -0.9062 -1.2390 -0.0152
 6890TIP3    H142085   0.263   2.753  15.285 -0.5847  1.4819 -2.0024
 6890TIP3    H242086   0.168   2.734  15.169  0.0143 -1.4388 -2.0770
 6891TIP3   OH242087   0.190   4.193   0.060  0.1747  0.5891  0.0916
 6891TIP3    H142088   0.133   4.257   0.102  0.1186  1.3162 -1.0559
 6891TIP3    H242089   0.134   4.145   0.000  0.1495 -0.7847  1.1663
 6892TIP3   OH242090   6.533   5.236  12.218  0.2642  0.0823 -0.6021
 6892TIP3    H142091   6.547   5.315  12.165  0.3431 -0.0802 -0.8233
 6892TIP3    H242092   6.618   5.193  12.222  0.1821 -0.0857 -0.6308
 6893TIP3   OH242093   3.139   2.213   2.998 -0.8951  0.5235 -0.6242
 6893TIP3    H142094   3.167   2.215   3.090 -0.3076  3.2662 -0.7986
 6893TIP3    H242095   3.067   2.276   2.994 -1.1557  0.1687 -2.0036
 6894TIP3   OH242096   2.806   4.736   5.310 -0.0819 -0.2416  0.2835
 6894TIP3    H142097   2.743   4.768   5.246  2.3389  1.0787 -1.6259
 6894TIP3    H242098   2.819   4.809   5.371  0.0375 -0.2812  0.3070
 6895TIP3   OH242099   4.731   2.057  14.335 -0.1495 -0.3261 -0.2565
 6895TIP3    H142100   4.659   1.996  14.341 -0.2428 -0.2883 -0.9126
 6895TIP3    H242101   4.708   2.115  14.262  0.0635  0.3170  0.1734
 6896TIP3   OH242102   3.350   0.550  14.083 -0.3389  0.2146 -0.0621
 6896TIP3    H142103   3.265   0.565  14.125  0.9071  0.7537  2.4543
 6896TIP3    H242104   3.414   0.588  14.143  1.8023 -1.3102 -1.2274
 6897TIP3   OH242105   5.072   3.092  16.673  0.1275 -0.1463 -0.4673
 6897TIP3    H142106   5.043   3.167  16.622 -1.2522 -0.8105 -0.6973
 6897TIP3    H242107   5.063   3.119  16.764 -1.0765 -0.2826 -0.5389
 6898TIP3   OH242108   5.609   0.205   0.919  0.0210  0.1123 -0.2482
 6898TIP3    H142109   5.667   0.132   0.900  0.3793  0.7212 -1.6443
 6898TIP3    H242110   5.621   0.265   0.845 -0.3180  1.5417  0.7950
 6899TIP3   OH242111   4.464   5.668  15.252 -0.1124 -0.0119  0.4034
 6899TIP3    H142112   4.506   5.663  15.338  0.0905  0.8966  0.3617
 6899TIP3    H242113   4.529   5.633  15.192  0.0465  0.0844  0.5191
 6900TIP3   OH242114   1.473   1.692  10.463  0.2211 -0.1638 -0.2639
 6900TIP3    H142115   1.466   1.787  10.454  0.0413 -0.0629  0.7699
 6900TIP3    H242116   1.533   1.680  10.536 -0.7776 -0.8171  0.4708
 6901TIP3   OH242117   0.542   0.555  10.709  0.1793 -0.8854  0.0626
 6901TIP3    H142118   0.618   0.608  10.735  0.7459 -1.9562  0.6599
 6901TIP3    H242119   0.580   0.477  10.670 -0.6444 -1.0420 -0.4357
 6902TIP3   OH242120   3.587   6.364  10.612  0.6152 -0.5648 -0.1508
 6902TIP3    H142121   3.626   6.428  10.553  2.4260 -1.6172 -0.1756
 6902TIP3    H242122   3.559   6.292  10.555 -0.1877 -0.4013  0.0137
 6903TIP3   OH242123   3.911   1.347  16.755  0.0876  0.2719 -0.1193
 6903TIP3    H142124   3.955   1.267  16.729 -0.2110  0.5792 -1.6333
 6903TIP3    H242125   3.878   1.385  16.674 -1.4448  0.9574  0.7698
 6904TIP3   OH242126   4.077   3.991  13.039  0.6190  0.0380  0.7364
 6904TIP3    H142127   3.982   4.001  13.034  0.5193 -0.5609  1.3261
 6904TIP3    H242128   4.103   3.966  12.950  0.2113  0.0574  0.6122
 6905TIP3   OH242129   4.452   1.188  15.007 -0.4024 -0.3071 -0.8633
 6905TIP3    H142130   4.429   1.280  15.022  0.2912  0.1557 -2.4186
 6905TIP3    H242131   4.462   1.152  15.095 -2.7036  0.5443 -0.1522
 6906TIP3   OH242132   2.207   2.649  13.971 -0.0503 -0.0998 -0.3678
 6906TIP3    H142133   2.276   2.702  13.931 -0.7132  0.2720 -1.0588
 6906TIP3    H242134   2.209   2.673  14.063  0.0478  0.6998 -0.5680
 6907TIP3   OH242135   3.374   4.903   5.546 -0.1745  0.5736 -0.1561
 6907TIP3    H142136   3.350   4.811   5.542 -1.1528  0.7555  1.0554
 6907TIP3    H242137   3.310   4.947   5.491 -0.3951  0.6494  0.1588
 6908TIP3   OH242138   6.439   6.734  11.645  0.1085 -0.0646  0.1857
 6908TIP3    H142139   6.362   6.696  11.603  0.2909  0.2636 -0.4716
 6908TIP3    H242140   6.464   6.807  11.587  0.5958  0.1580  0.6694
 6909TIP3   OH242141   4.019   2.352  14.783  0.3920  0.1604  0.7001
 6909TIP3    H142142   4.026   2.262  14.816 -1.2694 -0.4671 -0.5147
 6909TIP3    H242143   3.988   2.402  14.859  0.8620 -0.3822  1.2615
 6910TIP3   OH242144   0.922   1.833   1.357  0.7131 -0.1966 -0.7569
 6910TIP3    H142145   0.840   1.864   1.395  0.3511 -1.2048 -0.6804
 6910TIP3    H242146   0.902   1.819   1.265  0.0191 -2.8385 -0.2982
 6911TIP3   OH242147   2.120   3.300   6.106  0.2708  0.0176  0.3342
 6911TIP3    H142148   2.153   3.214   6.133  1.7231  0.9914  1.9011
 6911TIP3    H242149   2.188   3.334   6.048 -1.2178 -0.6226 -1.9156
 6912TIP3   OH242150   1.129   2.093  15.732 -0.0138 -0.2731  0.4290
 6912TIP3    H142151   1.109   2.088  15.825 -0.6771  1.0332  0.3847
 6912TIP3    H242152   1.044   2.111  15.691  0.5541  1.1012 -0.2069
 6913TIP3   OH242153   1.100   1.082  17.186  0.3471 -0.0796 -0.9645
 6913TIP3    H142154   1.005   1.095  17.187  0.4631  0.8792  0.0746
 6913TIP3    H242155   1.129   1.128  17.107 -0.0602 -0.4602 -1.3383
 6914TIP3   OH242156   3.506   5.212  14.997 -0.3203 -0.4459  0.6313
 6914TIP3    H142157   3.568   5.264  14.946 -1.7064  0.5744 -0.0878
 6914TIP3    H242158   3.478   5.269  15.068  1.7736 -1.9359  2.8296
 6915TIP3   OH242159   0.060   2.454  11.392  0.2742 -0.2138 -0.1855
 6915TIP3    H142160   0.112   2.428  11.316  1.4343  1.2276  0.0584
 6915TIP3    H242161  -0.029   2.428  11.371  1.0000 -2.4217 -0.7977
 6916TIP3   OH242162   2.914   1.191   5.335  0.0583 -0.6219  0.7523
 6916TIP3    H142163   2.898   1.098   5.318  0.3192 -0.4755 -0.3953
 6916TIP3    H242164   3.004   1.206   5.305  0.1204 -0.0615  1.1943
 6917TIP3   OH242165   2.388   4.168  15.246  0.4498 -0.8165  0.2727
 6917TIP3    H142166   2.388   4.136  15.156 -0.4014  0.0924 -0.0725
 6917TIP3    H242167   2.314   4.229  15.250  0.9490 -0.2429  1.3714
 6918TIP3   OH242168   0.207   4.017   5.336 -0.2844 -0.0640 -0.2159
 6918TIP3    H142169   0.291   4.055   5.364 -0.6094  0.3132  0.2748
 6918TIP3    H242170   0.180   3.962   5.410  0.4352 -1.7197 -1.1179
 6919TIP3   OH242171   3.505   3.840   3.866 -0.2063 -0.2476 -0.1562
 6919TIP3    H142172   3.565   3.864   3.937 -0.7959  0.4866  0.0979
 6919TIP3    H242173   3.530   3.897   3.793  1.7850 -2.3619 -1.3177
 6920TIP3   OH242174   0.314   5.732  15.123 -0.6209  0.6233  0.1968
 6920TIP3    H142175   0.388   5.735  15.184  1.0658  0.3714 -1.7305
 6920TIP3    H242176   0.306   5.822  15.090  0.9523  0.0544 -1.9261
 6921TIP3   OH242177   1.098   6.760   5.522  0.1701  0.5861  0.2758
 6921TIP3    H142178   1.103   6.668   5.494  0.0392  0.7538 -0.3088
 6921TIP3    H242179   1.045   6.757   5.602  0.0063  0.1715  0.1596
 6922TIP3   OH242180   3.134   2.478  12.853  0.1879 -0.1191 -0.5253
 6922TIP3    H142181   3.133   2.456  12.946 -2.5313 -1.6802 -0.7945
 6922TIP3    H242182   3.088   2.563  12.848  1.4711  0.6046 -0.3735
 6923TIP3   OH242183   5.589   2.436   0.462  1.2268  0.3102 -0.2426
 6923TIP3    H142184   5.684   2.441   0.453  1.2802 -1.1084 -0.8689
 6923TIP3    H242185   5.572   2.344   0.485 -0.0980 -0.0432 -2.3116
 6924TIP3   OH242186   0.006   4.685   5.730  0.4743 -0.0432 -0.5151
 6924TIP3    H142187  -0.018   4.752   5.666 -0.4474  1.1497  1.0169
 6924TIP3    H242188  -0.057   4.615   5.717  1.9805 -1.1075 -2.7281
 6925TIP3   OH242189   2.977   1.608   5.118 -0.3061  0.0284 -0.1566
 6925TIP3    H142190   3.001   1.673   5.184  0.6484 -1.0550  0.5986
 6925TIP3    H242191   3.049   1.607   5.056 -1.4616  1.4591 -1.5972
 6926TIP3   OH242192   1.679   2.035  15.478 -0.3006  0.1838 -0.0678
 6926TIP3    H142193   1.685   2.082  15.561  0.7889  0.9579 -0.5675
 6926TIP3    H242194   1.594   1.991  15.482 -0.0422 -0.2378  1.6856
 6927TIP3   OH242195   0.019   4.390  13.935 -0.1596  0.0714  0.1594
 6927TIP3    H142196   0.100   4.430  13.901  0.3701 -1.3860 -0.3522
 6927TIP3    H242197   0.047   4.305  13.968 -1.4986 -0.4616 -0.0482
 6928TIP3   OH242198   3.041   5.918   4.851 -0.3405  0.2016  0.2532
 6928TIP3    H142199   3.129   5.912   4.889 -0.4250 -1.7232  0.2336
 6928TIP3    H242200   2.983   5.924   4.927 -0.2491  0.4932  0.2998
 6929TIP3   OH242201   3.429   5.366   1.912 -0.0028 -0.5861 -0.2642
 6929TIP3    H142202   3.486   5.412   1.974  0.5426  1.2107 -1.9988
 6929TIP3    H242203   3.341   5.397   1.933  0.1650 -0.0771 -0.2990
 6930TIP3   OH242204   4.602   0.993   6.168  0.5411  0.0495 -0.0651
 6930TIP3    H142205   4.679   1.038   6.202  0.1013  1.4758 -0.8564
 6930TIP3    H242206   4.532   1.017   6.228  0.6141 -0.9477  0.4429
 6931TIP3   OH242207   0.200   4.904  10.313 -0.2742  0.0635 -0.4385
 6931TIP3    H142208   0.116   4.868  10.342 -0.4316  1.1783  0.5490
 6931TIP3    H242209   0.251   4.914  10.393  0.6095 -0.0815 -0.9652
 6932TIP3   OH242210   6.523   1.457  10.592  0.0692  0.2804 -0.2447
 6932TIP3    H142211   6.555   1.376  10.631 -1.7600  0.0028  0.8159
 6932TIP3    H242212   6.473   1.499  10.662 -1.2026  1.0171 -1.5396
 6933TIP3   OH242213   5.915   5.875   1.331 -0.3670 -0.1251 -0.1259
 6933TIP3    H142214   5.896   5.932   1.256 -0.7782  1.1570  0.9027
 6933TIP3    H242215   5.830   5.837   1.354 -0.1489 -0.9212 -0.6170
 6934TIP3   OH242216   4.066   5.002   3.866  0.3150 -0.5324  0.5368
 6934TIP3    H142217   3.984   4.983   3.912  0.1263  1.0600  0.9173
 6934TIP3    H242218   4.134   4.994   3.933  0.5042 -1.9026  0.2100
 6935TIP3   OH242219   2.650   6.166   2.553  0.3786  0.1696  0.4553
 6935TIP3    H142220   2.719   6.116   2.510 -0.2146  1.2695 -1.9415
 6935TIP3    H242221   2.641   6.245   2.500 -2.4016  0.2668  0.9363
 6936TIP3   OH242222   2.534   6.543  14.359  0.1919  0.2094  0.4152
 6936TIP3    H142223   2.465   6.511  14.302 -0.0809 -0.7481  1.2535
 6936TIP3    H242224   2.582   6.465  14.386  2.8152  0.9750 -1.6041
 6937TIP3   OH242225   3.904   5.940  15.641  0.4318  0.0109 -0.1760
 6937TIP3    H142226   3.988   5.943  15.687  0.1367  1.0658  0.3195
 6937TIP3    H242227   3.921   5.984  15.558  0.6174 -0.6746 -0.5066
 6938TIP3   OH242228   2.389   4.161   3.516  0.0688 -0.5427 -0.5666
 6938TIP3    H142229   2.335   4.147   3.594 -0.2494 -1.0538 -0.8709
 6938TIP3    H242230   2.345   4.232   3.469 -0.1344 -0.7046 -0.6256
 6939TIP3   OH242231   4.964   2.112   5.404 -0.5403  0.7844  0.3252
 6939TIP3    H142232   4.967   2.080   5.493 -3.0147 -0.2386  0.1308
 6939TIP3    H242233   5.050   2.151   5.389  0.0559  0.6745  3.0042
 6940TIP3   OH242234   4.898   6.469  14.653 -0.4229  0.7475 -0.6006
 6940TIP3    H142235   4.966   6.523  14.692  1.0131 -0.3094 -1.5495
 6940TIP3    H242236   4.935   6.381  14.651 -2.1262 -0.0273 -0.4304
 6941TIP3   OH242237   3.390   3.847  13.466 -0.1172  0.2577 -0.4113
 6941TIP3    H142238   3.310   3.892  13.493  0.9061  0.8701  1.8385
 6941TIP3    H242239   3.445   3.915  13.427  0.2341  0.3628  0.2455
 6942TIP3   OH242240   3.980   2.688  11.899 -0.5016 -0.1019  0.3884
 6942TIP3    H142241   3.946   2.636  11.826  2.5360 -0.9491 -0.5500
 6942TIP3    H242242   3.936   2.773  11.890 -2.7028 -1.2336 -0.3425
 6943TIP3   OH242243   1.513   6.304  15.552 -0.2348  0.2090  0.3283
 6943TIP3    H142244   1.523   6.399  15.563  1.1831  0.3507 -1.6260
 6943TIP3    H242245   1.587   6.267  15.600 -0.2656  0.1386  0.3202
 6944TIP3   OH242246   5.526   2.646   0.701  1.3079 -0.0632  0.2437
 6944TIP3    H142247   5.465   2.720   0.703  3.8344  2.1599  1.9812
 6944TIP3    H242248   5.543   2.632   0.608 -2.2578 -1.2917 -0.3741
 6945TIP3   OH242249   3.453   6.389  13.519  0.3462  0.5147  0.0716
 6945TIP3    H142250   3.516   6.368  13.450  0.0258  0.4278 -0.1959
 6945TIP3    H242251   3.410   6.469  13.490 -1.3693 -0.6954 -0.9471
 6946TIP3   OH242252   5.763   6.696  15.829  0.3388  0.5131 -0.8103
 6946TIP3    H142253   5.853   6.709  15.860  0.0242 -0.9947  0.9541
 6946TIP3    H242254   5.710   6.754  15.883 -0.0253 -0.8623  0.3987
 6947TIP3   OH242255   6.232   5.031  12.839 -0.0730  0.5790 -0.6582
 6947TIP3    H142256   6.150   4.984  12.823  0.5035 -0.8066  0.2180
 6947TIP3    H242257   6.221   5.115  12.795 -1.4218 -0.1127 -1.7129
 6948TIP3   OH242258   3.588   2.792  12.510  0.1349 -0.3229 -0.0938
 6948TIP3    H142259   3.669   2.843  12.518 -1.3512  1.9954  1.1859
 6948TIP3    H242260   3.575   2.753  12.596  0.0580 -0.9993 -0.4040
 6949TIP3   OH242261   3.218   3.262  12.621 -0.0133  0.1188 -0.3252
 6949TIP3    H142262   3.229   3.211  12.701  1.3905  3.6034  1.9330
 6949TIP3    H242263   3.306   3.294  12.600 -0.8745  2.2319 -1.0617
 6950TIP3   OH242264   2.107   3.998   6.359  0.1288  0.1331  0.0896
 6950TIP3    H142265   2.130   4.091   6.358 -0.9434  0.4199  0.6388
 6950TIP3    H242266   2.090   3.976   6.268 -1.0711  0.8712  0.1145
 6951TIP3   OH242267   3.137   5.110  16.008  0.1686  0.1980  0.3920
 6951TIP3    H142268   3.059   5.055  16.006 -1.9096  2.7963  1.8917
 6951TIP3    H242269   3.188   5.077  16.082  0.0907 -1.0046 -0.0723
 6952TIP3   OH242270   0.929   6.659  13.591  0.2233  0.2741 -0.2564
 6952TIP3    H142271   0.938   6.638  13.684  0.6115 -0.1004 -0.3790
 6952TIP3    H242272   1.013   6.634  13.552 -0.0555  0.1292 -0.7688
 6953TIP3   OH242273   0.066   3.613   4.917  0.0179 -0.2493  0.6155
 6953TIP3    H142274   0.110   3.587   4.837 -0.2558 -0.3601  0.4973
 6953TIP3    H242275   0.134   3.613   4.984  0.8881  2.5579 -0.1233
 6954TIP3   OH242276   1.107   3.747  17.274  0.0905 -0.0073 -0.1597
 6954TIP3    H142277   1.139   3.782  17.191  0.5710 -1.6056 -0.6810
 6954TIP3    H242278   1.016   3.725  17.257 -0.4894  1.7398  0.4379
 6955TIP3   OH242279   3.642   1.513   2.283  0.1669  0.0956 -0.0612
 6955TIP3    H142280   3.654   1.592   2.335 -0.0796  0.0892  0.0077
 6955TIP3    H242281   3.574   1.464   2.329 -1.7704  1.1815 -1.6231
 6956TIP3   OH242282   6.458   5.257  15.235  0.1878 -0.1863 -0.2553
 6956TIP3    H142283   6.453   5.274  15.329  1.3383 -1.5272  0.0835
 6956TIP3    H242284   6.516   5.326  15.201 -0.2891  0.3455 -0.0071
 6957TIP3   OH242285   6.681   5.808   1.077  0.4404 -0.3035  0.7064
 6957TIP3    H142286   6.617   5.798   1.148 -0.1621 -0.6881  0.1162
 6957TIP3    H242287   6.730   5.726   1.077 -0.5820 -0.9449 -0.3013
 6958TIP3   OH242288   4.849   0.650  15.115  0.3782  0.0509 -0.5123
 6958TIP3    H142289   4.881   0.561  15.102 -0.2874  0.1049 -3.2952
 6958TIP3    H242290   4.927   0.705  15.108  0.3373 -0.0961 -3.1306
 6959TIP3   OH242291   0.959   1.024   5.384 -0.3729  0.3128  1.2168
 6959TIP3    H142292   0.955   1.102   5.329 -0.6199 -0.3829  0.2198
 6959TIP3    H242293   0.888   1.036   5.448 -1.4741  0.1837  0.0568
 6960TIP3   OH242294   5.443   6.587   5.096 -0.0194  0.1012  0.9750
 6960TIP3    H142295   5.457   6.493   5.109  0.0701 -0.1296 -0.5440
 6960TIP3    H242296   5.396   6.593   5.013  3.0088  1.5306 -0.8086
 6961TIP3   OH242297   4.657   0.734  17.119 -0.5708 -0.2096 -0.0999
 6961TIP3    H142298   4.590   0.758  17.184  0.4072  0.9646  0.5132
 6961TIP3    H242299   4.702   0.659  17.158 -0.3069  0.1836  0.3614
 6962TIP3   OH242300   5.395   3.894  11.264  0.2706  0.7507 -0.6200
 6962TIP3    H142301   5.428   3.936  11.185 -0.2378  0.2095 -1.1306
 6962TIP3    H242302   5.320   3.947  11.290  1.5619  2.0652  0.6216
 6963TIP3   OH242303   0.896   2.767  15.827 -0.0950 -0.0059 -0.2562
 6963TIP3    H142304   0.937   2.689  15.866  0.4940  0.7527  0.6672
 6963TIP3    H242305   0.899   2.833  15.896 -1.4720  0.5557 -0.7052
 6964TIP3   OH242306   3.059   3.346  16.886 -0.4771  0.2320  0.0635
 6964TIP3    H142307   2.982   3.344  16.829 -0.4556  1.1603 -0.0133
 6964TIP3    H242308   3.081   3.439  16.894  1.0988 -0.0613 -0.5262
 6965TIP3   OH242309   3.409   2.753  13.330 -0.1741 -0.3235  0.5611
 6965TIP3    H142310   3.461   2.680  13.362 -1.0605 -1.5131 -0.6034
 6965TIP3    H242311   3.337   2.712  13.281 -1.4008  1.2898  0.9112
 6966TIP3   OH242312   0.844   0.037   3.802  0.4152  0.0331 -0.5693
 6966TIP3    H142313   0.921   0.041   3.745  1.0893 -2.6266 -0.0001
 6966TIP3    H242314   0.778  -0.008   3.750 -0.6038  1.7730 -0.8382
 6967TIP3   OH242315   2.089   4.336  14.850  0.3838  0.0653  0.5645
 6967TIP3    H142316   2.173   4.338  14.897 -0.2373  1.1782  1.6728
 6967TIP3    H242317   2.037   4.272  14.898  0.3975 -0.2185  0.2067
 6968TIP3   OH242318   3.565   3.805   1.222 -0.2456  0.4568  0.3310
 6968TIP3    H142319   3.604   3.719   1.237  0.7807  0.9978  0.7951
 6968TIP3    H242320   3.516   3.795   1.140 -0.0497 -0.5345  0.3296
 6969TIP3   OH242321   5.012   3.788   3.174  0.1639 -0.1107 -0.2845
 6969TIP3    H142322   4.963   3.829   3.246  0.0098  1.1047 -1.0623
 6969TIP3    H242323   5.055   3.861   3.130  0.7363 -0.9142 -1.0747
 6970TIP3   OH242324   0.917   3.713   3.743  0.3093 -0.6209  0.4047
 6970TIP3    H142325   0.903   3.800   3.704 -0.3376 -0.6463  0.5708
 6970TIP3    H242326   0.961   3.732   3.826  0.0082 -0.4330  0.5258
 6971TIP3   OH242327   4.403   3.426  17.277 -0.7446 -0.7031  0.0097
 6971TIP3    H142328   4.490   3.390  17.293  1.1361  2.6061 -1.5907
 6971TIP3    H242329   4.386   3.406  17.185 -2.0248 -1.8749  0.4771
 6972TIP3   OH242330   0.796   5.857   4.629  0.1794  0.2485 -0.0965
 6972TIP3    H142331   0.885   5.868   4.596  0.1385  0.6575 -0.0761
 6972TIP3    H242332   0.776   5.940   4.671 -0.1308  0.0781  0.0959
 6973TIP3   OH242333   1.070   6.537   0.192 -0.3167  0.0805 -0.2456
 6973TIP3    H142334   1.151   6.504   0.154 -0.0947 -1.1278  1.1759
 6973TIP3    H242335   1.098   6.602   0.257 -0.5295  0.2900 -0.3628
 6974TIP3   OH242336   1.365   3.505  15.972 -0.7881 -0.1386  0.0234
 6974TIP3    H142337   1.282   3.553  15.965 -0.2140  0.8696 -0.0671
 6974TIP3    H242338   1.343   3.416  15.944 -1.6758  0.3073 -0.7879
 6975TIP3   OH242339   3.029   2.749  16.520 -0.0383  0.0111  0.1276
 6975TIP3    H142340   3.123   2.731  16.511 -0.2149 -0.9331 -0.0077
 6975TIP3    H242341   3.008   2.809  16.448 -0.0112 -1.7359 -1.4192
 6976TIP3   OH242342   5.498   3.511   6.844  0.1534  0.1450 -0.1203
 6976TIP3    H142343   5.575   3.563   6.819 -0.8757  1.1039 -1.4459
 6976TIP3    H242344   5.460   3.559   6.918  0.0378  0.4683 -0.3874
 6977TIP3   OH242345   4.907   3.809  13.380  0.1877  0.0857 -0.4853
 6977TIP3    H142346   4.923   3.902  13.394  0.9906 -0.0348 -0.5818
 6977TIP3    H242347   4.993   3.768  13.389 -0.0242 -0.5506 -1.2290
 6978TIP3   OH242348   1.937   5.288  11.403 -0.1732  0.4228  0.0997
 6978TIP3    H142349   1.980   5.218  11.452  1.7981  1.5484  0.0907
 6978TIP3    H242350   1.953   5.266  11.311  1.9478  1.6613  0.1000
 6979TIP3   OH242351   5.900   0.572   4.492  0.1708 -0.2983  0.0574
 6979TIP3    H142352   5.818   0.527   4.470 -0.1873 -0.1434  1.0364
 6979TIP3    H242353   5.937   0.521   4.563  0.3762  0.2600  0.3528
 6980TIP3   OH242354   3.923   0.315  16.652 -0.3411 -0.2826  0.2413
 6980TIP3    H142355   3.977   0.243  16.684 -0.9420 -0.5727  0.6344
 6980TIP3    H242356   3.851   0.272  16.605 -0.7896  0.0503  0.6110
 6981TIP3   OH242357   1.496   3.681   6.589  0.3620  0.0646 -0.6897
 6981TIP3    H142358   1.460   3.606   6.635 -0.4672  1.1848  0.5817
 6981TIP3    H242359   1.574   3.705   6.640  0.2295  0.4817 -0.6806
 6982TIP3   OH242360   4.014   0.026  13.831 -0.0246 -0.1740 -0.1424
 6982TIP3    H142361   4.038   0.002  13.742 -1.7669  0.9981 -0.9830
 6982TIP3    H242362   4.027   0.121  13.835  0.3082 -0.2473  0.9584
 6983TIP3   OH242363   4.470   0.958  14.870 -0.0360 -0.3995 -0.4255
 6983TIP3    H142364   4.534   0.899  14.910  1.0229 -0.9280 -2.7417
 6983TIP3    H242365   4.463   1.031  14.932  1.0178 -1.4423  0.9987
 6984TIP3   OH242366   1.869   1.294  11.896 -0.1123  0.2678 -0.5929
 6984TIP3    H142367   1.817   1.365  11.933 -0.6038 -0.2004 -0.3610
 6984TIP3    H242368   1.842   1.216  11.945  0.2891 -0.1132 -0.9566
 6985TIP3   OH242369   0.526   1.635  15.037  0.1361  0.0400  0.0114
 6985TIP3    H142370   0.451   1.625  15.095 -1.1577  0.6040 -1.4849
 6985TIP3    H242371   0.564   1.720  15.061  2.0536 -1.3946  2.6099
 6986TIP3   OH242372   3.048   4.317   5.432  0.0207 -0.4185  0.2293
 6986TIP3    H142373   2.991   4.392   5.447  1.2785  0.4060  1.1654
 6986TIP3    H242374   3.051   4.307   5.337 -1.0491  0.0058  0.1471
 6987TIP3   OH242375   0.555   2.599   4.620  0.2932  0.3715  0.5115
 6987TIP3    H142376   0.562   2.622   4.527 -1.2283 -0.7193  0.0848
 6987TIP3    H242377   0.467   2.628   4.645  0.5685  0.3724  1.5449
 6988TIP3   OH242378   0.291   6.128  12.787  0.2669 -0.0291 -0.2728
 6988TIP3    H142379   0.223   6.147  12.851  3.2112 -1.8554  3.8404
 6988TIP3    H242380   0.276   6.037  12.762  0.0639  0.1900 -0.9752
 6989TIP3   OH242381   6.212   1.263   4.389  0.2152  0.3499  0.0838
 6989TIP3    H142382   6.241   1.255   4.298  0.3696  0.8033  0.0876
 6989TIP3    H242383   6.227   1.355   4.411  1.5017 -0.0488  1.0152
 6990TIP3   OH242384   0.922   5.502  16.298  0.2757 -0.1422  0.0456
 6990TIP3    H142385   0.833   5.477  16.274  0.3383 -0.4327  0.1163
 6990TIP3    H242386   0.915   5.529  16.390  0.7452 -2.7589  0.9208
 6991TIP3   OH242387   4.139   2.359   3.758  0.0346 -0.5252  0.0128
 6991TIP3    H142388   4.168   2.327   3.844  1.9145  2.2446  0.5226
 6991TIP3    H242389   4.050   2.391   3.774  0.6937  0.8285  1.2334
 6992TIP3   OH242390   5.721   1.626  11.980  0.1665 -0.1607 -0.1824
 6992TIP3    H142391   5.688   1.716  11.977  1.0332  0.1274 -2.0218
 6992TIP3    H242392   5.642   1.572  11.975 -0.2827  0.4976 -0.3156
 6993TIP3   OH242393   5.396   6.233  13.819  0.2915 -0.3119  0.0567
 6993TIP3    H142394   5.464   6.166  13.827 -0.1210 -0.7716 -0.2196
 6993TIP3    H242395   5.380   6.241  13.725  0.5185  0.3692  0.0655
 6994TIP3   OH242396   2.483   0.960  11.559 -0.2614  0.0398  0.7054
 6994TIP3    H142397   2.434   1.018  11.500 -0.7167  0.4551  1.4758
 6994TIP3    H242398   2.573   0.964  11.526 -0.2945  1.1349  0.6941
 6995TIP3   OH242399   0.908   1.598   4.910  0.1238  0.7728  0.3111
 6995TIP3    H142400   0.895   1.612   5.004  0.9046  1.2094  0.3596
 6995TIP3    H242401   0.942   1.682   4.877  2.8716 -0.2806  0.2179
 6996TIP3   OH242402   2.843   6.168  13.158  0.1051 -0.5951  0.0413
 6996TIP3    H142403   2.806   6.225  13.091 -0.6782 -0.8102  0.2788
 6996TIP3    H242404   2.860   6.226  13.232 -0.8975 -0.6798  0.3638
 6997TIP3   OH242405   0.198   2.607   0.336 -0.4089  0.3376  0.4140
 6997TIP3    H142406   0.282   2.563   0.349  0.4980  2.1192  0.9415
 6997TIP3    H242407   0.140   2.568   0.401  0.0175 -0.8540  0.1103
 6998TIP3   OH242408   3.417   4.383  12.005 -0.1709 -0.3842 -0.6839
 6998TIP3    H142409   3.484   4.451  12.009 -2.4468  1.9796  2.6163
 6998TIP3    H242410   3.443   4.320  12.072 -0.5963 -0.0944 -0.2391
 6999TIP3   OH242411   3.121   5.176  12.219  0.7152  0.0225 -0.2523
 6999TIP3    H142412   3.040   5.223  12.236 -0.3071 -1.9523  0.6183
 6999TIP3    H242413   3.093   5.093  12.182  2.4920  0.2898 -2.3784
 7000TIP3   OH242414   3.160   3.243   5.946 -0.0592 -0.2188 -0.3488
 7000TIP3    H142415   3.090   3.182   5.967  0.6268 -0.0639  2.8920
 7000TIP3    H242416   3.223   3.192   5.895 -1.3293 -1.0218 -1.1687
 7001TIP3   OH242417   0.519   4.376  15.035  0.1567 -0.2331  0.2791
 7001TIP3    H142418   0.439   4.370  15.087  0.1943 -0.7779  0.2836
 7001TIP3    H242419   0.514   4.462  14.992 -0.4208 -0.2590  0.2907
 7002TIP3   OH242420   6.342   1.481  13.589  0.6634 -0.0973  0.3911
 7002TIP3    H142421   6.246   1.486  13.585  0.4817 -2.9769 -0.8195
 7002TIP3    H242422   6.372   1.559  13.543 -1.1303  0.1793 -0.4025
 7003TIP3   OH242423   2.751   5.969   2.348  0.3344 -0.0365  0.2390
 7003TIP3    H142424   2.792   5.897   2.396  0.8608 -0.5218 -0.9173
 7003TIP3    H242425   2.657   5.957   2.363  0.5030  0.5124  2.0925
 7004TIP3   OH242426   0.419   3.058   4.219 -0.1974 -0.0171  0.2721
 7004TIP3    H142427   0.466   3.071   4.137 -1.1772  1.9602 -0.0401
 7004TIP3    H242428   0.486   3.059   4.287  0.4306  0.5099 -0.3450
 7005TIP3   OH242429   5.138   6.476   0.641  0.2865 -0.0931 -0.0850
 7005TIP3    H142430   5.056   6.525   0.633  0.6931  0.3411 -2.6633
 7005TIP3    H242431   5.205   6.538   0.611  1.4533 -0.7214  1.1537
 7006TIP3   OH242432   4.315   4.337   5.033 -0.0759  0.1035  0.2277
 7006TIP3    H142433   4.357   4.269   4.981 -1.0224 -0.1942 -0.1679
 7006TIP3    H242434   4.259   4.289   5.094 -0.4512  0.5198  0.2129
 7007TIP3   OH242435   3.427   1.608  13.082 -0.1345  0.0091  0.1450
 7007TIP3    H142436   3.367   1.579  13.151 -1.1545 -0.6062 -0.9699
 7007TIP3    H242437   3.513   1.610  13.125 -0.8889  0.6981  1.7167
 7008TIP3   OH242438   3.073   0.664  15.790  0.2882 -0.4723 -0.0368
 7008TIP3    H142439   3.017   0.600  15.746  0.0470 -1.4965  1.6973
 7008TIP3    H242440   3.081   0.736  15.727 -3.4346 -0.0045 -0.1608
 7009TIP3   OH242441   0.484   3.545   1.319 -0.1302  0.0637 -0.3398
 7009TIP3    H142442   0.541   3.618   1.294 -2.0702  1.2658 -1.4211
 7009TIP3    H242443   0.492   3.541   1.415 -0.3441  2.0209 -0.1953
 7010TIP3   OH242444   5.725   6.758  11.355 -0.8044  0.2730  0.1059
 7010TIP3    H142445   5.779   6.787  11.428 -2.0952 -0.8972  1.6122
 7010TIP3    H242446   5.699   6.839  11.311  1.9016  0.8747 -0.5574
 7011TIP3   OH242447   0.407   6.148  11.593 -0.5741  0.5570 -0.8322
 7011TIP3    H142448   0.487   6.106  11.562  0.6320  2.5677 -0.6328
 7011TIP3    H242449   0.360   6.172  11.513 -0.1011  0.9262 -1.0083
 7012TIP3   OH242450   4.694   0.191  13.320  0.2735 -0.3737  0.4796
 7012TIP3    H142451   4.749   0.123  13.282 -0.2686 -0.1853 -0.6679
 7012TIP3    H242452   4.605   0.157  13.313  0.0215  0.3272  0.1497
 7013TIP3   OH242453   1.063   1.081  15.568 -0.1775 -0.6061  0.0212
 7013TIP3    H142454   1.123   1.038  15.629 -0.0345  0.1809  0.4561
 7013TIP3    H242455   1.073   1.174  15.587 -0.2566 -0.3528 -1.1023
 7014TIP3   OH242456   1.854   2.123   5.488  0.0125  0.3598  0.2479
 7014TIP3    H142457   1.915   2.180   5.441 -0.7816  0.8533 -0.2000
 7014TIP3    H242458   1.773   2.173   5.494  0.1221  0.3775  2.2881
 7015TIP3   OH242459   0.745   1.004   4.462  0.9226  0.2418  0.0319
 7015TIP3    H142460   0.801   0.939   4.506  0.3784  0.8067  1.6304
 7015TIP3    H242461   0.680   0.952   4.415  0.4868 -0.4095  1.3048
 7016TIP3   OH242462   2.218   5.839  12.904  0.0111 -0.8201 -0.1041
 7016TIP3    H142463   2.124   5.854  12.911 -0.0855 -1.2924 -0.3478
 7016TIP3    H242464   2.247   5.903  12.838  0.6344  2.4022  2.9892
 7017TIP3   OH242465   4.192   0.746  15.001 -0.3274 -0.1494 -0.4588
 7017TIP3    H142466   4.250   0.751  15.076  0.4714 -1.6269 -0.9303
 7017TIP3    H242467   4.112   0.706  15.035 -0.0342 -0.6484 -0.3488
 7018TIP3   OH242468   2.768   1.586   5.473 -0.1079 -0.2322 -0.2949
 7018TIP3    H142469   2.852   1.542   5.484 -1.3987 -2.3548  2.5528
 7018TIP3    H242470   2.769   1.657   5.537 -0.5705 -0.4575 -0.0316
 7019TIP3   OH242471   2.864   1.584   4.290  0.1265 -0.0457 -0.0817
 7019TIP3    H142472   2.782   1.566   4.245 -0.0559 -1.1606  0.6576
 7019TIP3    H242473   2.855   1.674   4.323 -0.3833  0.1946 -0.8632
 7020TIP3   OH242474   3.769   0.732   1.945 -0.3669  0.0868 -0.2386
 7020TIP3    H142475   3.840   0.668   1.935 -0.4052  0.2159 -1.4652
 7020TIP3    H242476   3.780   0.792   1.872  1.8039  3.6933  2.6900
 7021TIP3   OH242477   2.657   6.546   3.062 -0.3517 -0.2638  0.1562
 7021TIP3    H142478   2.693   6.519   3.147  0.0948  0.7091  0.2982
 7021TIP3    H242479   2.603   6.622   3.083 -3.1441 -2.0831  0.0469
 7022TIP3   OH242480   0.050   0.214   0.820 -0.7193 -0.7956  0.0037
 7022TIP3    H142481   0.141   0.214   0.794 -0.5789  0.2484  0.4472
 7022TIP3    H242482   0.013   0.292   0.779 -0.8472  0.0442  1.6404
 7023TIP3   OH242483   3.486   4.683  12.828  0.3516 -0.4625  0.0989
 7023TIP3    H142484   3.414   4.736  12.792  2.7114  3.0853  0.0601
 7023TIP3    H242485   3.540   4.662  12.752 -0.5498 -3.1271  0.1208
 7024TIP3   OH242486   4.256   4.946  12.973 -0.0168 -0.0038 -0.5067
 7024TIP3    H142487   4.164   4.970  12.976  0.1810  0.7019  0.4906
 7024TIP3    H242488   4.301   5.017  13.019  0.7693 -1.4593  1.1439
 7025TIP3   OH242489   3.771   3.154   0.985 -0.4481  0.1560  0.0333
 7025TIP3    H142490   3.741   3.206   0.911  1.2735  0.8200 -0.2255
 7025TIP3    H242491   3.785   3.066   0.949  0.9513  0.6165 -0.5880
 7026TIP3   OH242492   1.437   1.842   6.470  0.3906 -0.1165 -0.1715
 7026TIP3    H142493   1.478   1.847   6.556 -0.1780 -0.2122  0.1094
 7026TIP3    H242494   1.492   1.896   6.414  1.5064 -1.1093 -0.0530
 7027TIP3   OH242495   3.662   0.856  16.184 -0.1323 -0.2865  0.0545
 7027TIP3    H142496   3.723   0.782  16.190  1.6109  1.0198 -0.8569
 7027TIP3    H242497   3.610   0.837  16.106  0.5564 -0.4061 -0.3922
 7028TIP3   OH242498   2.495   5.603   1.862 -0.3045 -0.3338  0.5921
 7028TIP3    H142499   2.421   5.664   1.866 -0.0183 -0.0204  1.2513
 7028TIP3    H242500   2.470   5.531   1.919 -1.1465 -1.4354 -1.0809
 7029TIP3   OH242501   5.044   1.927   4.949  0.0799 -0.1535 -0.2394
 7029TIP3    H142502   5.071   1.921   4.857  0.5944  0.8336 -0.1650
 7029TIP3    H242503   5.125   1.922   4.999 -0.0387  0.8952  0.0794
 7030TIP3   OH242504   6.512   3.387  14.935  0.7929  0.0638 -0.1415
 7030TIP3    H142505   6.570   3.445  14.984  1.0025  0.2049 -0.5474
 7030TIP3    H242506   6.519   3.417  14.844  1.0398 -0.7065 -0.3861
 7031TIP3   OH242507   0.196   5.710   3.153  0.6924  0.0627 -0.7230
 7031TIP3    H142508   0.113   5.724   3.107  1.0675  1.1224 -1.1213
 7031TIP3    H242509   0.263   5.734   3.088  1.3013 -0.6118 -0.3485
 7032TIP3   OH242510   0.520   0.468  14.710  0.0992 -0.0232 -0.6659
 7032TIP3    H142511   0.487   0.502  14.793  0.1170 -0.2791 -0.5535
 7032TIP3    H242512   0.609   0.437  14.730 -0.9804 -2.9953 -0.0044
 7033TIP3   OH242513   0.930   1.242   3.647  0.0098  0.6506 -0.3887
 7033TIP3    H142514   0.997   1.221   3.713  0.1406 -0.2176 -0.7814
 7033TIP3    H242515   0.949   1.182   3.575 -0.8759  0.7576 -0.7127
 7034TIP3   OH242516   2.789   3.638  13.188  0.5486 -0.4702  0.3550
 7034TIP3    H142517   2.861   3.617  13.128  1.1372 -0.0602  0.9077
 7034TIP3    H242518   2.815   3.599  13.271  0.0088 -0.5298  0.5018
 7035TIP3   OH242519   4.630   3.165  15.432  0.1754 -0.3714 -0.2457
 7035TIP3    H142520   4.562   3.228  15.455 -0.6825 -1.3633  0.0387
 7035TIP3    H242521   4.709   3.217  15.421 -0.8100  0.9358 -1.4922
 7036TIP3   OH242522   4.592   0.552   1.598  0.2172 -0.1605  0.2832
 7036TIP3    H142523   4.668   0.573   1.543 -0.1960  0.6435  0.0033
 7036TIP3    H242524   4.612   0.593   1.683 -0.5816  1.4419 -0.2581
 7037TIP3   OH242525   1.421   2.351   6.894 -0.2340  0.4005 -0.7679
 7037TIP3    H142526   1.395   2.271   6.850  1.5821 -0.7564  0.1616
 7037TIP3    H242527   1.506   2.374   6.856  0.8910 -0.0613  1.2997
 7038TIP3   OH242528   5.199   3.379   5.855  0.1404  0.0254  0.1393
 7038TIP3    H142529   5.133   3.448   5.850  0.9052  0.7156 -0.8703
 7038TIP3    H242530   5.219   3.372   5.948 -0.1298  1.0165  0.2865
 7039TIP3   OH242531   4.244   2.300  10.614 -0.6074  0.5981 -0.0015
 7039TIP3    H142532   4.201   2.216  10.594 -0.8750  0.9480 -0.9592
 7039TIP3    H242533   4.301   2.281  10.689  0.7374 -0.9121 -1.3217
 7040TIP3   OH242534   5.825   4.176  13.083  0.1146  0.0603  0.4222
 7040TIP3    H142535   5.814   4.242  13.152 -5.1877  0.6957 -0.5837
 7040TIP3    H242536   5.769   4.103  13.111 -0.9758 -0.3097 -2.4100
 7041TIP3   OH242537   2.629   1.472   6.152 -0.0761 -0.4688 -0.2767
 7041TIP3    H142538   2.633   1.558   6.109  0.8050  0.2197  1.1077
 7041TIP3    H242539   2.540   1.467   6.185 -0.3621 -0.4288 -1.0166
 7042TIP3   OH242540   0.151   2.325  14.767 -0.3076  0.3387  0.4025
 7042TIP3    H142541   0.139   2.296  14.858  0.7080 -0.3735  0.3218
 7042TIP3    H242542   0.147   2.245  14.715 -0.8781  0.7430 -0.2005
 7043TIP3   OH242543   0.623   4.733   2.635  0.1003 -0.4020 -0.1585
 7043TIP3    H142544   0.695   4.706   2.577 -0.0914  1.2856 -1.2587
 7043TIP3    H242545   0.574   4.797   2.583 -1.5039 -0.6315  1.0170
 7044TIP3   OH242546   5.856   2.765   3.582 -0.7706  0.4255 -0.1440
 7044TIP3    H142547   5.863   2.809   3.666  0.6752 -0.6716  0.3533
 7044TIP3    H242548   5.850   2.672   3.604  0.4469  0.0534 -1.2255
 7045TIP3   OH242549   4.002   6.008  12.373  0.4221 -0.2453 -0.3142
 7045TIP3    H142550   4.060   6.035  12.444  1.7897 -1.2975 -0.9784
 7045TIP3    H242551   3.920   5.982  12.416  1.2242 -0.8564  0.8804
 7046TIP3   OH242552   1.412   5.915  16.250  0.0248  0.3531  0.2539
 7046TIP3    H142553   1.454   6.000  16.236  2.1829 -0.1649  2.7523
 7046TIP3    H242554   1.325   5.936  16.282  0.1645  1.5868 -0.1033
 7047TIP3   OH242555   3.721   1.675  11.741 -0.1389 -0.2147 -0.0620
 7047TIP3    H142556   3.657   1.658  11.672 -0.0948 -1.3302  0.1537
 7047TIP3    H242557   3.806   1.667  11.698 -0.0946 -1.5121  0.2198
 7048TIP3   OH242558   1.166   3.978   1.801  0.3229 -0.3838  0.0242
 7048TIP3    H142559   1.152   3.940   1.713  1.5693 -2.5903  0.6971
 7048TIP3    H242560   1.084   3.961   1.847  0.3357 -0.9655 -0.1534
 7049TIP3   OH242561   3.845   6.657   4.915  0.1647 -0.6041 -0.0045
 7049TIP3    H142562   3.778   6.707   4.869  0.4898 -0.5753 -0.4518
 7049TIP3    H242563   3.882   6.718   4.978 -0.9609 -0.9220  1.0117
 7050TIP3   OH242564   4.041   0.454  11.341  0.0096 -0.1700  0.2547
 7050TIP3    H142565   4.043   0.538  11.387  3.3424  0.9394 -1.5873
 7050TIP3    H242566   3.978   0.467  11.271 -0.0459  0.5206  0.4271
 7051TIP3   OH242567   6.636   2.208  15.967  0.1563 -0.5000 -0.1707
 7051TIP3    H142568   6.570   2.140  15.952 -0.3417  0.0626 -0.5691
 7051TIP3    H242569   6.640   2.256  15.884  0.3750  0.0700  0.1657
 7052TIP3   OH242570   1.996   1.732  13.980  0.4561  0.1788  0.3131
 7052TIP3    H142571   2.000   1.826  13.998  0.3669  0.1345  0.5642
 7052TIP3    H242572   1.903   1.711  13.985  0.5813 -0.1747  1.5754
 7053TIP3   OH242573   5.970   3.582  15.870  0.0609  0.0242  0.2409
 7053TIP3    H142574   5.995   3.504  15.821 -1.2449 -0.2913  0.0443
 7053TIP3    H242575   5.965   3.552  15.961 -0.3670 -0.1074  0.1753
 7054TIP3   OH242576   0.773   4.137  12.488  0.3792  0.2345  0.2964
 7054TIP3    H142577   0.845   4.174  12.539  0.5106  0.5097 -0.0775
 7054TIP3    H242578   0.714   4.212  12.473  0.0109  0.0096  0.6075
 7055TIP3   OH242579   4.654   5.805  16.146 -0.6237 -0.3158  0.0302
 7055TIP3    H142580   4.629   5.715  16.122 -0.7122 -0.2668 -0.0640
 7055TIP3    H242581   4.742   5.796  16.182 -1.2326 -0.6772  1.5435
 7056TIP3   OH242582   6.504   5.690   1.500 -0.4880  0.4430 -0.1170
 7056TIP3    H142583   6.485   5.605   1.539  0.4345  0.0835 -0.4217
 7056TIP3    H242584   6.597   5.704   1.517 -0.2987  0.7465 -1.2711
 7057TIP3   OH242585   2.334   6.229   4.280  0.2776  0.2554  0.1094
 7057TIP3    H142586   2.339   6.203   4.189 -1.4344  1.8583 -0.5106
 7057TIP3    H242587   2.425   6.247   4.305  0.8773 -1.0850 -0.9588
 7058TIP3   OH242588   1.567   4.984   0.585  0.6279 -0.2261 -0.3683
 7058TIP3    H142589   1.616   4.916   0.538  2.2471 -0.7338  1.8936
 7058TIP3    H242590   1.481   4.984   0.544  0.5119 -3.7645 -0.4338
 7059TIP3   OH242591   5.357   1.040   1.553  0.4751 -0.9577  0.2512
 7059TIP3    H142592   5.262   1.049   1.550  0.4560 -1.2739 -0.2537
 7059TIP3    H242593   5.374   0.993   1.635  0.3626  0.8480  1.3693
 7060TIP3   OH242594   0.596   5.956  11.435  0.4035 -0.1701 -0.3843
 7060TIP3    H142595   0.522   5.898  11.452  0.9537 -0.6047  0.6156
 7060TIP3    H242596   0.578   5.994  11.349 -1.5493  0.5936  0.3155
 7061TIP3   OH242597   1.845   6.390   3.745 -0.2002  0.1867  0.3825
 7061TIP3    H142598   1.802   6.321   3.693 -1.1082  0.8916  0.1742
 7061TIP3    H242599   1.915   6.422   3.689 -0.0332 -0.2836  0.3148
 7062TIP3   OH242600   4.646   1.181   2.580 -0.1642 -0.4244  0.1341
 7062TIP3    H142601   4.595   1.117   2.532  1.0588 -1.5592  0.2965
 7062TIP3    H242602   4.649   1.147   2.670 -0.6009  0.5502  0.5360
 7063TIP3   OH242603   3.051   5.923   0.819  0.1635 -0.0346  0.3467
 7063TIP3    H142604   3.131   5.973   0.834  0.3976 -0.4094  0.3562
 7063TIP3    H242605   3.041   5.868   0.897  0.5676 -0.8820 -0.1814
 7064TIP3   OH242606   0.418   6.334  14.084 -0.2625 -0.6242  0.3785
 7064TIP3    H142607   0.341   6.326  14.139 -1.0549 -1.0322 -0.7377
 7064TIP3    H242608   0.437   6.244  14.056  0.2496 -0.4575  0.1749
 7065TIP3   OH242609   4.081   3.203   4.508  0.3375 -0.0813 -0.2732
 7065TIP3    H142610   3.995   3.160   4.510  0.9716 -1.5647 -1.7890
 7065TIP3    H242611   4.090   3.234   4.418  1.5315 -0.3284 -0.2591
 7066TIP3   OH242612   4.873   0.044   4.221  0.1387 -0.2780  0.1376
 7066TIP3    H142613   4.950   0.052   4.164  0.6263 -0.7310  0.7068
 7066TIP3    H242614   4.803   0.088   4.174  0.4461 -0.9155 -0.9681
 7067TIP3   OH242615   4.589   5.964   2.780 -0.5718  0.2048 -0.1229
 7067TIP3    H142616   4.608   5.945   2.872 -0.3825  0.9972  0.0063
 7067TIP3    H242617   4.633   5.893   2.732 -2.7100 -1.6669  0.4785
 7068TIP3   OH242618   6.248   0.255  14.432  0.6351 -0.5308 -0.9951
 7068TIP3    H142619   6.303   0.254  14.510 -0.2913  0.0755 -0.3237
 7068TIP3    H242620   6.284   0.326  14.379 -0.1936  0.6309 -0.0340
 7069TIP3   OH242621   6.317   0.553  14.810  0.0796  0.7294  0.4828
 7069TIP3    H142622   6.338   0.583  14.721  0.0440  1.1450  0.6106
 7069TIP3    H242623   6.338   0.460  14.809 -1.9583  0.2091 -0.6152
 7070TIP3   OH242624   0.121   0.514   1.611 -0.1457  0.8031 -0.1988
 7070TIP3    H142625   0.086   0.465   1.685  3.2396 -1.9961 -0.1993
 7070TIP3    H242626   0.150   0.597   1.649  3.4508 -1.3311  2.4091
 7071TIP3   OH242627   4.512   2.073  11.345  0.2363 -0.3363  0.3349
 7071TIP3    H142628   4.438   2.011  11.341  0.9757 -1.1802 -1.6264
 7071TIP3    H242629   4.589   2.017  11.358  0.8258  0.2182 -0.6420
 7072TIP3   OH242630   4.464   3.864   1.854  0.2666 -0.0269 -0.0768
 7072TIP3    H142631   4.392   3.863   1.917  0.7641 -1.1482  0.5020
 7072TIP3    H242632   4.543   3.864   1.909  0.7119  0.7022 -0.7019
 7073TIP3   OH242633   4.977   5.445   1.007  0.0088 -0.7022  0.1105
 7073TIP3    H142634   4.887   5.411   1.004  0.1623 -1.1585  0.4246
 7073TIP3    H242635   4.971   5.525   1.059 -0.3768 -0.1776 -0.7185
 7074TIP3   OH242636   0.679   4.942   2.832 -0.0100  0.2608  0.3022
 7074TIP3    H142637   0.615   4.880   2.796 -0.0853 -0.9654  2.3456
 7074TIP3    H242638   0.759   4.926   2.782 -0.7982  0.5373 -1.0869
 7075TIP3   OH242639   0.211   2.808  11.409 -0.2292 -0.2210 -0.6734
 7075TIP3    H142640   0.228   2.748  11.336  2.1935  1.0974 -1.3185
 7075TIP3    H242641   0.286   2.795  11.468  0.1002  1.7262 -0.5866
 7076TIP3   OH242642   3.718   1.502   2.857  0.0976  0.1225 -0.0669
 7076TIP3    H142643   3.646   1.477   2.916  0.8969 -1.9484  0.1156
 7076TIP3    H242644   3.756   1.580   2.897 -1.7782  1.0406  0.0393
 7077TIP3   OH242645   1.818   2.704   3.029  0.5368  0.1338 -0.2733
 7077TIP3    H142646   1.912   2.689   3.037  0.5276  0.2191  0.0085
 7077TIP3    H242647   1.784   2.626   2.985  1.0319  0.9630 -2.2206
 7078TIP3   OH242648   0.413   3.145  13.665 -0.2790 -1.0761 -0.3605
 7078TIP3    H142649   0.326   3.177  13.643 -0.3928  0.2614  1.7481
 7078TIP3    H242650   0.473   3.201  13.615 -0.5896 -0.7930 -0.4148
 7079TIP3   OH242651   2.854   2.379  14.395 -0.3533 -0.3201  0.2618
 7079TIP3    H142652   2.816   2.466  14.405 -0.5911 -0.4338  0.3516
 7079TIP3    H242653   2.843   2.359  14.302 -1.6776 -0.8818  0.5166
 7080TIP3   OH242654   3.580   6.098   3.461  0.2501  0.5520 -0.3265
 7080TIP3    H142655   3.638   6.157   3.508  2.2743 -0.0995 -1.8467
 7080TIP3    H242656   3.572   6.137   3.374 -0.4786 -0.1115 -0.5705
 7081TIP3   OH242657   4.225   2.210   2.551 -0.1564 -0.0600 -0.5781
 7081TIP3    H142658   4.261   2.212   2.463  0.9785  1.4298 -0.1267
 7081TIP3    H242659   4.240   2.298   2.585 -2.3447 -0.0058  0.4289
 7082TIP3   OH242660   6.538   3.765  15.954 -0.3233 -0.1321 -0.0937
 7082TIP3    H142661   6.572   3.693  15.901  2.8126 -0.1050  1.6861
 7082TIP3    H242662   6.459   3.729  15.995  0.8471 -2.4233  0.3065
 7083TIP3   OH242663   4.344   0.180  12.657  0.1168 -0.1120  0.0320
 7083TIP3    H142664   4.308   0.240  12.722  1.6674  1.2861 -0.3453
 7083TIP3    H242665   4.280   0.181  12.586  0.4269  1.6520 -0.2574
 7084TIP3   OH242666   2.549   1.580  15.766  0.5643  0.0231  0.0209
 7084TIP3    H142667   2.577   1.669  15.790  1.5947 -0.1366 -0.5296
 7084TIP3    H242668   2.460   1.592  15.732  0.0290  0.5918  1.5416
 7085TIP3   OH242669   1.099   4.270   1.112  0.2645  0.1611  0.7275
 7085TIP3    H142670   1.032   4.202   1.106  0.3715  0.1040  0.0680
 7085TIP3    H242671   1.114   4.297   1.021 -0.1479  1.4310  1.0165
 7086TIP3   OH242672   5.634   1.877  15.323 -0.5057  0.0821 -0.2327
 7086TIP3    H142673   5.710   1.883  15.380 -0.4351  2.2100 -0.4819
 7086TIP3    H242674   5.648   1.797  15.272  0.9192 -0.2211  0.5852
 7087TIP3   OH242675   4.738   6.445   1.072 -0.0730 -0.4848  0.2583
 7087TIP3    H142676   4.760   6.378   1.137 -0.3141 -1.9759 -1.1297
 7087TIP3    H242677   4.674   6.403   1.015  1.0141  0.3331 -1.6627
 7088TIP3   OH242678   6.253   1.140  16.110  0.2313  0.3190  0.0625
 7088TIP3    H142679   6.160   1.138  16.090  0.2376  0.8947 -0.0428
 7088TIP3    H242680   6.292   1.073  16.054 -0.1736 -0.2347  0.4238
 7089TIP3   OH242681   3.356   1.214   3.588  0.7183  0.1351 -0.0842
 7089TIP3    H142682   3.277   1.268   3.582 -1.3647 -2.4296  1.7830
 7089TIP3    H242683   3.353   1.160   3.508  0.2775 -0.2796  0.2037
 7090TIP3   OH242684   4.571   0.595  12.534 -0.2743 -0.0198  0.5349
 7090TIP3    H142685   4.609   0.507  12.542 -1.4326 -0.4211  2.2795
 7090TIP3    H242686   4.564   0.626  12.624 -2.7105  0.5894  0.2029
 7091TIP3   OH242687   0.077   5.827  16.411  0.2312  0.0504  0.4511
 7091TIP3    H142688   0.158   5.779  16.389 -0.2514 -0.3210 -0.5743
 7091TIP3    H242689   0.025   5.764  16.462 -0.0199 -0.2119 -0.1235
 7092TIP3   OH242690   4.159   1.919   2.565 -0.3430  0.2351  0.5013
 7092TIP3    H142691   4.158   1.994   2.505 -0.9175  0.8406  1.2364
 7092TIP3    H242692   4.214   1.947   2.638  0.3428 -0.4914  0.2777
 7093TIP3   OH242693   0.042   5.211  13.986  0.5644  0.2276 -0.1461
 7093TIP3    H142694   0.108   5.228  13.919  0.8740  1.1872  0.3813
 7093TIP3    H242695   0.035   5.293  14.035  1.5993 -0.8964  2.0760
 7094TIP3   OH242696   5.765   2.586  16.710 -0.0375  0.1090 -0.0413
 7094TIP3    H142697   5.732   2.574  16.799 -0.5884 -0.5781 -0.3315
 7094TIP3    H242698   5.855   2.554  16.713 -0.3782 -0.8626  0.0350
 7095TIP3   OH242699   6.307   3.009   5.595 -0.0555 -0.0649  0.2760
 7095TIP3    H142700   6.392   3.001   5.553 -1.2839  1.2651 -2.7586
 7095TIP3    H242701   6.293   3.104   5.603 -0.9390 -0.2724  1.4641
 7096TIP3   OH242702   0.777   3.475   1.013  0.1928 -0.2451  0.1306
 7096TIP3    H142703   0.825   3.543   0.965  0.3101  2.1051  3.2789
 7096TIP3    H242704   0.686   3.488   0.987  0.4106 -0.0223 -0.5523
 7097TIP3   OH242705   4.019   2.320   5.589  0.0935  0.0540  0.2830
 7097TIP3    H142706   4.017   2.392   5.652  0.0663 -0.0242  0.3726
 7097TIP3    H242707   3.999   2.361   5.505 -2.2932 -0.1721  0.6613
 7098TIP3   OH242708   5.955   1.628   5.578 -0.0824  0.2642 -0.2414
 7098TIP3    H142709   5.954   1.593   5.667  0.2225  0.3244 -0.2137
 7098TIP3    H242710   5.968   1.551   5.522 -0.9419  0.1348 -0.2829
 7099TIP3   OH242711   3.717   3.728  11.777 -0.2487  0.1979  0.2265
 7099TIP3    H142712   3.685   3.744  11.866 -0.4402 -1.3448  0.4650
 7099TIP3    H242713   3.643   3.688  11.732  0.7101 -1.7313  0.2576
 7100TIP3   OH242714   0.626   3.496  14.360 -0.5666  0.0019  0.4669
 7100TIP3    H142715   0.566   3.550  14.411 -0.3910 -0.6101  1.3381
 7100TIP3    H242716   0.607   3.519  14.269 -0.5992  1.4162  0.8087
 7101TIP3   OH242717   1.093   5.704  13.981 -0.2189 -0.9169  0.2462
 7101TIP3    H142718   1.020   5.734  14.035  0.9801  1.4520  0.6576
 7101TIP3    H242719   1.150   5.657  14.042  0.3847  0.4450  0.7698
 7102TIP3   OH242720   1.968   4.371  16.604  0.6821 -0.6761 -0.2445
 7102TIP3    H142721   1.926   4.439  16.551  0.3414  0.1929  1.0846
 7102TIP3    H242722   1.989   4.301  16.542  1.3090  0.7520 -1.7022
 7103TIP3   OH242723   2.497   2.361  11.224 -0.1871  0.1524 -0.3028
 7103TIP3    H142724   2.445   2.425  11.272  1.0869  1.1608 -0.2259
 7103TIP3    H242725   2.564   2.413  11.180  1.2023 -1.1751  0.1910
 7104TIP3   OH242726   1.549   5.977   4.359  0.4352  0.5055  0.4388
 7104TIP3    H142727   1.556   5.948   4.268  0.4259  1.0265  0.2746
 7104TIP3    H242728   1.636   6.011   4.380  0.4708  0.2826  0.6623
 7105TIP3   OH242729   0.591   4.728   3.954  0.2711  0.1892 -0.8979
 7105TIP3    H142730   0.563   4.818   3.972 -0.1042  0.1624 -1.3476
 7105TIP3    H242731   0.581   4.718   3.860  2.8459  0.5311 -1.2681
 7106TIP3   OH242732   3.198   6.514  13.172 -0.1677  0.1392 -0.9031
 7106TIP3    H142733   3.248   6.584  13.213  0.2873 -2.2386  3.1895
 7106TIP3    H242734   3.108   6.545  13.171  0.0420  0.8622  0.6390
 7107TIP3   OH242735   1.766   3.073  14.568  0.2355  0.5982 -0.1029
 7107TIP3    H142736   1.674   3.095  14.580 -0.0382 -0.9500  0.9673
 7107TIP3    H242737   1.797   3.051  14.656  0.3694 -3.3176 -0.9487
 7108TIP3   OH242738   2.496   2.570   6.061  0.4366 -0.1324  0.6284
 7108TIP3    H142739   2.404   2.584   6.039  0.4583 -0.5764  0.2202
 7108TIP3    H242740   2.500   2.578   6.156 -0.3884 -2.0453  0.8612
 7109TIP3   OH242741   3.466   2.754   5.269  0.1415 -0.2159 -0.5514
 7109TIP3    H142742   3.503   2.676   5.309 -0.8960 -0.5016 -0.1141
 7109TIP3    H242743   3.416   2.721   5.193  0.6642  0.1435 -1.0604
 7110TIP3   OH242744   2.793   0.066  12.804 -0.1951 -0.2409  0.1755
 7110TIP3    H142745   2.804  -0.029  12.809 -3.3394 -0.8379 -1.4883
 7110TIP3    H242746   2.717   0.085  12.859 -0.4390  1.1033 -0.5755
 7111TIP3   OH242747   1.573   5.493   2.458  0.2757  0.1715 -0.2802
 7111TIP3    H142748   1.599   5.499   2.366  1.4279  0.5665  0.0499
 7111TIP3    H242749   1.543   5.581   2.480  1.1158  0.3888  0.0271
 7112TIP3   OH242750   6.621   0.326   1.503 -0.1640 -0.3306 -0.2699
 7112TIP3    H142751   6.705   0.299   1.539 -0.1844  0.1128  0.1193
 7112TIP3    H242752   6.556   0.270   1.546 -0.0744 -0.6665 -0.5641
 7113TIP3   OH242753   6.283   2.850  11.519  0.5975 -0.3636  0.3165
 7113TIP3    H142754   6.212   2.849  11.583  0.5388 -1.5754  0.2652
 7113TIP3    H242755   6.340   2.922  11.546 -0.8301  0.8615  0.1435
 7114TIP3   OH242756   4.301   4.442  13.682 -0.5051 -0.1972  0.0881
 7114TIP3    H142757   4.212   4.426  13.652 -0.8293 -0.0058  0.9162
 7114TIP3    H242758   4.290   4.478  13.770  0.4193 -0.9391  0.5189
 7115TIP3   OH242759   6.289   1.299   1.148  0.2530 -0.0347  0.5216
 7115TIP3    H142760   6.339   1.227   1.187  1.3311 -0.4989 -1.5576
 7115TIP3    H242761   6.229   1.256   1.088  1.0711  0.7592 -0.9161
 7116TIP3   OH242762   3.170   6.764   4.157  0.0761  0.3989 -0.2407
 7116TIP3    H142763   3.169   6.858   4.145 -1.4436  0.4500  0.1071
 7116TIP3    H242764   3.259   6.745   4.187  0.8924  1.4821 -1.8435
 7117TIP3   OH242765   1.096   4.662  14.559  0.7662 -0.2170  0.4363
 7117TIP3    H142766   1.113   4.682  14.651  1.2286 -0.4395  0.4039
 7117TIP3    H242767   1.116   4.568  14.551 -0.7281 -0.5550  0.4399
 7118TIP3   OH242768   0.214   4.244  15.519  0.1241  0.4235  0.1018
 7118TIP3    H142769   0.136   4.230  15.573  0.0816  0.1846 -0.0245
 7118TIP3    H242770   0.201   4.189  15.442  1.5116 -1.5630  1.1819
 7119TIP3   OH242771   2.031   2.364  15.612 -0.2109 -0.7388 -0.1916
 7119TIP3    H142772   2.110   2.355  15.558  0.5073 -0.8014  0.8297
 7119TIP3    H242773   1.965   2.312  15.567  0.6585 -1.6551 -0.4600
 7120TIP3   OH242774   3.469   1.328   1.276 -0.3201  0.9943  0.5577
 7120TIP3    H142775   3.392   1.278   1.249  0.3193  1.2332 -2.0115
 7120TIP3    H242776   3.516   1.270   1.336 -1.1994 -0.2101  0.1192
 7121TIP3   OH242777   0.328   0.236   1.669 -0.0706 -0.0397 -0.0476
 7121TIP3    H142778   0.328   0.294   1.745  0.9551  0.7947 -0.6630
 7121TIP3    H242779   0.239   0.245   1.633 -0.1790  0.5139  0.3329
 7122TIP3   OH242780   5.636   6.172   1.884 -0.0089 -0.0803  0.5814
 7122TIP3    H142781   5.659   6.240   1.947  0.9173 -0.2263  0.4047
 7122TIP3    H242782   5.695   6.100   1.903  2.2198  0.8211 -2.1162
 7123TIP3   OH242783   1.264   5.421  11.116 -0.0062  0.1211  0.1469
 7123TIP3    H142784   1.284   5.476  11.191 -0.1499  1.2141 -0.6001
 7123TIP3    H242785   1.220   5.479  11.054 -2.0894 -1.2979  0.1770
 7124TIP3   OH242786   1.983   1.815   2.261 -0.9016  0.2500  0.7965
 7124TIP3    H142787   1.921   1.786   2.194  0.1328 -0.1347 -0.0095
 7124TIP3    H242788   2.069   1.794   2.226 -0.3169  0.2266  2.1589
 7125TIP3   OH242789   2.161   0.541   2.753  0.0499  0.3976 -0.0018
 7125TIP3    H142790   2.156   0.535   2.657 -0.8591  1.7073 -0.0637
 7125TIP3    H242791   2.228   0.606   2.770  0.2282  0.1473  0.2683
 7126TIP3   OH242792   1.127   2.382  12.844  0.0473  0.3282 -0.5281
 7126TIP3    H142793   1.211   2.359  12.804  0.9911 -0.0782  1.5609
 7126TIP3    H242794   1.122   2.327  12.922 -2.2033  0.3349 -0.6302
 7127TIP3   OH242795   0.034   3.947  16.376 -0.2817  0.0421 -0.3929
 7127TIP3    H142796   0.037   3.990  16.461 -0.3968 -1.8473  0.6100
 7127TIP3    H242797   0.072   4.012  16.315 -0.5331  1.5588  0.9971
 7128TIP3   OH242798   0.758   6.214  13.409 -0.2795 -0.8943  0.1069
 7128TIP3    H142799   0.667   6.234  13.430 -0.6067  0.1376 -1.9789
 7128TIP3    H242800   0.770   6.247  13.320  2.3996 -0.1876  0.6266
 7129TIP3   OH242801   0.525   3.213  17.169 -0.4009  0.7019  0.4168
 7129TIP3    H142802   0.594   3.255  17.117 -0.5336  0.5659  0.1315
 7129TIP3    H242803   0.443   3.241  17.128 -0.4770 -2.0749 -1.5790
 7130TIP3   OH242804   1.757   5.394   1.419 -0.3948  0.5636  0.2564
 7130TIP3    H142805   1.678   5.445   1.436 -0.7408 -0.0693  0.5688
 7130TIP3    H242806   1.783   5.419   1.330 -0.0286  1.9773  0.7274
 7131TIP3   OH242807   2.054   3.944   5.520  0.2685  0.2579  0.1114
 7131TIP3    H142808   2.067   3.986   5.435  2.1943 -2.3862 -1.0691
 7131TIP3    H242809   1.968   3.902   5.514  0.6082 -0.3465 -0.8021
 7132TIP3   OH242810   1.578   2.941  15.469  0.5335  0.3404 -0.5703
 7132TIP3    H142811   1.569   2.898  15.384  0.3453  1.6670 -1.2475
 7132TIP3    H242812   1.647   2.892  15.514 -0.2270 -1.1763 -0.9540
 7133TIP3   OH242813   1.216   6.426  14.692 -0.3197  0.0119  0.0635
 7133TIP3    H142814   1.260   6.470  14.619 -0.5234 -0.6779 -0.4922
 7133TIP3    H242815   1.231   6.483  14.767  1.4997 -0.1893 -0.1006
 7134TIP3   OH242816   1.544   2.508   5.771 -0.7295 -0.6537  0.1451
 7134TIP3    H142817   1.519   2.594   5.805 -0.7041 -1.7655  3.3471
 7134TIP3    H242818   1.639   2.513   5.760 -0.9542  0.3012 -1.7231
 7135TIP3   OH242819   1.430   3.423   6.611 -0.2537 -0.1649 -0.0273
 7135TIP3    H142820   1.342   3.429   6.576  0.8929  2.0688 -2.8950
 7135TIP3    H242821   1.437   3.332   6.643 -3.1340 -0.7476 -0.8017
 7136TIP3   OH242822   2.458   1.922   1.131 -0.6095 -0.0649 -0.5705
 7136TIP3    H142823   2.371   1.895   1.099 -0.3585 -0.7921 -0.6583
 7136TIP3    H242824   2.519   1.869   1.080 -0.1756 -0.8919  0.7512
 7137TIP3   OH242825   5.854   1.363  11.462  1.0607  0.2793 -0.0317
 7137TIP3    H142826   5.795   1.289  11.444  0.9698  0.2531  0.3671
 7137TIP3    H242827   5.941   1.327  11.449  1.0310  0.0061  0.4864
 7138TIP3   OH242828   1.516   5.919   2.125 -0.6807  0.0491  0.3891
 7138TIP3    H142829   1.598   5.870   2.126 -0.4661  0.4097  0.9145
 7138TIP3    H242830   1.448   5.855   2.148 -0.3926  0.0160  1.1714
 7139TIP3   OH242831   4.810   2.664  14.670  0.3889  0.0904 -0.2322
 7139TIP3    H142832   4.864   2.660  14.748  1.4808 -2.2456 -1.0322
 7139TIP3    H242833   4.832   2.748  14.630  2.5078 -0.2375  0.1385
 7140TIP3   OH242834   0.195   6.502  12.365 -0.0514 -0.6384 -0.4608
 7140TIP3    H142835   0.197   6.535  12.275  0.1531 -0.5626 -0.4282
 7140TIP3    H242836   0.213   6.578  12.419 -1.6697 -0.3587 -0.2637
 7141TIP3   OH242837   3.521   1.642   4.380  0.0846  0.5354  0.2697
 7141TIP3    H142838   3.456   1.689   4.432  0.1004 -1.0272  1.7821
 7141TIP3    H242839   3.535   1.560   4.428  1.2762 -0.2767 -1.3904
 7142TIP3   OH242840   3.081   1.560  12.484  0.4575  0.4684 -0.1357
 7142TIP3    H142841   3.029   1.620  12.537  1.3261  2.1171 -1.0695
 7142TIP3    H242842   3.126   1.616  12.421  0.5786 -1.2686 -1.6907
 7143TIP3   OH242843   2.925   0.004  15.473 -0.2237 -0.4357 -0.3801
 7143TIP3    H142844   2.867  -0.022  15.545  1.5009  1.5948  1.8867
 7143TIP3    H242845   2.907   0.097  15.461  0.7623 -0.3628 -1.4232
 7144TIP3   OH242846   1.744   4.906   2.155  0.0134  0.1549 -0.1907
 7144TIP3    H142847   1.787   4.989   2.172 -1.4275  1.1814 -1.2507
 7144TIP3    H242848   1.696   4.920   2.073 -1.9987 -0.9874  0.7033
 7145TIP3   OH242849   6.020   3.138   0.649  0.0716  0.8057  0.5804
 7145TIP3    H142850   6.028   3.076   0.722 -0.9032 -0.2738 -0.2002
 7145TIP3    H242851   6.024   3.084   0.570 -0.3773  1.7838 -0.1353
 7146TIP3   OH242852   0.958   2.309   2.731 -0.0277 -0.3433  0.4823
 7146TIP3    H142853   0.949   2.349   2.818 -0.6099  0.6321 -0.0163
 7146TIP3    H242854   0.993   2.222   2.749 -1.6252 -0.7577  1.8202
 7147TIP3   OH242855   2.701   3.022   0.161 -0.2762 -0.7768  0.1248
 7147TIP3    H142856   2.663   2.946   0.116  0.8370 -1.9034  0.9981
 7147TIP3    H242857   2.768   2.984   0.218 -0.0863  0.8288  1.0159
 7148TIP3   OH242858   6.687   2.056   2.147 -0.3258  0.5155  0.4085
 7148TIP3    H142859   6.702   1.975   2.098 -0.0787  0.7918  0.0217
 7148TIP3    H242860   6.758   2.058   2.212  0.4266  1.0438 -0.4038
 7149TIP3   OH242861   4.460   4.272  12.185 -0.1314 -0.1491  0.2644
 7149TIP3    H142862   4.505   4.321  12.116  2.4106 -1.6235  0.7399
 7149TIP3    H242863   4.530   4.243  12.243 -1.7556 -2.3018  1.2888
 7150TIP3   OH242864   4.378   3.067  13.576  0.7039 -0.2597  0.4717
 7150TIP3    H142865   4.459   3.052  13.625  0.9211 -0.9584 -0.0859
 7150TIP3    H242866   4.406   3.110  13.496  0.8059 -2.3556 -0.6850
 7151TIP3   OH242867   5.188   5.336  14.389  0.7074  0.0507 -0.4730
 7151TIP3    H142868   5.159   5.402  14.452  2.5633 -0.0790  0.5689
 7151TIP3    H242869   5.106   5.296  14.357 -0.2922 -0.2749  2.2638
 7152TIP3   OH242870   3.387   1.471   2.468  0.4255 -0.1206 -0.9957
 7152TIP3    H142871   3.350   1.386   2.489  0.1404 -0.5798 -3.1531
 7152TIP3    H242872   3.398   1.514   2.553 -0.1244 -1.9921  0.0771
 7153TIP3   OH242873   3.454   1.049  12.545  0.3598 -0.3349 -0.5317
 7153TIP3    H142874   3.489   1.123  12.595  0.7558 -0.9937  0.1774
 7153TIP3    H242875   3.366   1.077  12.520 -0.2133 -0.3324  1.3280
 7154TIP3   OH242876   1.815   3.692  14.757 -0.4577  0.0085  0.0681
 7154TIP3    H142877   1.837   3.653  14.672 -0.1945 -1.0456  0.6083
 7154TIP3    H242878   1.742   3.640  14.789  0.7761 -0.9665  1.4147
 7155TIP3   OH242879   6.028   3.827   6.927 -0.6057 -0.8137  0.1260
 7155TIP3    H142880   6.104   3.874   6.893  0.2854 -1.1591  1.5779
 7155TIP3    H242881   6.037   3.831   7.022 -2.1742 -1.2542  0.3278
 7156TIP3   OH242882   6.008   5.660   0.665 -0.1169  0.3216  0.0126
 7156TIP3    H142883   5.951   5.671   0.741  0.3177  0.5923  0.3047
 7156TIP3    H242884   6.091   5.630   0.702  0.5701  1.8593 -0.1918
 7157TIP3   OH242885   0.425   6.110   0.066 -0.5149  0.2278  0.1811
 7157TIP3    H142886   0.507   6.147   0.099 -0.0666 -0.4412 -0.1361
 7157TIP3    H242887   0.397   6.170  -0.003  0.4455 -0.2453 -0.6498
 7158TIP3   OH242888   2.856   5.617  16.657 -0.0771 -0.2563 -0.2012
 7158TIP3    H142889   2.839   5.565  16.579 -0.3872 -0.7836  0.2107
 7158TIP3    H242890   2.799   5.693  16.648  0.0046 -0.2404 -0.5640
 7159TIP3   OH242891   6.201   5.965   3.190 -0.1010  0.1543 -0.1392
 7159TIP3    H142892   6.109   5.941   3.192 -0.3187  1.0413  1.2574
 7159TIP3    H242893   6.203   6.047   3.140  0.1452 -0.5840 -1.4052
 7160TIP3   OH242894   6.141   1.388  16.471  0.0126 -0.5038 -0.0534
 7160TIP3    H142895   6.115   1.342  16.391  1.1001 -0.5564 -0.3969
 7160TIP3    H242896   6.237   1.380  16.473  0.1337  0.7861  0.4512
 7161TIP3   OH242897   1.042   5.591   4.888  0.5219  0.3834 -0.1530
 7161TIP3    H142898   1.032   5.503   4.853 -0.7235  0.8552 -1.0706
 7161TIP3    H242899   0.957   5.633   4.872  0.6109  1.2979  1.5592
 7162TIP3   OH242900   4.130   3.671  14.493 -0.1588 -0.5143  0.6424
 7162TIP3    H142901   4.074   3.593  14.498  0.5245 -0.9295  2.5410
 7162TIP3    H242902   4.209   3.646  14.540 -0.1084  1.4913  1.6892
 7163TIP3   OH242903   2.216   3.118   3.787 -0.1607  0.3674 -0.0582
 7163TIP3    H142904   2.251   3.159   3.708  1.6497  2.0323  1.5050
 7163TIP3    H242905   2.189   3.191   3.843 -1.1822 -0.7503  0.9762
 7164TIP3   OH242906   4.065   1.052   4.906  0.0756 -0.5451  0.2045
 7164TIP3    H142907   4.027   1.094   4.829 -0.3778 -2.3332 -0.6026
 7164TIP3    H242908   4.118   0.980   4.870 -0.9254 -2.0214  1.5801
 7165TIP3   OH242909   2.056   1.012  13.421  0.2703  0.0781 -0.4602
 7165TIP3    H142910   2.134   0.974  13.460 -0.2140  0.0510  0.5026
 7165TIP3    H242911   2.012   0.937  13.379 -0.7715 -0.5216  1.5878
 7166TIP3   OH242912   3.056   0.358  16.345 -0.0471  0.4084 -0.0677
 7166TIP3    H142913   2.996   0.384  16.275 -2.9578 -2.1029  1.2484
 7166TIP3    H242914   3.133   0.325  16.299 -1.9362 -1.4041 -2.2053
 7167TIP3   OH242915   3.380   2.046   3.023 -0.7408 -0.1263 -0.1078
 7167TIP3    H142916   3.344   2.106   3.088  0.0258 -0.3672  0.5553
 7167TIP3    H242917   3.422   1.978   3.074  0.4428  0.0192 -0.8498
 7168TIP3   OH242918   3.287   6.233   4.939 -0.2590  0.2557  0.1058
 7168TIP3    H142919   3.319   6.280   4.862 -0.6739  0.6152  0.1455
 7168TIP3    H242920   3.253   6.302   4.996  2.9055  0.4030  2.0712
 7169TIP3   OH242921   4.149   1.714  16.455  0.6213 -0.4635 -0.4933
 7169TIP3    H142922   4.193   1.641  16.498  0.2135 -0.3452  0.1478
 7169TIP3    H242923   4.108   1.763  16.527 -2.7937 -1.9854 -1.1719
 7170TIP3   OH242924   0.506   1.176  17.292 -0.0689  0.2441  0.5196
 7170TIP3    H142925   0.472   1.091  17.264  1.4139 -0.2673  0.1868
 7170TIP3    H242926   0.462   1.239  17.235 -1.3343 -0.2582  0.9074
 7171TIP3   OH242927   4.292   2.627   0.305  0.2687 -0.1908 -0.2040
 7171TIP3    H142928   4.302   2.542   0.349 -0.4277 -0.2017 -0.0584
 7171TIP3    H242929   4.316   2.609   0.214  2.2162 -0.0537  0.2339
 7172TIP3   OH242930   3.586   6.222  17.123  0.3042  0.1754 -0.2852
 7172TIP3    H142931   3.658   6.249  17.180 -0.3869  0.5579  0.4226
 7172TIP3    H242932   3.541   6.303  17.100  0.5561  0.0211 -1.3690
 7173TIP3   OH242933   4.414   1.690  12.916 -0.5500  0.6930 -0.2394
 7173TIP3    H142934   4.337   1.726  12.959 -0.5652  0.3885 -0.0125
 7173TIP3    H242935   4.470   1.659  12.987 -0.3046  0.7308 -0.4104
 7174TIP3   OH242936   0.440   1.945  17.173  0.4713  0.3627 -0.0635
 7174TIP3    H142937   0.507   1.916  17.111  1.0589  0.0773  0.6842
 7174TIP3    H242938   0.489   1.962  17.253 -0.2195  1.1235  0.2007
 7175TIP3   OH242939   0.685   5.048  11.579  0.5206 -0.7151  0.1947
 7175TIP3    H142940   0.695   5.137  11.543  0.9011 -0.1336  1.6593
 7175TIP3    H242941   0.613   5.010  11.528  0.4389  0.3841 -0.5506
 7176TIP3   OH242942   4.098   5.802   3.341  0.1708 -0.3772  0.1471
 7176TIP3    H142943   4.091   5.881   3.288 -0.7326 -0.2876  0.3791
 7176TIP3    H242944   4.107   5.833   3.431  0.5182 -0.5382  0.1716
 7177TIP3   OH242945   5.892   5.626   0.077  0.4705 -0.4827  0.0094
 7177TIP3    H142946   5.800   5.605   0.063  0.4918  0.0208 -1.0296
 7177TIP3    H242947   5.937   5.542   0.074  0.3186 -0.5439 -1.9643
 7178TIP3   OH242948   3.631   0.879  16.594  0.6534 -0.1113 -0.2960
 7178TIP3    H142949   3.632   0.953  16.655 -1.6783 -2.3836  2.8929
 7178TIP3    H242950   3.721   0.846  16.596  0.8432  0.3806  1.3519
 7179TIP3   OH242951   5.739   3.879  11.379  0.2852 -0.2080  0.1151
 7179TIP3    H142952   5.719   3.824  11.303 -2.1893 -0.5067  0.9163
 7179TIP3    H242953   5.819   3.925  11.354  0.2840 -1.2869 -2.1265
 7180TIP3   OH242954   4.744   1.988   0.583 -0.7581  0.0200 -0.1740
 7180TIP3    H142955   4.691   1.917   0.546 -3.0615  0.5098  1.9658
 7180TIP3    H242956   4.690   2.025   0.652  1.2207  2.5713  0.1408
 7181TIP3   OH242957   4.834   3.166   5.909  0.3246 -0.3971 -0.2501
 7181TIP3    H142958   4.800   3.181   5.997 -0.1201 -1.0944 -0.2938
 7181TIP3    H242959   4.771   3.105   5.869 -0.6818  1.5057 -1.7889
 7182TIP3   OH242960   0.537   6.087   0.417  0.4104  0.5945  0.2420
 7182TIP3    H142961   0.603   6.058   0.480 -0.0133 -1.3657 -0.1465
 7182TIP3    H242962   0.545   6.025   0.344 -0.9688  1.1249 -0.3908
 7183TIP3   OH242963   4.791   3.133  16.172  0.2028  0.3636 -0.5946
 7183TIP3    H142964   4.779   3.081  16.251  1.5672  0.5715 -0.2272
 7183TIP3    H242965   4.729   3.096  16.109 -0.5406 -0.1343  0.4065
 7184TIP3   OH242966   2.623   1.479  14.143  0.1285 -0.7946  0.6133
 7184TIP3    H142967   2.689   1.439  14.086  0.3990 -0.4699  0.6967
 7184TIP3    H242968   2.540   1.465  14.097  0.1689 -1.7920  0.8241
 7185TIP3   OH242969   5.680   5.634  11.194  0.8891 -0.4522 -0.2011
 7185TIP3    H142970   5.704   5.559  11.139  0.7244  1.0950 -2.5344
 7185TIP3    H242971   5.584   5.633  11.194  0.8510  0.6133 -1.5837
 7186TIP3   OH242972   0.077   1.454   0.855  0.8416 -0.0425  0.5417
 7186TIP3    H142973   0.162   1.409   0.864 -0.5455 -3.0826 -0.2156
 7186TIP3    H242974   0.030   1.431   0.935  1.2591  3.2145  1.8808
 7187TIP3   OH242975   5.865   2.468   0.208 -0.0925  0.1297  0.4572
 7187TIP3    H142976   5.838   2.557   0.187 -0.5564 -0.0432  0.3059
 7187TIP3    H242977   5.860   2.462   0.303  0.5360  0.4493  0.5172
 7188TIP3   OH242978   5.564   5.188  13.965  0.0231  0.3031  0.3253
 7188TIP3    H142979   5.520   5.256  13.914 -1.2067 -1.3737 -0.9539
 7188TIP3    H242980   5.508   5.173  14.040 -0.3394 -0.0956 -0.0149
 7189TIP3   OH242981   1.275   3.219   0.474  0.1643 -0.6504  0.0959
 7189TIP3    H142982   1.264   3.313   0.458  0.6713 -0.3132  1.5767
 7189TIP3    H242983   1.365   3.211   0.505  0.4295 -1.7722 -0.9011
 7190TIP3   OH242984   2.475   5.963   2.140 -0.1914 -0.2910 -0.6337
 7190TIP3    H142985   2.456   5.971   2.233  0.3496  2.1190 -0.6839
 7190TIP3    H242986   2.494   6.052   2.110 -0.0101 -1.0281 -2.9871
 7191TIP3   OH242987   5.926   0.340  13.651  0.0383 -0.1149  0.0583
 7191TIP3    H142988   6.017   0.365  13.669  0.2279 -1.2371  0.8026
 7191TIP3    H242989   5.921   0.248  13.679 -1.9571  0.5857  2.3108
 7192TIP3   OH242990   1.363   2.439  13.623  0.7129  0.5768 -0.0826
 7192TIP3    H142991   1.301   2.496  13.668 -0.5665  0.8967 -2.1099
 7192TIP3    H242992   1.352   2.354  13.664  0.5933  1.1325  1.0870
 7193TIP3   OH242993   4.748   3.947   5.717  0.1269 -0.4497 -0.0889
 7193TIP3    H142994   4.819   3.952   5.781 -1.3050 -1.6409  1.7400
 7193TIP3    H242995   4.723   4.038   5.701  0.7136 -0.1110  0.8525
 7194TIP3   OH242996   5.983   0.395  17.338  0.3602 -0.5146  0.0437
 7194TIP3    H142997   6.023   0.480  17.324 -1.9728  0.5742 -0.4836
 7194TIP3    H242998   6.022   0.363  17.420 -0.0991  1.9331  1.2992
 7195TIP3   OH242999   3.466   0.698   3.258 -0.1567 -0.8755 -0.1883
 7195TIP3    H143000   3.511   0.783   3.256 -1.0690 -0.3900 -1.2015
 7195TIP3    H243001   3.481   0.661   3.171  0.0536 -1.6684  0.1787
 7196TIP3   OH243002   6.541   5.875  12.766 -0.0872 -0.8081  0.2271
 7196TIP3    H143003   6.469   5.821  12.799  0.4498 -2.1881 -0.7768
 7196TIP3    H243004   6.603   5.813  12.729  0.8008  0.4835 -0.5463
 7197TIP3   OH243005   2.667   5.752   6.295 -0.3753  0.4081 -0.5043
 7197TIP3    H143006   2.722   5.794   6.228 -0.3840  1.6219  0.2244
 7197TIP3    H243007   2.712   5.770   6.377 -0.5636 -0.7537 -0.1268
 7198TIP3   OH243008   0.795   3.386  11.869 -0.2702 -0.2242 -1.0721
 7198TIP3    H143009   0.763   3.383  11.960  0.4180 -0.0492 -0.8151
 7198TIP3    H243010   0.882   3.346  11.873  0.1450  0.6060 -1.4839
 7199TIP3   OH243011   2.056   1.779  13.646 -0.0718 -0.3022  0.8121
 7199TIP3    H143012   2.042   1.699  13.696 -1.3065 -1.2754 -0.9395
 7199TIP3    H243013   1.970   1.822  13.646 -0.3529 -0.7696 -1.0916
 7200TIP3   OH243014   1.567   2.009  11.776  0.3475  0.0043  0.0065
 7200TIP3    H143015   1.629   1.939  11.793  1.7023  0.7597 -1.4924
 7200TIP3    H243016   1.539   2.038  11.862 -0.5175 -2.5523  0.6656
 7201TIP3   OH243017   5.678   4.452   5.292 -0.1174 -0.2235  0.4232
 7201TIP3    H143018   5.666   4.545   5.311  0.7732  0.0017 -0.0688
 7201TIP3    H243019   5.676   4.410   5.378 -0.7054  0.2229  0.6355
 7202TIP3   OH243020   3.596   5.482  11.912  0.1411  0.1897  0.0108
 7202TIP3    H143021   3.559   5.484  11.824  1.8003 -0.0503 -0.7362
 7202TIP3    H243022   3.620   5.573  11.930  2.3263 -0.1309 -0.9703
 7203TIP3   OH243023   5.199   1.836  15.410  0.3195 -0.1757 -0.2173
 7203TIP3    H143024   5.284   1.832  15.454 -0.1189 -0.9952  0.5972
 7203TIP3    H243025   5.138   1.797  15.473 -0.3158 -1.4700 -1.5780
 7204TIP3   OH243026   3.797   0.567   3.403  0.3191 -0.3403  0.4232
 7204TIP3    H143027   3.715   0.569   3.453  0.2005  1.6789  0.2658
 7204TIP3    H243028   3.837   0.653   3.420  0.4487  0.3135 -2.5787
 7205TIP3   OH243029   6.722   1.406   3.940  0.7552  0.4920 -0.1147
 7205TIP3    H143030   6.666   1.412   3.862  0.6894  0.1511 -0.0924
 7205TIP3    H243031   6.782   1.334   3.921 -0.3921 -0.7733  0.8841
 7206TIP3   OH243032   4.323   1.098   0.732 -0.4646  0.7452 -0.0799
 7206TIP3    H143033   4.354   1.017   0.692  0.0445  0.2355  1.2887
 7206TIP3    H243034   4.228   1.084   0.743 -0.0216 -0.8103  2.5442
 7207TIP3   OH243035   1.350   1.386   3.378 -0.0373  0.0775  0.6594
 7207TIP3    H143036   1.324   1.294   3.383 -1.0022  0.2821 -0.2822
 7207TIP3    H243037   1.405   1.392   3.300 -0.5625  0.4224  0.3082
 7208TIP3   OH243038   1.748   6.456   4.962  0.1673 -0.2832  0.2169
 7208TIP3    H143039   1.793   6.518   4.904  0.3857 -0.0948  0.5856
 7208TIP3    H243040   1.667   6.435   4.916 -0.0833  0.5581  0.2555
 7209TIP3   OH243041   5.513   2.940  16.204  0.1908  0.4339 -0.0460
 7209TIP3    H143042   5.518   2.999  16.279 -0.9951 -0.1355  0.4902
 7209TIP3    H243043   5.491   2.855  16.241  2.8148 -0.6267 -0.7056
 7210TIP3   OH243044   6.045   3.358  15.386  0.6019 -0.4822 -0.2080
 7210TIP3    H143045   6.026   3.329  15.297  1.4368 -1.3640 -0.1068
 7210TIP3    H243046   6.098   3.288  15.423  0.1566 -0.1821  1.0309
 7211TIP3   OH243047   6.574   1.755  15.348 -0.3782 -0.2791 -0.1228
 7211TIP3    H143048   6.490   1.719  15.377 -0.0035 -0.5847  0.6093
 7211TIP3    H243049   6.639   1.694  15.384  0.1567  0.0072 -0.6082
 7212TIP3   OH243050   6.121   2.413  13.688  0.2580 -0.5205 -0.3712
 7212TIP3    H143051   6.055   2.415  13.757 -0.3358 -3.2711 -0.7439
 7212TIP3    H243052   6.072   2.404  13.607  1.0164  0.3271 -0.9415
 7213TIP3   OH243053   3.868   5.509  16.396 -0.2251  0.0298  0.7059
 7213TIP3    H143054   3.821   5.574  16.448  2.2637  2.3317  0.3522
 7213TIP3    H243055   3.918   5.561  16.333  1.5242 -2.2890  0.0435
 7214TIP3   OH243056   1.187   6.429   5.759  0.7288  0.2244  0.7295
 7214TIP3    H143057   1.189   6.523   5.739  1.3103  0.0117 -0.2616
 7214TIP3    H243058   1.096   6.404   5.747  0.8889  0.2985 -0.8433
 7215TIP3   OH243059   5.060   2.377  16.865  0.6300 -0.4067 -0.1591
 7215TIP3    H143060   4.974   2.337  16.879  0.3213  0.2787 -0.0400
 7215TIP3    H243061   5.118   2.329  16.924 -0.0569  0.3854  1.2410
 7216TIP3   OH243062   3.198   4.820  17.184 -0.1641 -0.0984 -0.2563
 7216TIP3    H143063   3.146   4.759  17.132 -0.7374  0.6562 -0.5827
 7216TIP3    H243064   3.259   4.764  17.233 -0.7404 -0.9295 -0.4741
 7217TIP3   OH243065   0.016   4.436  15.101 -0.3011 -0.8011 -0.3576
 7217TIP3    H143066  -0.014   4.357  15.144 -1.1763 -1.2322 -1.6752
 7217TIP3    H243067  -0.037   4.441  15.021 -0.0387  0.9277 -0.4704
 7218TIP3   OH243068   4.962   0.125   2.621  0.4549 -0.1988  0.6205
 7218TIP3    H143069   5.010   0.100   2.542 -0.8836 -0.1052 -0.2650
 7218TIP3    H243070   4.881   0.074   2.616  0.0930  0.2507  1.6377
 7219TIP3   OH243071   0.839   0.889  15.654  0.2910  0.0588  0.7241
 7219TIP3    H143072   0.900   0.959  15.629  0.3349 -0.2303 -0.0179
 7219TIP3    H243073   0.887   0.808  15.634 -0.4447 -0.1741 -0.1697
 7220TIP3   OH243074   1.548   3.566   2.375  0.0363 -0.4589  0.0377
 7220TIP3    H143075   1.643   3.559   2.372 -0.0530 -1.8908 -0.3638
 7220TIP3    H243076   1.527   3.640   2.317  0.9689  1.0811  1.5710
 7221TIP3   OH243077   6.550   2.808  12.222  0.4219  0.3431 -0.4927
 7221TIP3    H143078   6.514   2.848  12.143  1.1745  1.0264 -0.4990
 7221TIP3    H243079   6.604   2.876  12.261 -0.7496  0.3732  1.1778
 7222TIP3   OH243080   1.874   6.691   4.359 -0.3779  0.1539 -0.3994
 7222TIP3    H143081   1.804   6.715   4.298 -0.4014 -0.0232 -0.4414
 7222TIP3    H243082   1.864   6.753   4.432 -2.1494 -1.4217  0.7874
 7223TIP3   OH243083   4.229   2.520  14.298  0.0884 -0.4751  0.4486
 7223TIP3    H143084   4.210   2.480  14.382 -0.3765 -0.6779  0.2501
 7223TIP3    H243085   4.144   2.522  14.253 -0.1007  1.5219  0.7919
 7224TIP3   OH243086   6.000   0.163  14.356 -0.0946  0.3326 -0.8235
 7224TIP3    H143087   6.079   0.195  14.399 -0.5048 -0.1025  0.3149
 7224TIP3    H243088   5.955   0.242  14.326 -0.1856  0.7288  0.2898
 7225TIP3   OH243089   5.075   0.157   0.645  0.4543  0.0991 -0.3733
 7225TIP3    H143090   5.147   0.169   0.707 -0.6119  0.2198  0.8827
 7225TIP3    H243091   5.043   0.068   0.662  0.3345  0.0258 -0.9592
 7226TIP3   OH243092   0.891   6.086  13.803  0.0485  0.0143 -0.4952
 7226TIP3    H143093   0.854   6.174  13.808  0.8709  0.4000 -1.0408
 7226TIP3    H243094   0.985   6.099  13.820  0.1702 -0.7577 -0.5645
 7227TIP3   OH243095   0.047   1.751   0.447  0.0897  0.3707  0.0802
 7227TIP3    H143096   0.073   1.685   0.511  0.1242  0.6389  0.3436
 7227TIP3    H243097  -0.038   1.782   0.478 -1.2905 -1.5460 -1.5583
 7228TIP3   OH243098   0.802   5.735  17.317 -0.6037  0.4044  0.3128
 7228TIP3    H143099   0.727   5.676  17.319 -0.0850 -0.3788 -1.3545
 7228TIP3    H243100   0.838   5.733  17.406 -0.9872 -1.3009  0.4431
 7229TIP3   OH243101   1.885   2.594  13.491 -0.2073 -0.3601 -0.3129
 7229TIP3    H143102   1.808   2.608  13.547  0.0777 -2.3660  0.6778
 7229TIP3    H243103   1.946   2.663  13.517 -0.8522 -0.0632  0.4571
 7230TIP3   OH243104   2.873   5.609  15.587 -0.0505 -0.2122  0.8819
 7230TIP3    H143105   2.867   5.691  15.538  0.7882 -0.2589  0.7012
 7230TIP3    H243106   2.859   5.636  15.678  1.9672  0.4043  1.0439
 7231TIP3   OH243107   0.568   5.661  13.363  0.1891  0.2419  0.1210
 7231TIP3    H143108   0.662   5.679  13.359  0.2358 -0.1653 -1.5228
 7231TIP3    H243109   0.526   5.746  13.352  0.3066  0.7263  2.8442
 7232TIP3   OH243110   2.801   2.925  12.268 -0.8368 -0.5328 -0.0714
 7232TIP3    H143111   2.848   2.993  12.220 -0.7982  0.1645  0.9318
 7232TIP3    H243112   2.837   2.843  12.234 -0.0349 -0.0338 -0.4647
 7233TIP3   OH243113   1.684   3.746  16.884 -0.2204 -0.4891  0.4403
 7233TIP3    H143114   1.596   3.742  16.846 -0.3617 -0.9223  0.7911
 7233TIP3    H243115   1.743   3.738  16.809 -0.4880 -3.1362  0.4132
 7234TIP3   OH243116   5.686   4.481  14.502 -0.0991 -0.0023  0.3347
 7234TIP3    H143117   5.780   4.477  14.518  0.3830 -0.4681 -2.1575
 7234TIP3    H243118   5.660   4.389  14.493 -0.8585  0.1151  1.1799
 7235TIP3   OH243119   5.829   5.740   2.912 -0.3240  0.1401  0.7487
 7235TIP3    H143120   5.821   5.673   2.845  1.1020  0.4580  0.2375
 7235TIP3    H243121   5.761   5.718   2.976  0.7893 -2.4416  1.1732
 7236TIP3   OH243122   0.888   2.378  16.080 -0.1362  0.3676 -0.5460
 7236TIP3    H143123   0.868   2.304  16.022 -0.6082  0.9975 -1.2128
 7236TIP3    H243124   0.889   2.340  16.168  1.1547 -0.7244 -0.9959
 7237TIP3   OH243125   0.955   3.186  12.093  0.4696 -0.2091  0.1274
 7237TIP3    H143126   1.046   3.201  12.068  1.5055 -2.3586  2.2288
 7237TIP3    H243127   0.960   3.144  12.179 -2.4361 -1.9662 -0.4280
 7238TIP3   OH243128   0.715   2.446   0.551  0.2049  0.0905  0.3190
 7238TIP3    H143129   0.621   2.441   0.567  0.2542 -0.5595  0.4424
 7238TIP3    H243130   0.737   2.360   0.515  0.5576  0.6265 -0.7651
 7239TIP3   OH243131   2.859   6.323   5.924 -0.3558  0.0455 -0.1144
 7239TIP3    H143132   2.927   6.257   5.939 -0.5562 -0.1335  0.0205
 7239TIP3    H243133   2.818   6.297   5.842  0.4822  0.8002 -0.7871
 7240TIP3   OH243134   5.776   4.011   4.819  0.1571  0.1726  0.5267
 7240TIP3    H143135   5.749   3.978   4.905 -1.6295  1.2826  0.4537
 7240TIP3    H243136   5.841   4.079   4.839  0.4630 -0.2377  0.9411
 7241TIP3   OH243137   6.136   0.817   1.515  0.2244  0.1538 -0.3170
 7241TIP3    H143138   6.046   0.788   1.528  0.0488  1.0859  0.6786
 7241TIP3    H243139   6.186   0.768   1.580  0.4533 -0.4203 -0.9217
 7242TIP3   OH243140   0.650   3.424   0.443  0.1990 -0.6455  0.0600
 7242TIP3    H143141   0.660   3.339   0.486 -1.3507 -1.7682 -1.6527
 7242TIP3    H243142   0.607   3.404   0.359 -1.3652  1.9565  0.1282
 7243TIP3   OH243143   3.143   4.952   5.879 -0.1892 -0.0953  0.1760
 7243TIP3    H143144   3.065   4.961   5.933  0.6590  0.0902  1.4159
 7243TIP3    H243145   3.118   4.888   5.812 -0.9839 -1.1171  1.3885
 7244TIP3   OH243146   1.038   2.952  13.095  0.0293  0.0758  0.0307
 7244TIP3    H143147   1.027   2.913  13.008 -0.8541 -0.5258  0.3927
 7244TIP3    H243148   1.011   2.883  13.156 -2.4144  1.4697  0.6725
 7245TIP3   OH243149   5.390   3.589   4.494 -0.3511 -0.0069  0.2830
 7245TIP3    H143150   5.328   3.661   4.498 -0.4301  0.1602 -2.1978
 7245TIP3    H243151   5.470   3.628   4.458  0.1460 -0.8295  0.4741
 7246TIP3   OH243152   6.612   1.126   5.049 -0.1550 -0.1302  0.0367
 7246TIP3    H143153   6.593   1.135   4.955  0.0809  0.6834  0.0582
 7246TIP3    H243154   6.623   1.216   5.079  1.2131 -0.4470  0.5473
 7247TIP3   OH243155   5.711   2.562  16.162 -0.1512  0.1981  0.2330
 7247TIP3    H143156   5.745   2.562  16.252 -0.3691 -1.9987  0.3575
 7247TIP3    H243157   5.786   2.539  16.108 -0.7521 -1.9064  0.2305
 7248TIP3   OH243158   5.603   5.856   2.545 -0.4104 -0.0108 -0.1655
 7248TIP3    H143159   5.657   5.893   2.476 -0.6800  0.7287  0.0132
 7248TIP3    H243160   5.641   5.769   2.561  1.2985  0.8259  0.5840
 7249TIP3   OH243161   3.169   0.665   6.595  0.0894 -0.3497  0.0954
 7249TIP3    H143162   3.125   0.726   6.655 -0.5392 -0.1009 -0.5946
 7249TIP3    H243163   3.236   0.623   6.648 -0.4336 -0.1146  0.9649
 7250TIP3   OH243164   4.896   4.869  14.631 -0.4748 -0.2503  0.0454
 7250TIP3    H143165   4.895   4.781  14.593  1.7641 -1.2686  2.0684
 7250TIP3    H243166   4.883   4.854  14.725 -1.8514  1.7939  0.2484
 7251TIP3   OH243167   1.827   0.758   5.346  0.3062 -0.1022  0.5111
 7251TIP3    H143168   1.737   0.792   5.349  0.7999  1.3638 -0.1413
 7251TIP3    H243169   1.858   0.782   5.259  1.1880 -0.9957  0.5734
 7252TIP3   OH243170   1.661   4.337  16.882 -0.3087  0.0275 -0.5643
 7252TIP3    H143171   1.663   4.421  16.836 -0.1717 -0.3061 -1.1844
 7252TIP3    H243172   1.684   4.357  16.972 -0.2539  0.6497 -0.7184
 7253TIP3   OH243173   1.293   4.944   2.065 -0.1247 -0.2008  0.3205
 7253TIP3    H143174   1.211   4.988   2.046 -0.1304 -0.5310 -0.4300
 7253TIP3    H243175   1.324   4.911   1.980  0.9050  0.1399  0.5428
 7254TIP3   OH243176   6.180   1.318  15.495  0.3811 -0.2901  0.2353
 7254TIP3    H143177   6.224   1.388  15.447  1.1861 -0.7608  0.2646
 7254TIP3    H243178   6.189   1.342  15.587 -0.3772  0.1584  0.1979
 7255TIP3   OH243179   2.417   4.926   1.780 -0.2276 -0.0482 -0.0072
 7255TIP3    H143180   2.410   4.841   1.737 -0.9260  1.1039 -2.2981
 7255TIP3    H243181   2.443   4.986   1.710  0.9177  1.5364  1.6895
 7256TIP3   OH243182   3.636   5.187   0.927 -0.0210 -0.0629  1.1047
 7256TIP3    H143183   3.611   5.277   0.908  0.0040 -0.1053  0.8733
 7256TIP3    H243184   3.650   5.147   0.842 -0.9015 -0.5350  1.1758
 7257TIP3   OH243185   5.590   2.901  13.717 -0.0410 -0.4769  0.8285
 7257TIP3    H143186   5.660   2.966  13.722 -1.6077  1.5266 -1.2810
 7257TIP3    H243187   5.516   2.948  13.678 -1.7988 -3.1331  0.6994
 7258TIP3   OH243188   5.308   6.661   0.324  0.0295 -0.4696  0.2562
 7258TIP3    H143189   5.376   6.608   0.283  1.0409  1.7018 -1.0146
 7258TIP3    H243190   5.305   6.742   0.272 -0.0658  1.5852  3.2176
 7259TIP3   OH243191   1.614   1.631   4.403  0.4001  0.5405 -0.3919
 7259TIP3    H143192   1.524   1.645   4.432  1.1905 -0.8733  3.3295
 7259TIP3    H243193   1.667   1.687   4.461  2.0347 -0.5385 -0.7621
 7260TIP3   OH243194   0.397   2.895   2.926  0.2135 -0.6015  0.1281
 7260TIP3    H143195   0.399   2.898   3.022 -0.4914  0.2311  0.1257
 7260TIP3    H243196   0.369   2.806   2.905  2.0552 -1.3517  0.6473
 7261TIP3   OH243197   5.112   2.575   4.876  0.9069 -0.4166  0.4767
 7261TIP3    H143198   5.117   2.638   4.948  2.4101  0.5380 -0.3898
 7261TIP3    H243199   5.157   2.497   4.910 -1.3121 -1.2541  1.6970
 7262TIP3   OH243200   4.511   1.805   3.806  0.1295 -0.0947 -0.4569
 7262TIP3    H143201   4.519   1.845   3.719 -0.6756  5.3187  1.5608
 7262TIP3    H243202   4.601   1.786   3.831  1.3745  4.9264 -0.0882
 7263TIP3   OH243203   2.694   0.555  14.514  0.1067 -0.2294 -0.0592
 7263TIP3    H143204   2.741   0.478  14.544  0.5080  0.2166  0.4987
 7263TIP3    H243205   2.651   0.589  14.593 -0.0397  0.1327 -0.2903
 7264TIP3   OH243206   2.816   5.961  16.806  0.6299 -0.1421  0.0165
 7264TIP3    H143207   2.723   5.950  16.787  1.1104 -1.6332 -1.7042
 7264TIP3    H243208   2.819   5.975  16.901 -1.3424  0.1228  0.0850
 7265TIP3   OH243209   1.520   0.219  13.222 -0.0307 -0.3415 -0.2322
 7265TIP3    H143210   1.535   0.274  13.299  1.3226  1.6713 -1.7920
 7265TIP3    H243211   1.525   0.130  13.254  0.0385  0.4294  2.0661
 7266TIP3   OH243212   5.018   0.216  17.030  0.7018 -0.4855  0.3666
 7266TIP3    H143213   5.009   0.165  16.950 -1.4562  0.6231 -0.1693
 7266TIP3    H243214   4.940   0.194  17.081  0.3668  1.2890  0.6770
 7267TIP3   OH243215   4.867   5.542  15.517 -0.1918  0.0092  0.1793
 7267TIP3    H143216   4.878   5.526  15.423  3.2535  0.4863  0.3731
 7267TIP3    H243217   4.843   5.457  15.554 -2.1841 -0.0662 -1.1251
 7268TIP3   OH243218   6.769   2.728  12.569 -0.0049 -0.1300  0.8434
 7268TIP3    H143219   6.758   2.804  12.512  2.6535  1.3482  2.1256
 7268TIP3    H243220   6.692   2.728  12.625 -1.5075 -0.2278 -1.0960
 7269TIP3   OH243221   1.478   3.199  16.198 -0.0402 -0.5709 -0.0244
 7269TIP3    H143222   1.507   3.174  16.286  3.3181 -0.1261 -0.8560
 7269TIP3    H243223   1.519   3.135  16.140 -0.1457  0.5792 -1.4267
 7270TIP3   OH243224   6.513   2.119   0.841  0.2398 -0.4513 -0.2035
 7270TIP3    H143225   6.539   2.198   0.792 -0.3319 -0.2158 -0.1350
 7270TIP3    H243226   6.417   2.119   0.838  0.1513 -3.1934 -3.5354
 7271TIP3   OH243227   3.059   1.700  12.875 -0.3426  0.2605  0.3222
 7271TIP3    H143228   3.035   1.732  12.788 -1.0601  0.1103  0.4546
 7271TIP3    H243229   3.154   1.690  12.872 -0.3964 -0.0413 -0.5467
 7272TIP3   OH243230   2.819   0.371  11.278 -0.1608 -0.4413 -0.3144
 7272TIP3    H143231   2.883   0.411  11.219 -1.2019 -0.7463 -1.7070
 7272TIP3    H243232   2.824   0.278  11.259 -0.8596 -0.4878 -0.3102
 7273TIP3   OH243233   2.955   1.985  12.429 -0.0698  0.8236  0.1575
 7273TIP3    H143234   2.917   1.963  12.344  1.4815 -1.6623  0.0007
 7273TIP3    H243235   2.948   2.081  12.434 -0.0085  1.0877 -2.8491
 7274TIP3   OH243236   5.464   0.126   0.493 -0.4994  0.1914  0.3397
 7274TIP3    H143237   5.463   0.032   0.515  0.5281 -0.0250 -0.4615
 7274TIP3    H243238   5.397   0.136   0.426 -1.1268  0.1844  0.9472
 7275TIP3   OH243239   1.064   0.130   6.013  1.0905  0.3957 -0.5644
 7275TIP3    H143240   1.037   0.049   5.971 -2.0179  0.0419  1.7532
 7275TIP3    H243241   0.995   0.192   5.991  0.9685  1.0341  1.4409
 7276TIP3   OH243242   5.553   6.453  14.879 -0.4409 -0.0893  0.2485
 7276TIP3    H143243   5.600   6.396  14.940 -1.0351  0.2877  1.0668
 7276TIP3    H243244   5.559   6.540  14.916 -1.9369 -0.0540  0.4789
 7277TIP3   OH243245   3.763   1.585  13.740  0.2466  0.1249  0.6886
 7277TIP3    H143246   3.670   1.587  13.761  0.4746  0.6589  1.7692
 7277TIP3    H243247   3.772   1.636  13.660 -0.5574 -1.1464 -0.2434
 7278TIP3   OH243248   0.971   6.299   4.970 -0.5892  0.5667  0.2477
 7278TIP3    H143249   1.053   6.347   4.970 -0.9632  1.2334  0.8249
 7278TIP3    H243250   0.933   6.315   4.883  0.0599 -0.0638 -0.1594
 7279TIP3   OH243251   6.329   0.886   0.594  0.4169  0.8679 -0.4065
 7279TIP3    H143252   6.266   0.855   0.528  1.1438 -0.3993 -0.5371
 7279TIP3    H243253   6.296   0.851   0.677  1.5139 -0.7926 -0.6197
 7280TIP3   OH243254   1.213   1.239   1.761  0.3064 -0.0546 -0.5095
 7280TIP3    H143255   1.224   1.290   1.681  0.7060 -0.6618 -0.8587
 7280TIP3    H243256   1.303   1.223   1.791  0.3640 -2.4727 -1.6800
 7281TIP3   OH243257   0.832   1.357   0.797 -0.3158 -0.0630  0.3985
 7281TIP3    H143258   0.835   1.284   0.858 -0.2911  0.0218  0.4995
 7281TIP3    H243259   0.923   1.371   0.771 -0.1100  0.8920  1.5316
 7282TIP3   OH243260   2.681   4.951   5.197 -0.2510 -0.1918  0.4988
 7282TIP3    H143261   2.622   4.980   5.127 -2.0295  1.5260  2.5511
 7282TIP3    H243262   2.764   4.995   5.179 -0.7495  0.4122 -0.3781
 7283TIP3   OH243263   2.204   3.751   3.306  0.5376 -0.2963  0.0723
 7283TIP3    H143264   2.152   3.822   3.343 -0.6011 -0.1378 -1.7219
 7283TIP3    H243265   2.147   3.674   3.313  1.7684 -1.1038  2.0226
 7284TIP3   OH243266   2.946   6.314   0.864  0.2810  0.2669  0.1253
 7284TIP3    H143267   2.976   6.393   0.820  1.0382 -0.7386 -1.2361
 7284TIP3    H243268   2.897   6.346   0.940  0.5236  2.0266 -0.4153
 7285TIP3   OH243269   4.569   3.642  16.526 -0.0595 -0.0089  0.1027
 7285TIP3    H143270   4.546   3.715  16.584 -1.4708 -1.2798  1.1925
 7285TIP3    H243271   4.486   3.600  16.505  0.4965 -0.0659 -2.2734
 7286TIP3   OH243272   4.650   6.737   0.964 -0.3072  0.4258  0.1041
 7286TIP3    H143273   4.557   6.726   0.947 -0.3676 -0.5146  0.9665
 7286TIP3    H243274   4.677   6.657   1.009  0.4541  1.5340  1.7664
 7287TIP3   OH243275   1.732   2.127  14.585 -0.5239  0.7199 -0.5595
 7287TIP3    H143276   1.809   2.124  14.527  1.5779  1.0731  1.9984
 7287TIP3    H243277   1.679   2.053  14.556  0.4638  0.7667 -2.7849
 7288TIP3   OH243278   5.427   0.697  11.159  0.3015 -0.5251  0.6025
 7288TIP3    H143279   5.448   0.627  11.098  0.4175 -1.8741  2.1259
 7288TIP3    H243280   5.365   0.753  11.111  1.2466 -0.8912 -1.1106
 7289TIP3   OH243281   2.139   2.650  15.308 -0.4478  0.4282 -0.3033
 7289TIP3    H143282   2.138   2.657  15.403  0.9302  0.6212 -0.2801
 7289TIP3    H243283   2.047   2.643  15.283 -0.8170  0.2525  1.0463
 7290TIP3   OH243284   3.029   1.745  13.183  0.3177 -0.4710  0.3882
 7290TIP3    H143285   3.022   1.840  13.189 -0.5596 -0.3408 -1.9523
 7290TIP3    H243286   3.024   1.726  13.090  3.1384 -2.6479  0.5377
 7291TIP3   OH243287   3.879   1.187   3.371 -0.6204 -0.0987 -0.4549
 7291TIP3    H143288   3.814   1.200   3.440  1.0639  1.3462  0.9504
 7291TIP3    H243289   3.843   1.233   3.295 -0.9447  1.3216  0.5175
 7292TIP3   OH243290   1.120   4.027   6.308  0.4323  0.4993  0.1501
 7292TIP3    H143291   1.204   4.047   6.350 -0.5286 -1.2360  3.2454
 7292TIP3    H243292   1.062   4.004   6.381 -1.6236 -2.2267 -2.1263
 7293TIP3   OH243293   6.337   2.702   1.976  0.1047  0.5525 -0.3031
 7293TIP3    H143294   6.377   2.753   2.047  0.4293  1.7509 -1.3165
 7293TIP3    H243295   6.362   2.748   1.896  2.1269 -2.3555 -1.4686
 7294TIP3   OH243296   6.290   6.098   4.653 -0.4753  0.4109 -0.1623
 7294TIP3    H143297   6.205   6.142   4.661 -0.7040  0.2547 -1.4776
 7294TIP3    H243298   6.303   6.088   4.558  0.8940  0.1970  0.0274
 7295TIP3   OH243299   3.197   5.685   3.153  0.6794  0.1226 -0.4705
 7295TIP3    H143300   3.228   5.633   3.079  0.6658  0.6412 -0.8388
 7295TIP3    H243301   3.104   5.701   3.134  0.4062 -0.6227  0.1685
 7296TIP3   OH243302   5.763   1.754   4.349  0.4131  0.7861  0.3584
 7296TIP3    H143303   5.813   1.673   4.348 -2.2146 -1.0186 -2.4346
 7296TIP3    H243304   5.826   1.822   4.327  1.9280 -1.1532 -1.7346
 7297TIP3   OH243305   6.308   0.923  10.785  0.7497  0.1835 -0.4618
 7297TIP3    H143306   6.304   0.828  10.796  2.1506 -0.1546 -2.3726
 7297TIP3    H243307   6.397   0.948  10.810  1.3809  0.4941 -2.7352
 7298TIP3   OH243308   3.361   6.300  16.465  0.1313  0.4707  1.2900
 7298TIP3    H143309   3.428   6.234  16.448 -0.4717  0.2598 -0.3903
 7298TIP3    H243310   3.334   6.330  16.379 -1.4088  1.1047  1.9564
 7299TIP3   OH243311   3.067   2.901  16.048 -0.0450  1.1040  0.1468
 7299TIP3    H143312   3.046   2.909  15.955  0.1595 -1.2357 -0.1646
 7299TIP3    H243313   2.984   2.917  16.093 -0.6822  0.0382 -0.6033
 7300TIP3   OH243314   3.946   0.197  10.907 -0.1950  0.2470  0.1232
 7300TIP3    H143315   3.925   0.230  10.994 -1.2879 -0.4214  0.1248
 7300TIP3    H243316   3.913   0.265  10.847 -1.4811 -0.3132  0.1648
 7301TIP3   OH243317   3.881   4.607  15.164  0.0835  0.3403  0.0772
 7301TIP3    H143318   3.919   4.531  15.120  0.5751  0.0452  0.9715
 7301TIP3    H243319   3.867   4.577  15.254  1.5742  1.7199  0.8121
 7302TIP3   OH243320   0.631   1.703  12.096  0.9364 -0.1387  0.4656
 7302TIP3    H143321   0.688   1.688  12.172  2.3774  0.7310 -0.3949
 7302TIP3    H243322   0.691   1.711  12.022 -0.3431  0.3594 -0.5639
 7303TIP3   OH243323   6.761   0.289  17.279  0.4072 -0.3721 -0.0152
 7303TIP3    H143324   6.679   0.240  17.270 -0.7482  1.4682 -0.0177
 7303TIP3    H243325   6.796   0.295  17.191  1.2474 -2.1922  0.1292
 7304TIP3   OH243326   0.643   1.508  10.963  0.4024 -0.7880  0.4497
 7304TIP3    H143327   0.631   1.420  10.927 -1.4648 -0.0673 -0.8460
 7304TIP3    H243328   0.696   1.553  10.897 -1.6514  0.0591 -0.6916
 7305TIP3   OH243329   3.068   4.217   3.339  0.4815 -0.0615  0.3721
 7305TIP3    H143330   3.091   4.164   3.263  1.2671 -0.1617  0.6721
 7305TIP3    H243331   3.150   4.258   3.366  0.1416  0.2628  0.9452
 7306TIP3   OH243332   4.397   1.782   4.964 -0.7084 -0.4519  0.4479
 7306TIP3    H143333   4.366   1.694   4.985  0.8934 -0.8459  1.3054
 7306TIP3    H243334   4.490   1.772   4.947 -0.5789  1.0200  0.1350
 7307TIP3   OH243335   6.281   4.257  14.382  0.1846 -0.5373  0.2895
 7307TIP3    H143336   6.318   4.307  14.455 -1.9621  0.5337  0.7043
 7307TIP3    H243337   6.201   4.218  14.416  0.5474 -2.3465 -0.7397
 7308TIP3   OH243338   1.815   3.911   3.171 -0.4008 -0.1761  0.0631
 7308TIP3    H143339   1.872   3.836   3.187  0.7325  0.5394 -0.4570
 7308TIP3    H243340   1.832   3.970   3.244 -0.3261  0.1176 -0.1873
 7309TIP3   OH243341   3.557   6.441   2.350 -0.7170 -0.4817  0.0754
 7309TIP3    H143342   3.586   6.414   2.437 -0.0854 -1.9066 -0.5523
 7309TIP3    H243343   3.599   6.379   2.290  0.8638  1.8963 -1.4797
 7310TIP3   OH243344   1.534   0.460  15.446 -0.2554  0.0497  0.1030
 7310TIP3    H143345   1.517   0.431  15.535 -0.5994  0.4331  0.1657
 7310TIP3    H243346   1.505   0.551  15.445 -1.6719 -0.3914 -0.8166
 7311TIP3   OH243347   3.878   6.762   5.694  0.1132  0.0859  0.3192
 7311TIP3    H143348   3.868   6.850   5.730  2.7539  1.2788 -1.5695
 7311TIP3    H243349   3.950   6.723   5.744 -0.3380 -0.6372  0.4298
 7312TIP3   OH243350   5.576   2.692   1.060 -0.2479  1.1303  0.7349
 7312TIP3    H143351   5.669   2.714   1.060  0.1057 -0.2013  2.1375
 7312TIP3    H243352   5.553   2.683   1.152 -1.5500  0.5586  0.3792
 7313TIP3   OH243353   6.432   0.831  13.494 -0.1669  0.1115  0.0373
 7313TIP3    H143354   6.442   0.838  13.589  1.5075  0.2275 -0.1100
 7313TIP3    H243355   6.454   0.918  13.461 -0.9975  0.1436 -0.4513
 7314TIP3   OH243356   4.933   4.393  15.667  0.3811 -0.3473  0.3933
 7314TIP3    H143357   4.875   4.463  15.697  0.3004 -0.2070 -0.0758
 7314TIP3    H243358   4.896   4.366  15.583  1.1855 -0.0309 -0.0677
 7315TIP3   OH243359   3.796   0.532  10.583 -0.6118  0.1136  0.9394
 7315TIP3    H143360   3.737   0.601  10.614  0.3046  0.6505  1.5455
 7315TIP3    H243361   3.769   0.517  10.492 -1.2190  0.8466  0.9819
 7316TIP3   OH243362   0.005   5.603   4.840  0.4037  0.2803 -0.6283
 7316TIP3    H143363  -0.003   5.696   4.818  0.5310 -0.1694 -2.7521
 7316TIP3    H243364   0.089   5.577   4.803 -0.5487 -1.1422 -1.9029
 7317TIP3   OH243365   0.844   0.109  13.451  0.5809  0.4946  0.2267
 7317TIP3    H143366   0.838   0.018  13.480 -0.0635  0.0123 -1.3046
 7317TIP3    H243367   0.786   0.157  13.510  1.3903  0.0324  1.4309
 7318TIP3   OH243368   5.262   4.269  10.910  0.6254  0.5515 -0.3820
 7318TIP3    H143369   5.357   4.271  10.917  0.5931 -0.5804  0.7017
 7318TIP3    H243370   5.242   4.195  10.854  0.3471 -0.5275  1.0820
 7319TIP3   OH243371   1.619   5.995   0.567 -0.1066 -0.3369  0.3031
 7319TIP3    H143372   1.679   6.004   0.493  0.3164 -1.2958  0.5154
 7319TIP3    H243373   1.603   5.901   0.574 -0.2305 -0.2516  1.3601
 7320TIP3   OH243374   0.590   3.443   5.112 -0.7177  0.9068 -0.5812
 7320TIP3    H143375   0.568   3.514   5.051 -1.0483  2.3801  1.1549
 7320TIP3    H243376   0.576   3.481   5.198  0.1748 -0.9631  0.4426
 7321TIP3   OH243377   2.200   5.493  12.996 -0.2276 -0.2675  0.1021
 7321TIP3    H143378   2.261   5.420  13.002 -1.4908 -1.6604 -2.5622
 7321TIP3    H243379   2.228   5.542  12.918 -0.5125  1.0425  0.7860
 7322TIP3   OH243380   3.924   3.572   4.564  0.7051 -0.3567  0.2953
 7322TIP3    H143381   4.001   3.611   4.522  0.0910 -1.3346 -1.8498
 7322TIP3    H243382   3.871   3.647   4.590  1.3607  0.2915 -0.1977
 7323TIP3   OH243383   0.892   0.258  17.143  0.8972 -0.1997  0.1320
 7323TIP3    H143384   0.814   0.214  17.177  2.0779 -0.4737  2.7520
 7323TIP3    H243385   0.917   0.320  17.212  0.8561  2.7208 -2.2846
 7324TIP3   OH243386   2.195   5.143  15.465 -0.3709 -0.4754  0.6499
 7324TIP3    H143387   2.203   5.182  15.378  1.3626 -2.0451  0.0069
 7324TIP3    H243388   2.149   5.208  15.518 -0.9444  0.7651 -1.2873
 7325TIP3   OH243389   3.933   5.767   2.504  0.0324  0.7873 -0.3334
 7325TIP3    H143390   3.876   5.697   2.537 -1.9798  2.6450  0.3482
 7325TIP3    H243391   3.884   5.806   2.432  0.8802  1.8307 -0.3602
 7326TIP3   OH243392   6.117   4.309  13.066  0.5516 -0.3687  0.2323
 7326TIP3    H143393   6.172   4.252  13.119 -0.1203 -1.2811 -0.0209
 7326TIP3    H243394   6.036   4.259  13.053  0.1313  0.4491 -0.3970
 7327TIP3   OH243395   0.880   4.775   4.130 -0.0632 -0.4267  0.0902
 7327TIP3    H143396   0.828   4.823   4.194  0.1816  1.9114 -1.3614
 7327TIP3    H243397   0.837   4.792   4.046  1.7709 -0.2473 -0.8562
 7328TIP3   OH243398   1.474   0.089   1.583  0.8363  0.4533  0.6523
 7328TIP3    H143399   1.421   0.078   1.504  0.4327  0.9662  0.8513
 7328TIP3    H243400   1.561   0.113   1.550  0.5977  0.9453  0.3701
 7329TIP3   OH243401   0.884   6.269   0.979  0.4325 -0.4102  0.0449
 7329TIP3    H143402   0.799   6.226   0.978  0.9912 -1.5621  0.5891
 7329TIP3    H243403   0.897   6.293   1.071  1.1093 -1.0956  0.1341
 7330TIP3   OH243404   6.675   0.038   0.498  0.3078 -0.2949  0.4857
 7330TIP3    H143405   6.766   0.042   0.467  0.5614  0.2218  1.2588
 7330TIP3    H243406   6.650   0.130   0.509  0.6477 -0.4339  2.9505
 7331TIP3   OH243407   1.584   3.535  15.765  0.5684 -0.3050 -0.7560
 7331TIP3    H143408   1.526   3.590  15.712 -0.4256 -0.5400  0.0455
 7331TIP3    H243409   1.545   3.538  15.853  0.4038 -2.3931 -0.7100
 7332TIP3   OH243410   4.465   6.670   5.014 -0.3187  0.5630  0.2549
 7332TIP3    H143411   4.391   6.730   5.014 -0.3511  0.5282  1.2775
 7332TIP3    H243412   4.522   6.704   4.945 -1.3769  0.4557 -0.7082
 7333TIP3   OH243413   2.464   1.224   3.806 -0.1694  0.3783 -0.2185
 7333TIP3    H143414   2.558   1.237   3.807 -0.2999  1.3832  0.9354
 7333TIP3    H243415   2.428   1.309   3.779 -0.7696  0.1870 -0.0431
 7334TIP3   OH243416   0.638   1.922   1.035 -0.3292  0.0267  0.1097
 7334TIP3    H143417   0.687   1.999   1.005 -1.1379  0.5177  0.0156
 7334TIP3    H243418   0.589   1.894   0.958 -1.5551  0.6139  0.6632
 7335TIP3   OH243419   5.679   5.711   1.407 -0.5823  0.3089 -0.2698
 7335TIP3    H143420   5.628   5.677   1.334 -1.8825 -0.8024  1.1028
 7335TIP3    H243421   5.639   5.795   1.428 -1.0378  0.0368 -0.0312
 7336TIP3   OH243422   0.930   3.480  14.133  0.3205  0.1065 -0.3329
 7336TIP3    H143423   0.907   3.544  14.200  0.1617 -0.7130  0.4058
 7336TIP3    H243424   0.927   3.529  14.051 -3.7983  0.1949 -0.3404
 7337TIP3   OH243425   1.039   3.311  15.725  0.0668 -0.1230 -0.3095
 7337TIP3    H143426   1.000   3.334  15.809 -0.1161 -1.6264  0.0494
 7337TIP3    H243427   0.988   3.236  15.695  1.3870 -0.8754 -0.7896
 7338TIP3   OH243428   6.173   5.647  12.338 -0.0497 -0.9278 -0.1364
 7338TIP3    H143429   6.095   5.610  12.297 -1.7635  3.2587 -1.0925
 7338TIP3    H243430   6.233   5.665  12.266  1.0218 -2.1392  0.3868
 7339TIP3   OH243431   2.300   4.863   2.561  0.6415 -0.4497  0.4727
 7339TIP3    H143432   2.221   4.914   2.546  0.0567 -1.6458 -0.8098
 7339TIP3    H243433   2.341   4.856   2.475  0.2623 -2.7622  0.4076
 7340TIP3   OH243434   2.822   3.042   4.154  0.1852 -0.0155  0.0108
 7340TIP3    H143435   2.760   3.035   4.082  0.8497 -1.6956 -0.4552
 7340TIP3    H243436   2.798   2.970   4.213 -0.6945  1.6595  1.7934
 7341TIP3   OH243437   2.907   5.585   3.662  0.1026  0.1261  0.3586
 7341TIP3    H143438   2.928   5.677   3.644 -2.1104  1.0501  2.0069
 7341TIP3    H243439   2.940   5.537   3.586 -0.7659  2.5583 -1.6951
 7342TIP3   OH243440   3.559   3.032  11.742 -0.3141 -0.1276 -0.3551
 7342TIP3    H143441   3.576   2.950  11.788 -0.7774  0.2364  0.4965
 7342TIP3    H243442   3.529   3.006  11.656  0.8762 -0.8308 -0.5794
 7343TIP3   OH243443   3.331   2.274  14.613 -0.1233 -0.7012 -0.6056
 7343TIP3    H143444   3.246   2.285  14.570  0.7435 -2.0575 -2.8284
 7343TIP3    H243445   3.370   2.361  14.612 -0.2902 -0.6170 -2.3100
 7344TIP3   OH243446   5.542   0.269  15.204  0.4197  0.7690  0.3319
 7344TIP3    H143447   5.598   0.202  15.242 -0.6655 -0.0125  0.6212
 7344TIP3    H243448   5.579   0.286  15.118  0.4998 -0.5006  0.0967
 7345TIP3   OH243449   5.754   2.549   4.401  0.5143  0.5387 -0.3797
 7345TIP3    H143450   5.830   2.555   4.459 -1.4996  1.6080  2.3520
 7345TIP3    H243451   5.707   2.631   4.414 -2.1151 -0.8438 -0.4180
 7346TIP3   OH243452   2.983   6.710   0.234  0.5120  0.2351 -0.3152
 7346TIP3    H143453   2.998   6.801   0.208 -1.1109  1.0466  1.3608
 7346TIP3    H243454   2.888   6.700   0.232  0.6182 -1.1434  0.4269
 7347TIP3   OH243455   0.664   3.109   2.581 -1.5519 -0.2594  0.1586
 7347TIP3    H143456   0.626   3.056   2.511 -0.0283 -2.6310  1.0132
 7347TIP3    H243457   0.757   3.089   2.579 -1.6296 -1.8362  3.8594
 7348TIP3   OH243458   6.009   1.589   7.031 -0.4335 -0.0743  0.3211
 7348TIP3    H143459   5.919   1.559   7.045 -0.9655  0.3389 -1.8065
 7348TIP3    H243460   6.000   1.662   6.970  1.2380  1.0971  1.4245
 7349TIP3   OH243461   4.886   1.728   1.112  0.0536 -0.4246 -0.5637
 7349TIP3    H143462   4.913   1.678   1.189  0.8424 -1.5932 -1.5451
 7349TIP3    H243463   4.960   1.720   1.052  0.0966  1.7550 -0.8719
 7350TIP3   OH243464   5.222   3.803  14.425 -0.5463 -0.4648 -0.3304
 7350TIP3    H143465   5.178   3.719  14.433 -0.7521 -0.6513 -2.6049
 7350TIP3    H243466   5.265   3.799  14.339 -1.1794  2.0174 -0.8363
 7351TIP3   OH243467   1.632   4.471   0.358  0.0266  0.1996 -0.3380
 7351TIP3    H143468   1.549   4.424   0.344  1.4148 -1.7735 -2.7613
 7351TIP3    H243469   1.660   4.443   0.445 -0.9664 -0.6008 -0.2442
 7352TIP3   OH243470   1.397   2.096  12.002 -0.5116  0.4293 -0.2241
 7352TIP3    H143471   1.426   2.181  12.035  1.5447 -0.0741 -0.6062
 7352TIP3    H243472   1.385   2.042  12.081  1.3245  0.1569 -0.0965
 7353TIP3   OH243473   1.581   3.935  11.427 -0.2523  0.1440 -0.5740
 7353TIP3    H143474   1.635   3.868  11.384  0.5856  0.8644 -0.6716
 7353TIP3    H243475   1.549   3.989  11.354 -1.2916 -0.4054 -0.5341
 7354TIP3   OH243476   3.802   4.023  13.977  0.2852  0.4015  0.3274
 7354TIP3    H143477   3.772   4.114  13.979 -2.4224 -0.3139 -1.5375
 7354TIP3    H243478   3.804   4.001  13.884  1.9070 -1.1773  0.6946
 7355TIP3   OH243479   1.944   2.489  13.949  0.1857  0.1301  0.0438
 7355TIP3    H143480   2.038   2.499  13.963  0.2077  0.0251 -0.0321
 7355TIP3    H243481   1.912   2.579  13.937  0.2455  0.1813  0.2590
 7356TIP3   OH243482   3.473   5.229  16.369 -0.1358 -0.5736 -0.1471
 7356TIP3    H143483   3.457   5.315  16.331 -0.2340 -1.0575 -1.2274
 7356TIP3    H243484   3.393   5.209  16.417  0.1817  0.2576  0.7792
 7357TIP3   OH243485   3.783   4.112   2.298  0.7491 -0.0346  0.0812
 7357TIP3    H143486   3.744   4.031   2.331  0.8234 -0.5041 -0.9630
 7357TIP3    H243487   3.731   4.134   2.221  0.1946  1.3836  0.8153
 7358TIP3   OH243488   6.078   6.565   0.037 -0.0090  0.0434  0.9484
 7358TIP3    H143489   6.030   6.582   0.118  0.7302 -1.5579  1.7761
 7358TIP3    H243490   6.012   6.570  -0.032 -1.1936 -1.1440  1.9424
 7359TIP3   OH243491   5.944   2.914  12.930  0.4622 -0.0933  0.3650
 7359TIP3    H143492   5.888   2.903  13.007  0.3267 -0.0077  0.2776
 7359TIP3    H243493   5.990   2.830  12.922 -1.0884 -0.8959 -0.7082
 7360TIP3   OH243494   2.757   3.700   2.973  0.0122  0.0197 -0.3077
 7360TIP3    H143495   2.698   3.755   2.922  0.7959  1.5535  0.3849
 7360TIP3    H243496   2.720   3.700   3.061  0.2843 -0.1654 -0.1920
 7361TIP3   OH243497   6.698   3.478   6.634  0.1055  0.2035  0.6660
 7361TIP3    H143498   6.666   3.550   6.689 -0.4021  1.9569 -1.7082
 7361TIP3    H243499   6.633   3.472   6.564  1.2931 -1.0846 -0.3791
 7362TIP3   OH243500   5.688   0.376   5.723  0.3862  0.3782 -0.5039
 7362TIP3    H143501   5.691   0.296   5.776 -0.2834  0.9707  0.4653
 7362TIP3    H243502   5.708   0.446   5.785 -2.3139  1.3040 -0.5190
 7363TIP3   OH243503   2.283   5.242  12.528  0.3524  0.3324 -0.2727
 7363TIP3    H143504   2.325   5.318  12.569  0.4708  0.1685 -0.0860
 7363TIP3    H243505   2.190   5.264  12.526  0.3647  0.4046 -0.0448
 7364TIP3   OH243506   5.816   3.079  16.085  0.0094  0.5603  0.3323
 7364TIP3    H143507   5.908   3.081  16.059  0.2455  0.8873  1.1464
 7364TIP3    H243508   5.784   3.167  16.064 -0.3642  0.1775 -0.7638
 7365TIP3   OH243509   1.743   2.296   1.902  0.1034  0.3839 -0.4030
 7365TIP3    H143510   1.766   2.261   1.816  0.5270 -1.7466  0.5277
 7365TIP3    H243511   1.692   2.228   1.944  3.0395 -0.3552  2.4348
 7366TIP3   OH243512   1.626   3.768   0.809 -0.3823  0.0721 -0.8505
 7366TIP3    H143513   1.679   3.812   0.743 -1.0561  0.2983 -1.2446
 7366TIP3    H243514   1.689   3.716   0.859 -0.1252 -1.9181 -3.0748
 7367TIP3   OH243515   1.349   2.833  14.547  0.1874  0.4627 -0.3671
 7367TIP3    H143516   1.287   2.901  14.521 -0.6054 -0.1361 -0.0677
 7367TIP3    H243517   1.409   2.877  14.608 -0.6138  0.7829  0.2099
 7368TIP3   OH243518   1.437   4.103   3.860 -0.0449  0.7140  0.0575
 7368TIP3    H143519   1.411   4.012   3.846 -1.2019  1.2434 -1.4339
 7368TIP3    H243520   1.355   4.152   3.863  0.6079  1.9594 -1.1648
 7369TIP3   OH243521   6.001   1.938   3.624  0.1173  0.6131  0.5425
 7369TIP3    H143522   5.998   1.935   3.529  3.1359  0.9161  0.3203
 7369TIP3    H243523   5.917   1.903   3.653 -0.8932  0.5751 -2.2037
 7370TIP3   OH243524   5.999   3.262  12.507 -0.4460 -0.3991  0.4217
 7370TIP3    H143525   6.087   3.251  12.471 -0.3694 -1.7025  0.9699
 7370TIP3    H243526   5.989   3.357  12.517  0.8827 -0.2343  0.3345
 7371TIP3   OH243527   1.830   2.381  11.452 -0.0614  0.8355  0.0128
 7371TIP3    H143528   1.765   2.326  11.498 -0.9238  1.2594 -0.6729
 7371TIP3    H243529   1.817   2.361  11.360 -0.0369  1.8109 -0.2097
 7372TIP3   OH243530   0.277   0.463   5.055  0.3465  0.2420  0.0514
 7372TIP3    H143531   0.235   0.462   4.969 -0.5125  0.0802  0.4668
 7372TIP3    H243532   0.371   0.471   5.035  0.0810  1.2791 -0.8584
 7373TIP3   OH243533   4.655   0.155   2.229  0.2027  0.0792 -0.5951
 7373TIP3    H143534   4.562   0.154   2.253  0.3602  1.0333  0.1641
 7373TIP3    H243535   4.674   0.066   2.201 -0.3966 -0.7531  1.4303
 7374TIP3   OH243536   2.223   2.073   5.348 -0.5137  0.3182 -0.3051
 7374TIP3    H143537   2.180   2.037   5.270 -0.1681 -0.5334 -0.1103
 7374TIP3    H243538   2.175   2.154   5.367 -1.8169 -0.4449 -0.2830
 7375TIP3   OH243539   2.013   6.614   5.358 -0.0273 -0.0783 -0.0186
 7375TIP3    H143540   2.107   6.629   5.360 -0.3183  2.8634 -2.1975
 7375TIP3    H243541   1.982   6.644   5.444  0.8901 -0.4921  0.4789
 7376TIP3   OH243542   1.831   5.604  12.824  0.6696 -0.2072  0.0092
 7376TIP3    H143543   1.833   5.607  12.919  2.3064 -1.7730  0.0943
 7376TIP3    H243544   1.748   5.645  12.799  0.6554  1.0936  2.0365
 7377TIP3   OH243545   2.218   3.836   5.193  0.5667 -0.3435  0.3117
 7377TIP3    H143546   2.275   3.789   5.132 -0.7762 -1.8995  0.1906
 7377TIP3    H243547   2.176   3.767   5.244 -0.6240  0.7996  0.9217
 7378TIP3   OH243548   5.932   0.471   0.628 -0.5612 -0.3595 -0.6868
 7378TIP3    H143549   5.937   0.561   0.659  0.3686 -0.7411  0.3104
 7378TIP3    H243550   5.992   0.468   0.553 -0.4141 -0.2110 -0.5744
 7379TIP3   OH243551   0.602   4.033  11.573  0.1821 -0.1391 -0.5463
 7379TIP3    H143552   0.592   4.087  11.652  1.5083 -1.5760  0.6902
 7379TIP3    H243553   0.529   3.971  11.577  0.8149 -0.8723  0.1653
 7380TIP3   OH243554   2.637   4.970  12.893  0.0389 -0.1584  0.2867
 7380TIP3    H143555   2.556   4.921  12.881  0.8126 -1.4078 -0.0191
 7380TIP3    H243556   2.620   5.056  12.855 -1.0644 -0.4870  0.0226
 7381TIP3   OH243557   6.288   4.950  10.418  0.0080  0.1199  0.0281
 7381TIP3    H143558   6.211   5.007  10.416 -0.1044 -0.0476 -0.4134
 7381TIP3    H243559   6.361   5.007  10.394  0.2286  0.5854  1.6570
 7382TIP3   OH243560   5.906   2.205  17.081  0.4832  0.0177  0.0863
 7382TIP3    H143561   5.911   2.247  16.995  2.0416 -1.8982 -0.8371
 7382TIP3    H243562   5.897   2.278  17.143 -4.2253  1.3905 -1.7563
 7383TIP3   OH243563   1.609   1.229   5.315  0.8360 -0.2367  0.1714
 7383TIP3    H143564   1.596   1.134   5.310  1.7177 -0.3483 -0.2032
 7383TIP3    H243565   1.699   1.242   5.286  0.3333  0.8264 -1.0352
 7384TIP3   OH243566   0.514   3.522   5.711  0.0816  0.0201 -0.1195
 7384TIP3    H143567   0.496   3.614   5.693 -0.4882 -0.4258 -2.0804
 7384TIP3    H243568   0.429   3.479   5.705  0.2488 -0.5866  1.3616
 7385TIP3   OH243569   4.753   3.892   2.797  0.2107  0.5347 -0.5819
 7385TIP3    H143570   4.663   3.872   2.824  0.3079 -0.7520 -1.1575
 7385TIP3    H243571   4.806   3.826   2.842  0.7164  0.4486 -1.2905
 7386TIP3   OH243572   5.552   0.735  14.681  0.6835  0.0037  0.2971
 7386TIP3    H143573   5.548   0.784  14.763  0.6661 -0.0872  0.3522
 7386TIP3    H243574   5.467   0.750  14.639  0.1572 -1.0326  0.9317
 7387TIP3   OH243575   0.660   5.724   2.113 -0.5336  0.2101 -0.3094
 7387TIP3    H143576   0.660   5.819   2.101 -1.5477  0.6310  2.4422
 7387TIP3    H243577   0.596   5.708   2.182  1.0795 -2.2792  0.7526
 7388TIP3   OH243578   4.781   0.069  16.502  0.5485  0.0791 -0.7800
 7388TIP3    H143579   4.705   0.102  16.550  0.7876 -0.5049  0.0193
 7388TIP3    H243580   4.770   0.105  16.414 -0.8844 -0.3460 -0.8070
 7389TIP3   OH243581   1.624   5.286   1.127 -0.1824  0.7481 -0.0189
 7389TIP3    H143582   1.686   5.356   1.145  0.7797  0.0060 -0.4031
 7389TIP3    H243583   1.577   5.315   1.049  0.8596  0.5427 -0.7291
 7390TIP3   OH243584   4.523   4.689  13.760 -0.0049  0.1924  0.8555
 7390TIP3    H143585   4.519   4.623  13.691  1.7188  1.4857 -0.6170
 7390TIP3    H243586   4.431   4.711  13.778 -0.5387 -1.2582  0.0469
 7391TIP3   OH243587   1.978   5.416  15.494 -0.2967 -0.3227 -0.9517
 7391TIP3    H143588   1.970   5.376  15.580  0.3592  1.0693 -0.2152
 7391TIP3    H243589   1.915   5.368  15.440 -2.9768  0.7108  1.0291
 7392TIP3   OH243590   3.994   0.602  15.913 -1.0269  0.4124 -0.4373
 7392TIP3    H143591   4.068   0.659  15.933 -0.4587 -0.4002 -0.1604
 7392TIP3    H243592   4.004   0.581  15.820 -0.3835 -0.4172 -0.1909
 7393TIP3   OH243593   2.499   3.261  12.901 -0.2199 -0.1176 -0.1243
 7393TIP3    H143594   2.422   3.272  12.957 -0.6035 -0.4583 -0.5756
 7393TIP3    H243595   2.560   3.328  12.931 -1.0259  0.7277 -0.3215
 7394TIP3   OH243596   5.632   3.620   1.901 -0.8012 -0.1362  0.5924
 7394TIP3    H143597   5.619   3.544   1.844 -2.1669  0.7491 -0.3551
 7394TIP3    H243598   5.654   3.691   1.841 -0.3887  0.4118  1.3730
 7395TIP3   OH243599   4.639   1.393  11.957  0.5375  0.1831  0.2314
 7395TIP3    H143600   4.565   1.349  11.999  2.1151 -0.3170  2.6645
 7395TIP3    H243601   4.599   1.468  11.912 -1.5606 -0.6909  0.5079
 7396TIP3   OH243602   6.402   1.053   4.497  0.0085 -0.3324  0.4601
 7396TIP3    H143603   6.474   1.073   4.438  1.2600  0.8588  2.2836
 7396TIP3    H243604   6.338   1.123   4.484  1.3726  1.3260  2.1131
 7397TIP3   OH243605   5.175   3.960   5.117  0.0127 -0.4022 -0.5862
 7397TIP3    H143606   5.086   3.995   5.115  0.4986  0.8553 -1.0088
 7397TIP3    H243607   5.176   3.903   5.194 -1.3721 -1.0631 -1.0162
 7398TIP3   OH243608   6.746   2.175   5.658 -0.0255  0.5766  0.6949
 7398TIP3    H143609   6.799   2.239   5.706  1.0271  0.4158 -0.1945
 7398TIP3    H243610   6.791   2.091   5.673  0.0713  0.4585 -0.1893
 7399TIP3   OH243611   1.569   5.053  13.862  0.1652 -0.2838 -0.4855
 7399TIP3    H143612   1.628   5.128  13.851  0.4325 -0.3131  0.6212
 7399TIP3    H243613   1.626   4.976  13.860  0.5238 -0.2341  2.4555
 7400TIP3   OH243614   0.249   5.662  13.450 -0.3824  0.4850 -0.5512
 7400TIP3    H143615   0.237   5.658  13.355  0.6361  1.8103 -0.7672
 7400TIP3    H243616   0.339   5.695  13.462 -0.8349  1.3298  0.8456
 7401TIP3   OH243617   4.279   3.959   2.748  0.2298  0.1281 -0.0726
 7401TIP3    H143618   4.287   4.042   2.702 -0.3112  0.4034  0.3186
 7401TIP3    H243619   4.207   3.972   2.809 -1.2267 -1.2379 -1.3862
 7402TIP3   OH243620   3.586   4.015  12.697 -0.1814  0.3845 -0.3454
 7402TIP3    H143621   3.637   4.035  12.619  0.0247 -1.2195 -0.6585
 7402TIP3    H243622   3.504   4.063  12.686  0.3548  1.1859 -0.9202
 7403TIP3   OH243623   5.384   0.513   3.257  0.0177 -0.5483  0.3270
 7403TIP3    H143624   5.456   0.575   3.256  0.7466 -1.3751 -0.1563
 7403TIP3    H243625   5.394   0.466   3.340  0.4727 -1.1420 -0.0544
 7404TIP3   OH243626   4.014   5.034  14.860 -0.3313 -0.1050 -0.0452
 7404TIP3    H143627   4.054   5.110  14.816  1.4389 -0.1615  1.3362
 7404TIP3    H243628   4.014   4.965  14.793  1.3826  0.0980 -0.3165
 7405TIP3   OH243629   6.165   5.101  13.244  0.4448  0.8072 -0.5754
 7405TIP3    H143630   6.113   5.028  13.211 -0.5644  1.1810  0.1308
 7405TIP3    H243631   6.251   5.063  13.260 -0.7038 -1.0222  2.3075
 7406TIP3   OH243632   3.541   4.878   5.083  0.4796 -0.3264  0.4701
 7406TIP3    H143633   3.545   4.970   5.054  2.8014 -0.3436  0.5393
 7406TIP3    H243634   3.610   4.871   5.150  0.2748 -2.1036  0.5438
 7407TIP3   OH243635   6.004   4.722  16.157  0.5343  0.1201  0.0136
 7407TIP3    H143636   6.043   4.648  16.204 -2.6145 -0.9242  1.2562
 7407TIP3    H243637   5.977   4.783  16.226 -2.2137 -0.4152 -0.4713
 7408TIP3   OH243638   4.876   2.254   1.939 -0.1612  0.1898  0.0648
 7408TIP3    H143639   4.967   2.251   1.971  0.6093  1.0354 -1.8690
 7408TIP3    H243640   4.885   2.265   1.844 -2.3055  0.3453 -0.1542
 7409TIP3   OH243641   4.823   3.725  11.748 -0.1329  0.3046  0.0893
 7409TIP3    H143642   4.794   3.809  11.713  0.3030  0.3770 -0.0995
 7409TIP3    H243643   4.746   3.689  11.792 -0.7301  0.1464 -1.0520
 7410TIP3   OH243644   5.652   4.194  12.699  0.0004  0.1633 -0.0298
 7410TIP3    H143645   5.746   4.178  12.706 -0.0823 -0.4640 -0.3290
 7410TIP3    H243646   5.622   4.134  12.631 -0.9075 -0.8448  1.1953
 7411TIP3   OH243647   0.274   6.688  13.399 -0.1681  0.2599  0.0300
 7411TIP3    H143648   0.353   6.716  13.446 -1.7736  1.8877  1.9339
 7411TIP3    H243649   0.281   6.728  13.313  0.3677  1.6938  0.7191
 7412TIP3   OH243650   3.715   4.832  11.779  0.4134  0.1441 -0.0526
 7412TIP3    H143651   3.721   4.917  11.823  1.1601 -0.4118  0.9567
 7412TIP3    H243652   3.741   4.768  11.845 -4.7937 -1.4509  0.8597
 7413TIP3   OH243653   5.416   6.585   2.657 -0.1837 -0.1523 -0.4500
 7413TIP3    H143654   5.348   6.572   2.590  0.4070 -2.4461 -0.6879
 7413TIP3    H243655   5.498   6.568   2.611  0.3759  0.1610  0.4173
 7414TIP3   OH243656   5.050   3.169  11.752 -0.1834  0.5182 -0.2900
 7414TIP3    H143657   5.136   3.212  11.751  0.6926 -1.1529 -0.1801
 7414TIP3    H243658   5.024   3.168  11.844 -0.3591  1.0683 -0.3284
 7415TIP3   OH243659   4.620   2.875  15.550  0.7498 -0.2044 -0.5463
 7415TIP3    H143660   4.586   2.965  15.548  0.1420 -0.2684  2.4725
 7415TIP3    H243661   4.542   2.820  15.557  1.1584 -0.9381 -1.5160
 7416TIP3   OH243662   6.334   2.133   0.188  0.1411  0.2292 -0.3296
 7416TIP3    H143663   6.261   2.121   0.248  0.9875 -0.0820  0.6848
 7416TIP3    H243664   6.382   2.050   0.193  0.8826  0.6404 -0.5062
 7417TIP3   OH243665   2.347   0.056   0.731  0.1293  0.6325  0.2964
 7417TIP3    H143666   2.414  -0.000   0.769  0.5846  1.2066  0.3454
 7417TIP3    H243667   2.364   0.143   0.768  1.2566  1.4690 -2.0048
 7418TIP3   OH243668   0.452   5.232   0.761 -0.6821  0.4552 -1.4236
 7418TIP3    H143669   0.470   5.213   0.853 -1.9280  3.7331 -0.3449
 7418TIP3    H243670   0.387   5.303   0.764 -2.0037 -0.4139 -4.8665
 7419TIP3   OH243671   4.142   2.414   3.182  0.0161  0.8385  0.2647
 7419TIP3    H143672   4.105   2.374   3.261 -1.1234 -2.1786 -1.6212
 7419TIP3    H243673   4.161   2.505   3.207  0.0588 -0.0555  4.0568
 7420TIP3   OH243674   6.760   4.463  15.494 -0.5410  0.1400 -0.3164
 7420TIP3    H143675   6.690   4.492  15.436 -1.4900  0.9788  1.1741
 7420TIP3    H243676   6.742   4.370  15.508 -1.1021  0.2467 -0.2951
 7421TIP3   OH243677   4.697   6.391   3.125  0.2599 -0.7645 -0.3975
 7421TIP3    H143678   4.643   6.313   3.140  0.3522 -1.0075 -1.2792
 7421TIP3    H243679   4.782   6.370   3.164  0.2965 -1.1195 -0.6699
 7422TIP3   OH243680   4.936   3.018  14.862 -0.2965  0.7833  0.0735
 7422TIP3    H143681   4.865   3.030  14.798  0.1031 -0.8347 -0.7313
 7422TIP3    H243682   4.997   3.089  14.844 -0.2575  0.4336 -1.2730
 7423TIP3   OH243683   3.819   0.193  12.370 -0.0933  0.0928 -0.5391
 7423TIP3    H143684   3.885   0.155  12.311  0.5474 -0.0160  0.2319
 7423TIP3    H243685   3.754   0.124  12.381  1.3094 -1.0318  1.2428
 7424TIP3   OH243686   6.356   2.533   3.609 -0.2686  0.0244  0.1506
 7424TIP3    H143687   6.314   2.483   3.539 -0.8054  0.6436  0.0134
 7424TIP3    H243688   6.450   2.526   3.592 -0.1220 -3.0781  1.5988
 7425TIP3   OH243689   4.305   1.752  15.992  0.0662  0.2595  0.2824
 7425TIP3    H143690   4.240   1.689  16.025 -0.2956  1.0740  1.2050
 7425TIP3    H243691   4.341   1.711  15.913 -0.8160 -0.6802  0.3429
 7426TIP3   OH243692   4.454   6.765   1.799 -0.3149 -0.2770  0.1641
 7426TIP3    H143693   4.411   6.756   1.713 -1.1318  1.0747  0.4060
 7426TIP3    H243694   4.389   6.810   1.853  0.7829  0.2624  1.0494
 7427TIP3   OH243695   0.576   2.378  16.661 -0.0485 -0.0450  0.6396
 7427TIP3    H143696   0.639   2.334  16.603 -2.1182 -0.6482 -1.3119
 7427TIP3    H243697   0.496   2.384  16.609 -2.7209 -2.3627  4.0588
 7428TIP3   OH243698   3.894   6.403   1.494  1.2213 -0.5202 -0.0549
 7428TIP3    H143699   3.932   6.489   1.510 -0.6260  0.6969 -1.7681
 7428TIP3    H243700   3.948   6.365   1.424  0.5473  0.3708 -1.0941
 7429TIP3   OH243701   4.006   1.662  12.582  0.4454 -0.4676 -0.2113
 7429TIP3    H143702   4.040   1.601  12.647 -0.1852 -2.2481 -1.4800
 7429TIP3    H243703   3.913   1.673  12.605  0.7513  0.7571  0.5316
 7430TIP3   OH243704   1.670   1.837  12.649 -0.1701 -0.5947 -0.1054
 7430TIP3    H143705   1.614   1.765  12.678 -1.8589  0.0448 -1.5974
 7430TIP3    H243706   1.667   1.900  12.720  0.8350 -1.6904  0.9571
 7431TIP3   OH243707   3.243   0.860  17.346  0.3966  0.7208  0.1587
 7431TIP3    H143708   3.275   0.786  17.294  0.9302  0.9910  0.0942
 7431TIP3    H243709   3.254   0.833  17.437  0.8234  0.8142  0.1367
 7432TIP3   OH243710   0.593   4.995   2.118 -0.6802 -0.2291 -0.7104
 7432TIP3    H143711   0.532   4.955   2.055 -0.0681  0.5749 -1.8543
 7432TIP3    H243712   0.644   5.057   2.065  0.9496 -0.6921  0.2574
 7433TIP3   OH243713   6.665   1.024   3.632 -0.0369  0.0840 -0.1266
 7433TIP3    H143714   6.621   0.987   3.708 -1.6925  2.1977  0.0325
 7433TIP3    H243715   6.595   1.040   3.569  0.8615  1.2317 -0.8759
 7434TIP3   OH243716   2.996   4.718   2.797 -0.1259 -0.1438  0.4949
 7434TIP3    H143717   3.024   4.650   2.735  0.3466  1.1940 -0.8279
 7434TIP3    H243718   2.908   4.690   2.824 -0.2573 -0.8964 -0.6128
 7435TIP3   OH243719   0.782   3.358   2.623 -0.4703 -0.3788  0.5930
 7435TIP3    H143720   0.871   3.326   2.610 -0.3613  0.3878 -0.8029
 7435TIP3    H243721   0.728   3.278   2.622  0.0801 -0.7549  0.1510
 7436TIP3   OH243722   4.654   5.065  14.617 -0.4859 -0.8045 -0.1249
 7436TIP3    H143723   4.643   5.103  14.704  0.6621 -0.2498 -0.2040
 7436TIP3    H243724   4.745   5.037  14.614 -0.3693 -0.3807 -1.3197
 7437TIP3   OH243725   4.470   6.580  15.045 -0.0995 -0.1110  0.1138
 7437TIP3    H143726   4.464   6.582  15.140  0.4116 -1.5485  0.1931
 7437TIP3    H243727   4.483   6.672  15.020 -1.6629  0.4836  1.3040
 7438TIP3   OH243728   0.398   0.018  15.534 -0.3979 -0.7039 -0.3055
 7438TIP3    H143729   0.470  -0.020  15.584 -2.2179 -0.4156  2.7583
 7438TIP3    H243730   0.416   0.112  15.535 -0.6431 -0.6617  0.1693
 7439TIP3   OH243731   4.471   6.631  11.680  0.1246  0.0820  0.3219
 7439TIP3    H143732   4.504   6.593  11.598 -0.9009 -0.5591  0.1816
 7439TIP3    H243733   4.548   6.635  11.737  0.2854 -2.4259  0.4112
 7440TIP3   OH243734   6.763   2.427   0.434 -0.0772  0.2217 -0.7390
 7440TIP3    H143735   6.688   2.422   0.375 -0.3320  0.9723 -0.4829
 7440TIP3    H243736   6.726   2.448   0.520 -0.0529 -3.6601  0.4303
 7441TIP3   OH243737   3.425   6.724  10.714 -0.0779 -0.4566 -0.7045
 7441TIP3    H143738   3.456   6.691  10.630  2.4664 -0.7029  0.2216
 7441TIP3    H243739   3.448   6.817  10.712  0.0756 -0.4835 -0.2704
 7442TIP3   OH243740   0.477   6.265  13.439  0.1651  0.1094 -0.5609
 7442TIP3    H143741   0.441   6.182  13.470 -0.8233  0.9742  0.7240
 7442TIP3    H243742   0.405   6.305  13.390  0.7630  0.0623 -1.5099
 7443TIP3   OH243743   3.923   3.088   5.291 -0.1969 -0.7613 -0.2319
 7443TIP3    H143744   3.917   3.060   5.200  2.6807 -0.5203 -0.5908
 7443TIP3    H243745   3.852   3.152   5.301 -0.1566 -0.2587 -2.5251
 7444TIP3   OH243746   4.011   6.029   1.996  0.1263  0.0738  0.7697
 7444TIP3    H143747   3.916   6.041   1.999  0.3543  2.0319  1.5512
 7444TIP3    H243748   4.031   5.972   2.071 -0.5841 -2.1366 -0.6131
 7445TIP3   OH243749   1.921   2.197  15.411 -0.0721  0.0493 -0.7546
 7445TIP3    H143750   2.004   2.162  15.380 -0.2291 -0.3705 -0.7116
 7445TIP3    H243751   1.867   2.205  15.332 -0.0218  0.2367 -0.7707
 7446TIP3   OH243752   0.382   4.834  15.018 -0.0870  0.2319 -0.0696
 7446TIP3    H143753   0.381   4.929  15.020 -0.7021  0.2183  0.8904
 7446TIP3    H243754   0.290   4.808  15.019  0.0752 -0.3710  0.1708
 7447TIP3   OH243755   6.462   1.305   1.732  0.0282 -0.4416 -0.1453
 7447TIP3    H143756   6.498   1.278   1.647 -0.2593 -0.7399 -0.1703
 7447TIP3    H243757   6.502   1.391   1.747  0.6542 -0.7076 -0.2359
 7448TIP3   OH243758   4.617   5.831  13.695 -0.1230  0.0040  1.1388
 7448TIP3    H143759   4.564   5.907  13.669  0.9907  0.1319 -0.9033
 7448TIP3    H243760   4.561   5.755  13.678  0.1969  0.1514 -0.7776
 7449TIP3   OH243761   2.173   4.005  15.819  0.6653 -0.2756  0.1913
 7449TIP3    H143762   2.080   4.013  15.842  0.1972 -1.8016 -0.9791
 7449TIP3    H243763   2.185   4.069  15.749  0.4997 -0.0565  0.3596
 7450TIP3   OH243764   6.199   1.358  11.021 -1.0621  0.2938 -0.2269
 7450TIP3    H143765   6.220   1.451  11.020  0.6688 -0.0717 -0.8819
 7450TIP3    H243766   6.167   1.341  11.109  0.4404  1.1308  0.4995
 7451TIP3   OH243767   1.092   5.017  11.790  0.1026  0.1276 -0.4577
 7451TIP3    H143768   1.005   5.051  11.768  0.1727  0.9594  0.5162
 7451TIP3    H243769   1.076   4.957  11.863 -0.2714 -3.4283 -3.1564
 7452TIP3   OH243770   1.719   2.632   1.210  0.1763  0.1459  0.6376
 7452TIP3    H143771   1.811   2.628   1.235  0.1077 -2.1316  0.7754
 7452TIP3    H243772   1.675   2.675   1.283  1.0706  0.9685  0.7034
 7453TIP3   OH243773   3.645   3.908  17.163  0.4765  0.4375  0.0133
 7453TIP3    H143774   3.637   3.991  17.210 -0.8366 -0.0099  0.6223
 7453TIP3    H243775   3.573   3.909  17.100 -0.4496 -0.8079  0.9872
 7454TIP3   OH243776   4.691   0.000  15.025  0.4086 -0.4798 -0.8313
 7454TIP3    H143777   4.785  -0.019  15.035  0.3929  0.1176  0.7165
 7454TIP3    H243778   4.657  -0.002  15.114 -1.1935 -1.2895 -1.4396
 7455TIP3   OH243779   0.345   2.067  13.901  0.2037 -0.3853 -0.0716
 7455TIP3    H143780   0.408   2.019  13.955 -0.0717  0.4291  1.0061
 7455TIP3    H243781   0.361   2.159  13.922 -0.5398 -0.1101 -0.6912
 7456TIP3   OH243782   2.924   5.984   0.133 -0.0199 -0.1505 -0.6075
 7456TIP3    H143783   2.932   6.076   0.159  0.0020 -0.1864 -0.4836
 7456TIP3    H243784   2.870   5.945   0.202  0.6472 -0.4121 -0.2192
 7457TIP3   OH243785   5.782   0.654   5.282 -0.2357 -0.1503 -0.0544
 7457TIP3    H143786   5.712   0.591   5.265  0.6868 -1.0678 -0.6700
 7457TIP3    H243787   5.797   0.649   5.376  1.0026 -2.2287 -0.3003
 7458TIP3   OH243788   1.110   6.383  11.751 -0.5762  0.1644  0.6714
 7458TIP3    H143789   1.132   6.472  11.780  0.2240  0.5394 -0.9420
 7458TIP3    H243790   1.153   6.375  11.665 -0.4840 -1.8549  0.8690
 7459TIP3   OH243791   0.232   0.818  11.833  0.1122  0.3862 -0.2759
 7459TIP3    H143792   0.159   0.881  11.830 -0.8455 -0.6532  0.3669
 7459TIP3    H243793   0.190   0.734  11.814  1.3839 -0.0669 -1.1962
 7460TIP3   OH243794   2.826   3.054  14.495  0.0049 -0.1768 -0.1618
 7460TIP3    H143795   2.905   3.001  14.501  0.0918 -0.5163 -2.9803
 7460TIP3    H243796   2.758   2.994  14.464 -1.0501  0.3913  0.9806
 7461TIP3   OH243797   3.576   2.201   0.511 -0.2323 -0.5694 -0.1325
 7461TIP3    H143798   3.593   2.132   0.448  1.4519  0.4927 -0.9328
 7461TIP3    H243799   3.643   2.189   0.579  0.0846  0.2370 -0.2827
 7462TIP3   OH243800   6.189   5.036  14.181  0.5746 -0.6458 -0.0358
 7462TIP3    H143801   6.112   5.085  14.209 -0.7015 -1.1319 -2.4170
 7462TIP3    H243802   6.254   5.103  14.159  0.3935 -0.1977  0.7615
 7463TIP3   OH243803   0.868   3.381  14.485  0.3904  0.0526 -0.2543
 7463TIP3    H143804   0.774   3.379  14.465  0.3762 -2.1535 -0.2479
 7463TIP3    H243805   0.872   3.405  14.578 -0.0105  2.0688 -0.7118
 7464TIP3   OH243806   3.312   2.225  13.267  0.7212  0.0946  0.0653
 7464TIP3    H143807   3.220   2.248  13.252  0.6960  1.3242  1.7417
 7464TIP3    H243808   3.361   2.284  13.211  0.5077 -0.0062 -0.2311
 7465TIP3   OH243809   3.963   3.861   4.408  0.3045  0.7259 -0.0036
 7465TIP3    H143810   3.951   3.930   4.473  0.9677 -0.2946  1.2533
 7465TIP3    H243811   4.057   3.844   4.409  0.1934  0.0506 -0.5460
 7466TIP3   OH243812   2.539   5.822   3.435  0.3890  0.0736  0.2662
 7466TIP3    H143813   2.582   5.904   3.410 -0.2231  0.3569  0.1205
 7466TIP3    H243814   2.451   5.829   3.398 -0.1052 -0.0694  1.3959
 7467TIP3   OH243815   1.355   5.682   2.197 -0.7683  0.4432 -0.3330
 7467TIP3    H143816   1.426   5.618   2.193 -0.0590  1.2316 -0.6729
 7467TIP3    H243817   1.337   5.692   2.291 -1.2760 -0.6574 -0.3038
 7468TIP3   OH243818   6.307   2.155   3.136 -0.6122  0.1656 -0.1334
 7468TIP3    H143819   6.366   2.218   3.177 -0.9680  0.8390 -0.6394
 7468TIP3    H243820   6.365   2.087   3.102 -0.0231  1.2255 -1.3472
 7469TIP3   OH243821   6.051   0.490   0.392  0.0114  0.0025 -0.3317
 7469TIP3    H143822   5.975   0.527   0.347 -0.0787  0.3869  0.1340
 7469TIP3    H243823   6.117   0.560   0.390 -0.3770  0.4267  1.1044
 7470TIP3   OH243824   2.649   5.747   4.729  0.5379  0.0950 -0.1135
 7470TIP3    H143825   2.693   5.830   4.710 -0.4499  0.2666 -1.9337
 7470TIP3    H243826   2.668   5.691   4.653 -0.8570 -0.4334 -0.1165
 7471TIP3   OH243827   1.792   3.802   5.638  0.2135  0.2190 -0.1901
 7471TIP3    H143828   1.732   3.834   5.706  0.2350  1.3322 -0.6864
 7471TIP3    H243829   1.748   3.725   5.602  0.6529 -1.0101  1.7472
 7472TIP3   OH243830   3.194   1.547  13.243 -0.2576 -0.1537  0.6343
 7472TIP3    H143831   3.126   1.614  13.236 -0.5955 -0.6493 -1.3168
 7472TIP3    H243832   3.145   1.465  13.252  0.0918 -0.3997  0.3086
 7473TIP3   OH243833   3.177   0.914  10.878 -0.1956 -0.0498  0.3558
 7473TIP3    H143834   3.192   0.834  10.827 -1.2529  0.2476 -0.4407
 7473TIP3    H243835   3.127   0.971  10.819 -0.7243  0.6239  1.4386
 7474TIP3   OH243836   6.254   2.664  14.666 -0.3559 -0.1417 -0.3649
 7474TIP3    H143837   6.306   2.713  14.603  0.2976 -2.1309 -1.4862
 7474TIP3    H243838   6.185   2.724  14.693  1.0470  1.7216 -0.7814
 7475TIP3   OH243839   0.835   0.851   4.863 -0.0376 -0.2769 -0.4681
 7475TIP3    H143840   0.902   0.869   4.928 -0.0614  2.6303 -1.1301
 7475TIP3    H243841   0.758   0.900   4.892 -1.7554 -2.9181 -0.1279
 7476TIP3   OH243842   2.291   0.763  13.730  0.3141 -0.3255 -0.6464
 7476TIP3    H143843   2.247   0.734  13.810  0.9292  1.0108  0.2116
 7476TIP3    H243844   2.221   0.766  13.664 -0.0212 -2.3053 -0.4212
 7477TIP3   OH243845   2.509   0.886   0.970 -0.5926  1.1103  0.1647
 7477TIP3    H143846   2.431   0.877   0.916 -0.3435 -1.0549  0.0912
 7477TIP3    H243847   2.488   0.838   1.050  0.9790 -0.3562 -0.2578
 7478TIP3   OH243848   3.897   3.102   6.436  0.0607 -0.3687 -0.3461
 7478TIP3    H143849   3.936   3.091   6.349 -0.2431 -0.5618 -0.4607
 7478TIP3    H243850   3.807   3.070   6.426  0.1623 -0.8240  0.1542
 7479TIP3   OH243851   6.222   3.593   5.724 -0.0014  0.4149  0.1688
 7479TIP3    H143852   6.158   3.526   5.749  0.7452  0.2054  1.6242
 7479TIP3    H243853   6.168   3.669   5.700 -0.8252  0.1022  0.9390
 7480TIP3   OH243854   6.536   3.148  16.949 -0.0615 -0.0916 -0.5303
 7480TIP3    H143855   6.599   3.117  16.883  0.0473 -1.1939  0.0551
 7480TIP3    H243856   6.577   3.226  16.986  0.2402  0.0885 -1.2312
 7481TIP3   OH243857   3.212   2.781  13.037  0.2363 -0.2730  0.0708
 7481TIP3    H143858   3.286   2.722  13.022  0.2340 -0.1112 -0.6142
 7481TIP3    H243859   3.154   2.733  13.095  1.2189 -0.1205  1.2301
 7482TIP3   OH243860   2.025   3.957   6.093  0.1875  0.5457 -0.1000
 7482TIP3    H143861   2.104   3.930   6.046 -0.6785 -0.4789 -1.0421
 7482TIP3    H243862   1.972   4.000   6.027 -0.7592 -0.2875  0.1008
 7483TIP3   OH243863   5.417   1.743   5.299  0.0000 -0.2369 -0.4090
 7483TIP3    H143864   5.435   1.748   5.205  0.9820 -3.2531 -0.4938
 7483TIP3    H243865   5.332   1.700   5.305 -0.5951  0.9611  0.1250
 7484TIP3   OH243866   5.891   3.058  11.562  0.1307  0.3616  0.1672
 7484TIP3    H143867   5.924   3.089  11.646  0.1142  0.2757  0.2053
 7484TIP3    H243868   5.913   3.129  11.501  0.1530  0.4188  0.2412
 7485TIP3   OH243869   2.113   5.741  13.699  0.0324 -0.1693 -0.4039
 7485TIP3    H143870   2.101   5.834  13.719 -0.3587 -0.6377  1.8279
 7485TIP3    H243871   2.161   5.740  13.616 -1.3684  1.9823 -1.3212
 7486TIP3   OH243872   5.282   6.620  13.003 -0.1106  0.1310 -0.5822
 7486TIP3    H143873   5.229   6.665  13.069  2.5304  2.0575  0.3862
 7486TIP3    H243874   5.353   6.579  13.053  0.8647 -0.0243 -2.0373
 7487TIP3   OH243875   4.481   2.119  17.136 -0.0819  0.6042 -0.7531
 7487TIP3    H143876   4.502   2.040  17.087 -1.2323 -0.4588  0.3827
 7487TIP3    H243877   4.438   2.087  17.216 -1.1259  2.3924 -0.5340
 7488TIP3   OH243878   3.264   3.429   4.021  0.0888  0.1179 -0.5414
 7488TIP3    H143879   3.305   3.395   4.101 -0.7134  0.2067 -0.0815
 7488TIP3    H243880   3.277   3.523   4.026  2.4812 -0.0328 -1.9108
 7489TIP3   OH243881   5.429   4.285   4.872 -0.0786 -0.3671  0.0765
 7489TIP3    H143882   5.486   4.288   4.949 -0.4224  0.7158  0.3049
 7489TIP3    H243883   5.382   4.368   4.873  0.3273 -0.0687 -1.6260
 7490TIP3   OH243884   5.434   2.324  15.025  0.0950 -0.5086 -0.3818
 7490TIP3    H143885   5.339   2.322  15.012  0.0983  0.6190 -0.6948
 7490TIP3    H243886   5.460   2.232  15.028 -1.0668 -0.8431  0.1857
 7491TIP3   OH243887   0.488   4.332  12.125  0.2757 -0.4079  0.1334
 7491TIP3    H143888   0.554   4.345  12.057  1.2029  1.0287  1.2656
 7491TIP3    H243889   0.405   4.351  12.080  0.9433  1.4914 -0.3953
 7492TIP3   OH243890   5.931   0.494   3.777 -0.3367  0.1739  0.2220
 7492TIP3    H143891   6.020   0.524   3.757 -0.1775 -0.3010  0.2154
 7492TIP3    H243892   5.929   0.486   3.873  0.5927 -2.7051  0.0947
 7493TIP3   OH243893   2.827   5.166   2.618 -0.3353  0.2351  0.2890
 7493TIP3    H143894   2.774   5.244   2.604  0.6424  1.0397  0.9515
 7493TIP3    H243895   2.843   5.132   2.530 -0.8207  0.7353  0.0040
 7494TIP3   OH243896   0.833   5.809  12.923 -0.0655  0.3575  0.0343
 7494TIP3    H143897   0.747   5.850  12.910 -0.2120 -0.0040 -0.1433
 7494TIP3    H243898   0.894   5.866  12.877 -0.4234 -0.2678 -1.2508
 7495TIP3   OH243899   1.385   5.202  13.207 -0.3286  0.3458 -0.2934
 7495TIP3    H143900   1.385   5.262  13.132  0.3800  1.2665  0.4211
 7495TIP3    H243901   1.451   5.136  13.185 -0.1489  0.5908 -0.4939
 7496TIP3   OH243902   1.971   2.221   6.132  0.1164  0.0826 -0.4106
 7496TIP3    H143903   1.923   2.271   6.198  0.2018 -1.1362  0.6074
 7496TIP3    H243904   1.939   2.131   6.142  0.8785 -0.3102 -1.3497
 7497TIP3   OH243905   6.182   1.161  11.578 -0.7364 -0.0041  0.7915
 7497TIP3    H143906   6.111   1.198  11.630 -1.8867 -1.1670  0.0976
 7497TIP3    H243907   6.233   1.109  11.640 -1.1604 -0.0783  1.0807
 7498TIP3   OH243908   0.451   2.016   5.171  0.5328 -0.3266  0.5473
 7498TIP3    H143909   0.518   2.081   5.191  2.3547 -1.0548 -2.6088
 7498TIP3    H243910   0.482   1.935   5.211  0.4402 -0.2305  0.8220
 7499TIP3   OH243911   1.285   0.151   3.355  1.0815 -0.4015 -0.2456
 7499TIP3    H143912   1.235   0.075   3.325 -2.7134  1.6491  0.2239
 7499TIP3    H243913   1.281   0.146   3.450  0.0389  0.7413 -0.1996
 7500TIP3   OH243914   2.106   4.273  15.679  0.5286  0.3585 -0.6215
 7500TIP3    H143915   2.178   4.333  15.659  1.8526 -1.1740 -0.5713
 7500TIP3    H243916   2.032   4.309  15.630  0.4828  3.5655  1.4572
 7501TIP3   OH243917   6.127   0.915  17.214 -0.1928 -0.7697  0.3039
 7501TIP3    H143918   6.093   0.950  17.131 -2.7527 -0.6069  1.3338
 7501TIP3    H243919   6.090   0.972  17.281 -0.2386 -2.3918  1.7217
 7502TIP3   OH243920   0.090   5.009  16.404  1.0173 -0.1091 -0.3748
 7502TIP3    H143921   0.138   5.050  16.476  1.7367 -1.0484 -0.3103
 7502TIP3    H243922   0.058   5.083  16.352 -0.7098  0.6483  1.6322
 7503TIP3   OH243923   0.436   0.132   4.445 -0.0641  0.6985  0.2116
 7503TIP3    H143924   0.429   0.124   4.540  0.7994 -1.1602  0.1772
 7503TIP3    H243925   0.351   0.163   4.417 -0.0841  2.0727  1.6490
 7504TIP3   OH243926   4.167   0.810  16.005  0.2269 -0.0235  0.0350
 7504TIP3    H143927   4.091   0.862  16.029  0.0809 -0.0434 -0.3705
 7504TIP3    H243928   4.210   0.861  15.936  0.8346  0.2060  0.5781
 7505TIP3   OH243929   5.079   4.728  15.315 -0.4853  0.6553 -0.0014
 7505TIP3    H143930   5.038   4.807  15.350 -3.3186 -0.7651  0.1560
 7505TIP3    H243931   5.067   4.734  15.220  2.3029  1.8827 -0.3936
 7506TIP3   OH243932   6.159   6.060   0.305 -0.6906  0.8976 -0.5161
 7506TIP3    H143933   6.115   6.071   0.220 -0.2932 -1.6511 -1.1558
 7506TIP3    H243934   6.137   5.970   0.331  0.2922  1.1870  1.4483
 7507TIP3   OH243935   2.963   2.058   2.115  0.0598  0.9278 -0.3346
 7507TIP3    H143936   2.998   1.974   2.083 -2.0341  0.1799 -0.8479
 7507TIP3    H243937   2.968   2.051   2.211  0.8370  0.6575 -0.3860
 7508TIP3   OH243938   4.693   0.300   2.537  0.5378 -0.6634  0.4109
 7508TIP3    H143939   4.718   0.272   2.625  0.2871 -0.4536  0.5487
 7508TIP3    H243940   4.669   0.219   2.492 -1.7226 -0.5509  1.2960
 7509TIP3   OH243941   5.297   0.431   1.588  0.1227  0.5753  0.6440
 7509TIP3    H143942   5.333   0.349   1.553  0.1141  1.0318 -0.4555
 7509TIP3    H243943   5.300   0.419   1.683  0.6231 -0.4857  0.5129
 7510TIP3   OH243944   5.572   3.110  16.424  0.0040 -0.0198  0.5754
 7510TIP3    H143945   5.618   3.074  16.500  0.9097  0.2491  0.1674
 7510TIP3    H243946   5.627   3.183  16.395 -1.1242  0.8900  0.5990
 7511TIP3   OH243947   3.190   2.494   4.186 -0.5682  0.2750 -0.0374
 7511TIP3    H143948   3.267   2.508   4.131  0.3790 -0.3520  1.0866
 7511TIP3    H243949   3.180   2.399   4.191  0.6058  0.2187  2.4832
 7512TIP3   OH243950   1.179   1.386   2.655  0.4100  0.7618 -0.0475
 7512TIP3    H143951   1.263   1.389   2.610 -0.3895  0.9716 -1.5974
 7512TIP3    H243952   1.132   1.462   2.623 -0.8143  0.0103 -0.1037
 7513TIP3   OH243953   0.170   0.151   1.365 -0.1839 -0.2627  0.0934
 7513TIP3    H143954   0.175   0.055   1.364 -1.2157 -0.3500 -1.5407
 7513TIP3    H243955   0.254   0.180   1.330  0.1305 -0.5606  0.5888
 7514TIP3   OH243956   1.727   2.793   6.069  0.3766  0.1671  0.3652
 7514TIP3    H143957   1.748   2.708   6.031  0.9377  0.0741  0.8700
 7514TIP3    H243958   1.807   2.820   6.113 -0.1348  0.4464  1.1523
 7515TIP3   OH243959   0.237   3.804  15.494  0.0498  0.4499 -0.1476
 7515TIP3    H143960   0.267   3.842  15.577  1.4880  2.1731 -1.3726
 7515TIP3    H243961   0.318   3.791  15.444 -0.9446  4.2386 -3.2052
 7516TIP3   OH243962   2.813   6.007  16.032  0.3800 -0.4243 -0.3577
 7516TIP3    H143963   2.751   6.021  15.960  0.5449 -0.0688 -0.4327
 7516TIP3    H243964   2.760   5.970  16.103  0.0230  0.1560 -0.3160
 7517TIP3   OH243965   0.103   2.074  11.221  0.3896  0.0803  0.4284
 7517TIP3    H143966   0.025   2.112  11.181  1.6832  2.3226 -0.1857
 7517TIP3    H243967   0.126   2.000  11.164  0.7850  1.7027 -1.6890
 7518TIP3   OH243968   4.606   6.620   1.299  0.3054  0.1258  0.0850
 7518TIP3    H143969   4.648   6.538   1.271 -1.5024 -0.9046  0.2527
 7518TIP3    H243970   4.532   6.630   1.240 -0.1199  1.0709  0.7620
 7519TIP3   OH243971   0.034   4.188  10.912  0.4675  0.2500 -0.3758
 7519TIP3    H143972  -0.042   4.226  10.867  1.5147  0.2892 -2.2022
 7519TIP3    H243973   0.106   4.247  10.891  1.3590 -0.7246 -0.1243
 7520TIP3   OH243974   4.743   1.343  13.736  0.6992 -0.5108  0.0178
 7520TIP3    H143975   4.782   1.416  13.784 -0.9818 -0.7362  1.8910
 7520TIP3    H243976   4.802   1.269  13.754  0.8238 -0.2739  0.6100
 7521TIP3   OH243977   0.622   1.473   3.043 -0.2907  0.8303 -0.2131
 7521TIP3    H143978   0.544   1.516   3.007  0.3255  3.1443  1.0074
 7521TIP3    H243979   0.623   1.499   3.135  1.8532  0.7895 -0.1777
 7522TIP3   OH243980   1.306   6.371  13.761 -0.3393 -0.3861 -0.2628
 7522TIP3    H143981   1.338   6.369  13.851 -1.2710 -0.0313  0.0910
 7522TIP3    H243982   1.283   6.280  13.741  2.1743 -0.9395 -1.0422
 7523TIP3   OH243983   4.237   1.016  15.154  0.5616  0.1302  0.0201
 7523TIP3    H143984   4.236   1.034  15.060 -1.7436  0.3904  0.0449
 7523TIP3    H243985   4.302   0.947  15.165  1.7244  0.9187 -1.5751
 7524TIP3   OH243986   5.458   1.281  15.411 -0.2075 -0.2639  0.0030
 7524TIP3    H143987   5.417   1.196  15.424  2.4298 -1.2593  3.0478
 7524TIP3    H243988   5.460   1.321  15.498  0.9538  1.8006 -0.8843
 7525TIP3   OH243989   5.847   0.387   1.768 -0.5771 -0.1107 -0.2107
 7525TIP3    H143990   5.799   0.404   1.687 -2.0977 -0.7322  0.5299
 7525TIP3    H243991   5.779   0.376   1.834  0.6307  0.0075  1.0881
 7526TIP3   OH243992   4.112   0.058   4.133  0.6215 -0.5702  0.3209
 7526TIP3    H143993   4.023   0.025   4.118  0.1836  0.7729 -0.2442
 7526TIP3    H243994   4.146   0.076   4.046  0.3660  1.5422  0.5926
 7527TIP3   OH243995   6.068   2.898   1.382  0.2513  0.1737 -0.5115
 7527TIP3    H143996   6.155   2.925   1.411  0.5672  0.5169 -1.6980
 7527TIP3    H243997   6.014   2.976   1.389 -0.5091 -0.4968  2.0623
 7528TIP3   OH243998   3.948   6.370   3.303  0.2503  0.0896 -0.5259
 7528TIP3    H143999   4.023   6.424   3.282  0.3454  0.2258  0.1254
 7528TIP3    H244000   3.879   6.399   3.244 -0.0066  1.6344  0.4740
 7529TIP3   OH244001   4.822   5.345  15.892  0.2135  0.6038 -0.1382
 7529TIP3    H144002   4.771   5.410  15.844  2.0680  2.6075  0.4028
 7529TIP3    H244003   4.861   5.395  15.965  1.9916 -1.0390  0.1247
 7530TIP3   OH244004   3.710   4.916  15.108 -0.5584  0.3347 -0.6252
 7530TIP3    H144005   3.621   4.881  15.117 -0.9932  1.3799 -0.7763
 7530TIP3    H244006   3.707   5.002  15.150  0.6532 -0.0245  0.2578
 7531TIP3   OH244007   3.449   4.275   4.987  0.3170  0.1239  0.2054
 7531TIP3    H144008   3.440   4.369   5.000 -1.4078  0.0558 -0.1717
 7531TIP3    H244009   3.496   4.266   4.904  1.7073  0.6119  0.9098
 7532TIP3   OH244010   6.044   4.303  13.757 -0.4829 -0.1463  0.1743
 7532TIP3    H144011   6.076   4.332  13.843 -1.2837  0.4077  0.3001
 7532TIP3    H244012   6.094   4.223  13.738 -0.4374 -0.3814  1.2378
 7533TIP3   OH244013   6.064   3.796   0.836  0.5532  1.0285  0.0320
 7533TIP3    H144014   6.089   3.739   0.764  1.7300  1.9977 -0.3504
 7533TIP3    H244015   6.032   3.736   0.904 -0.2659  0.0888 -1.1574
 7534TIP3   OH244016   4.084   3.620  16.677  0.4691 -0.0924 -0.7395
 7534TIP3    H144017   4.110   3.704  16.714  1.9003 -0.6932 -0.2943
 7534TIP3    H244018   4.006   3.594  16.727  1.1926  0.0502  0.5041
 7535TIP3   OH244019   6.183   0.012  17.028 -0.0564 -0.2977  0.0337
 7535TIP3    H144020   6.251  -0.025  17.084  1.1006  0.1530 -1.0206
 7535TIP3    H244021   6.163  -0.059  16.966 -1.0658 -0.6696  0.7677
 7536TIP3   OH244022   4.056   5.786   0.429  0.9934  0.1132 -0.3750
 7536TIP3    H144023   4.047   5.866   0.378 -0.9005  0.6892  0.7592
 7536TIP3    H244024   3.969   5.748   0.430  1.5196 -1.1372  0.4420
 7537TIP3   OH244025   6.502   2.932   2.042  0.0597  0.0459 -0.5025
 7537TIP3    H144026   6.464   3.008   2.085  0.1394  0.8258 -1.7514
 7537TIP3    H244027   6.500   2.954   1.949  1.3091 -0.9264 -0.7811
 7538TIP3   OH244028   1.175   5.253  17.068  0.1665 -0.7373 -0.0164
 7538TIP3    H144029   1.090   5.226  17.033  0.5009 -0.0937 -1.4049
 7538TIP3    H244030   1.236   5.185  17.040  0.8125  0.7342 -2.6098
 7539TIP3   OH244031   3.894   1.454   3.435 -0.3861 -0.3169 -0.2128
 7539TIP3    H144032   3.825   1.480   3.374 -0.7352 -0.2257  0.2197
 7539TIP3    H244033   3.847   1.421   3.512  0.0478  0.0393  0.2091
 7540TIP3   OH244034   3.829   4.221  12.835 -0.5317 -0.1975 -0.3882
 7540TIP3    H144035   3.791   4.142  12.872 -2.6432  0.2525 -1.4246
 7540TIP3    H244036   3.857   4.196  12.747  0.3017 -0.1648 -0.1433
 7541TIP3   OH244037   3.450   2.815   0.296 -0.0413 -0.2950  0.9786
 7541TIP3    H144038   3.380   2.802   0.232  0.6610 -1.5158  0.4240
 7541TIP3    H244039   3.435   2.746   0.361  0.8175 -0.7862  0.6773
 7542TIP3   OH244040   2.257   1.249  16.568 -0.1501  0.3121 -0.8328
 7542TIP3    H144041   2.182   1.251  16.509  0.0578  2.0030 -1.1031
 7542TIP3    H244042   2.305   1.329  16.548  1.3672 -0.3952 -0.1838
 7543TIP3   OH244043   4.061   5.828   3.831  0.3551  0.0500  0.3177
 7543TIP3    H144044   4.123   5.869   3.891  0.5588  1.0252 -0.5292
 7543TIP3    H244045   4.076   5.872   3.747  0.6530 -1.8434 -0.6765
 7544TIP3   OH244046   5.986   5.453  15.382 -0.4035 -0.2420  0.0575
 7544TIP3    H144047   6.032   5.404  15.450 -0.6210 -2.9064 -1.6149
 7544TIP3    H244048   5.907   5.403  15.365 -1.0572  1.1386 -1.2074
 7545TIP3   OH244049   0.241   4.235  13.512 -0.3395  0.2484 -0.6220
 7545TIP3    H144050   0.197   4.151  13.523  0.5217 -0.7073 -3.3523
 7545TIP3    H244051   0.319   4.229  13.567 -0.7765 -0.3339 -0.0567
 7546TIP3   OH244052   2.611   4.420  13.534  0.9957  0.1149 -0.5443
 7546TIP3    H144053   2.554   4.388  13.605  0.2109 -0.3293 -1.3526
 7546TIP3    H244054   2.599   4.357  13.464  1.1284  0.9933 -1.3775
 7547TIP3   OH244055   3.389   5.186  10.888 -0.6712  0.0303  0.3513
 7547TIP3    H144056   3.345   5.143  10.814 -0.8470 -0.9212  0.9858
 7547TIP3    H244057   3.364   5.278  10.882 -1.2435 -0.1664 -0.3662
 7548TIP3   OH244058   4.894   5.938   1.523  0.4539 -0.2243  0.3733
 7548TIP3    H144059   4.840   5.905   1.595  0.4311  0.6455  0.7669
 7548TIP3    H244060   4.928   6.022   1.555  0.7370 -0.0013 -0.4863
 7549TIP3   OH244061   3.981   0.290   2.510  0.1717 -0.8980  0.0213
 7549TIP3    H144062   4.037   0.313   2.435 -1.0806 -0.1335 -0.7254
 7549TIP3    H244063   3.903   0.252   2.470 -1.2342  1.0306  0.7986
 7550TIP3   OH244064   5.756   6.688   5.155 -0.2840  0.7394 -0.2667
 7550TIP3    H144065   5.825   6.717   5.215 -0.9135 -1.3193  1.5976
 7550TIP3    H244066   5.706   6.624   5.206 -3.0962  1.5522 -1.8044
 7551TIP3   OH244067   1.203   6.640   5.102 -0.3600  0.3911  1.0534
 7551TIP3    H144068   1.167   6.695   5.172  0.3627  0.2232  1.5773
 7551TIP3    H244069   1.293   6.624   5.129  0.5893  1.9703 -0.9241
 7552TIP3   OH244070   0.017   0.468  15.885  0.3719 -0.0400 -0.0078
 7552TIP3    H144071  -0.023   0.418  15.814  0.1972  0.0564  0.0222
 7552TIP3    H244072   0.041   0.552  15.846 -0.6199  0.3936  0.2734
 7553TIP3   OH244073   3.000   5.724   0.401  0.0909 -0.1272  0.2149
 7553TIP3    H144074   2.950   5.642   0.404 -1.9210  1.0593  1.9958
 7553TIP3    H244075   2.934   5.793   0.395  1.7038  1.4278 -0.7836
 7554TIP3   OH244076   0.147   5.515   1.895 -0.4261 -0.6604  0.2569
 7554TIP3    H144077   0.165   5.517   1.988 -1.2393  1.2230  0.4208
 7554TIP3    H244078   0.056   5.543   1.887 -0.1625 -0.0952 -1.1427
 7555TIP3   OH244079   3.232   1.273  16.667  0.0381 -0.0910  0.4294
 7555TIP3    H144080   3.256   1.366  16.670  1.6091 -0.5014  1.5850
 7555TIP3    H244081   3.242   1.249  16.575  0.7846  0.5976  0.3200
 7556TIP3   OH244082   2.841   1.402  13.964 -0.3499 -0.1401  0.4543
 7556TIP3    H144083   2.802   1.474  13.915 -0.2916  0.6416  1.5295
 7556TIP3    H244084   2.934   1.406  13.942 -0.5964 -1.0535 -0.9091
 7557TIP3   OH244085   2.951   1.781   4.790 -0.4050  0.0689 -0.3168
 7557TIP3    H144086   2.962   1.817   4.703 -1.6610 -0.8084 -0.8751
 7557TIP3    H244087   3.039   1.760   4.820 -0.0742 -1.6171 -2.2740
 7558TIP3   OH244088   5.336   1.108   2.430  0.0247  0.0887 -0.5119
 7558TIP3    H144089   5.300   1.154   2.506 -0.6035 -0.3291 -0.5481
 7558TIP3    H244090   5.282   1.030   2.422  0.9608 -0.5683 -0.5591
 7559TIP3   OH244091   4.218   2.714  13.244  0.5176  0.1738 -0.1838
 7559TIP3    H144092   4.262   2.798  13.255  0.4366  0.2630 -0.5424
 7559TIP3    H244093   4.277   2.662  13.190  2.8290 -1.6817  3.7069
 7560TIP3   OH244094   4.490   5.322  13.812  0.0238 -0.7805  0.2083
 7560TIP3    H144095   4.578   5.329  13.774  0.2281 -0.4935  0.7304
 7560TIP3    H244096   4.500   5.263  13.886  0.2788  1.0393  1.7078
 7561TIP3   OH244097   1.147   0.427  13.402 -0.0406 -0.1119  0.1127
 7561TIP3    H144098   1.062   0.469  13.418  0.2631 -0.4410  3.3525
 7561TIP3    H244099   1.136   0.381  13.319 -2.4360  1.2588 -0.4250
 7562TIP3   OH244100   2.277   5.048   5.381 -0.7327 -0.2315  0.2781
 7562TIP3    H144101   2.282   5.126   5.326  0.5700 -0.5105 -0.0147
 7562TIP3    H244102   2.188   5.015   5.367 -0.7034  0.1780 -0.9977
 7563TIP3   OH244103   2.922   4.572  15.880  0.0336 -1.1531  0.0524
 7563TIP3    H144104   2.877   4.542  15.801 -0.5416  0.6908 -0.3853
 7563TIP3    H244105   2.990   4.631  15.847 -0.8266  0.4003  0.9224
 7564TIP3   OH244106   1.409   3.093   4.820 -0.2031 -0.3259  0.1383
 7564TIP3    H144107   1.371   3.005   4.825  3.0202 -1.9783 -1.3381
 7564TIP3    H244108   1.480   3.092   4.884  0.0106  1.1267 -0.0475
 7565TIP3   OH244109   4.432   4.881  10.850 -0.4294 -0.2488  0.5315
 7565TIP3    H144110   4.337   4.892  10.863 -0.6279 -0.5139 -0.6137
 7565TIP3    H244111   4.463   4.969  10.827 -0.0816  0.2156  2.5292
 7566TIP3   OH244112   1.567   1.902  15.200 -0.4471 -0.3797  0.4713
 7566TIP3    H144113   1.616   1.868  15.275  0.9096  1.3206  0.4222
 7566TIP3    H244114   1.476   1.880  15.218  0.0391 -1.3842  1.8367
 7567TIP3   OH244115   2.752   1.963  15.425  0.7228  0.4133  0.4238
 7567TIP3    H144116   2.721   2.031  15.366 -0.6436 -0.0187  0.6158
 7567TIP3    H244117   2.819   1.916  15.375 -1.2330 -0.7091 -1.2636
 7568TIP3   OH244118   0.817   1.332  12.289  0.4008 -0.4982  0.0911
 7568TIP3    H144119   0.726   1.307  12.274  0.1011  0.7453 -0.2899
 7568TIP3    H244120   0.867   1.254  12.266 -0.3695 -0.2777 -2.7487
 7569TIP3   OH244121   3.155   3.919   2.465  0.3654 -0.4441  0.0095
 7569TIP3    H144122   3.232   3.917   2.522  0.3165 -3.4869  0.1594
 7569TIP3    H244123   3.085   3.878   2.516 -1.0099  1.0085 -0.6138
 7570TIP3   OH244124   5.246   4.644  13.272 -0.6774  0.2614 -0.0295
 7570TIP3    H144125   5.280   4.674  13.187  0.4620 -1.5152 -0.2683
 7570TIP3    H244126   5.292   4.698  13.336 -0.0256  0.2595 -0.4833
 7571TIP3   OH244127   5.925   2.291   3.173 -0.5611  0.2301 -0.0058
 7571TIP3    H144128   6.002   2.318   3.122 -0.7130  0.3325 -0.1803
 7571TIP3    H244129   5.901   2.368   3.223 -0.4178  0.1323  0.2166
 7572TIP3   OH244130   4.899   5.506   1.587  0.4969  0.3010 -1.0655
 7572TIP3    H144131   4.985   5.521   1.548  0.3869  2.0103 -0.7102
 7572TIP3    H244132   4.918   5.470   1.673  0.9166  1.8564 -0.4868
 7573TIP3   OH244133   3.514   6.346   3.982  0.1105  0.1949  0.7577
 7573TIP3    H144134   3.421   6.327   3.967 -0.0312  0.4226  1.3313
 7573TIP3    H244135   3.522   6.357   4.077  0.8020 -0.2207  0.7580
 7574TIP3   OH244136   0.010   2.348  13.138 -0.0795  0.0382 -0.1279
 7574TIP3    H144137   0.028   2.423  13.195 -0.0572 -1.1430  1.4968
 7574TIP3    H244138  -0.084   2.331  13.150 -0.3751  0.5945 -1.5149
 7575TIP3   OH244139   2.280   6.710   1.782  0.5609  0.1356 -0.2279
 7575TIP3    H144140   2.297   6.773   1.852  1.3744 -1.2042  0.8323
 7575TIP3    H244141   2.294   6.760   1.701  2.8288  0.9465  0.5783
 7576TIP3   OH244142   1.768   4.619   0.190 -0.3919  0.1196 -0.0959
 7576TIP3    H144143   1.779   4.576   0.105  1.4625 -2.2916  1.2326
 7576TIP3    H244144   1.715   4.558   0.241  1.3940 -0.1894  1.5060
 7577TIP3   OH244145   4.716   3.793  13.158  0.3078  0.0470  0.4073
 7577TIP3    H144146   4.776   3.802  13.232 -1.1301  2.6130  1.3643
 7577TIP3    H244147   4.664   3.715  13.178  0.7677 -0.0107  1.4504
 7578TIP3   OH244148   2.605   3.256   4.124 -0.2090  0.3818  0.5788
 7578TIP3    H144149   2.587   3.279   4.033 -1.1061  2.0315  1.1368
 7578TIP3    H244150   2.662   3.326   4.156  0.0308 -0.1311  1.3032
 7579TIP3   OH244151   2.292   3.572   0.660  0.1637 -0.1511 -0.4171
 7579TIP3    H144152   2.275   3.541   0.571  1.2096  2.2877 -1.5708
 7579TIP3    H244153   2.373   3.529   0.686 -0.3235 -1.1368 -0.4840
 7580TIP3   OH244154   2.861   3.914   3.234 -0.0882 -0.9088 -0.4122
 7580TIP3    H144155   2.806   3.949   3.164 -0.2778  0.8479  0.5717
 7580TIP3    H244156   2.798   3.884   3.301  0.1087 -1.8060 -0.6158
 7581TIP3   OH244157   0.938   3.843  15.039  0.6309  0.1280 -0.2589
 7581TIP3    H144158   1.018   3.841  14.986 -0.2974 -1.3117 -1.6993
 7581TIP3    H244159   0.889   3.766  15.012 -0.2490 -0.2861  2.2242
 7582TIP3   OH244160   4.305   1.031  12.250  0.3538 -0.7438  0.0791
 7582TIP3    H144161   4.332   0.980  12.326 -0.8186 -0.9285  0.3787
 7582TIP3    H244162   4.234   1.087  12.281  1.3080  0.7756 -0.3527
 7583TIP3   OH244163   5.994   5.413   3.353 -0.4663 -0.1553  0.4645
 7583TIP3    H144164   6.050   5.399   3.430 -0.3793  0.6661  0.5683
 7583TIP3    H244165   6.017   5.342   3.293  0.4741 -0.0075  0.6317
 7584TIP3   OH244166   0.661   1.443  11.866 -0.2918  0.0667  0.2118
 7584TIP3    H144167   0.583   1.389  11.880 -1.9614  2.4843  0.9792
 7584TIP3    H244168   0.683   1.430  11.774 -0.4361 -2.0662  0.4335
 7585TIP3   OH244169   2.451   5.617  12.215 -0.7691 -0.0055  0.3366
 7585TIP3    H144170   2.357   5.618  12.195 -0.4748  1.1262 -1.1881
 7585TIP3    H244171   2.476   5.709  12.216  0.3535 -0.3019  0.5746
 7586TIP3   OH244172   4.270   5.102  11.795 -0.2484  0.1441  0.1914
 7586TIP3    H144173   4.297   5.039  11.862  1.2618 -0.2184 -0.7236
 7586TIP3    H244174   4.246   5.180  11.845  0.7062 -0.1655  1.1754
 7587TIP3   OH244175   6.514   0.624  15.619 -0.1700  0.2231  0.1040
 7587TIP3    H144176   6.430   0.603  15.661 -0.4997 -1.0629 -1.1236
 7587TIP3    H244177   6.541   0.707  15.659 -0.8944 -0.4881  2.1613
 7588TIP3   OH244178   2.957   5.862  14.483 -0.3887 -0.0740  0.2780
 7588TIP3    H144179   2.949   5.803  14.558 -0.8387 -0.9854 -0.4598
 7588TIP3    H244180   3.050   5.884  14.478 -0.3648  0.0250  1.1139
 7589TIP3   OH244181   0.581   5.473  12.445 -1.3664 -0.2714 -0.2134
 7589TIP3    H144182   0.610   5.401  12.389 -3.3148 -1.4517  0.2080
 7589TIP3    H244183   0.497   5.500  12.408 -1.0452  1.2797  0.1209
 7590TIP3   OH244184   0.323   5.487  17.298 -0.3830 -0.0884  0.0713
 7590TIP3    H144185   0.313   5.462  17.206  0.5542  2.1665 -0.6961
 7590TIP3    H244186   0.234   5.495  17.331 -0.8200  1.7693 -1.4438
 7591TIP3   OH244187   2.922   5.230  10.503 -0.4992 -0.1676  0.3290
 7591TIP3    H144188   2.976   5.308  10.486 -0.1212 -0.6609 -0.8515
 7591TIP3    H244189   2.958   5.194  10.584 -0.9327  1.0780  1.1120
 7592TIP3   OH244190   5.361   4.060   1.508 -0.3723  0.0789  0.3675
 7592TIP3    H144191   5.411   4.138   1.534 -0.4695  0.3932 -0.3699
 7592TIP3    H244192   5.387   4.043   1.417  0.3624 -1.3174  0.8052
 7593TIP3   OH244193   4.356   2.348  12.041 -0.1564  0.1498  0.6045
 7593TIP3    H144194   4.327   2.264  12.077 -0.5319 -0.2846 -0.6713
 7593TIP3    H244195   4.290   2.371  11.975 -0.3008  1.6720  1.2237
 7594TIP3   OH244196   5.126   5.684   2.318  0.2489  0.8874  0.2381
 7594TIP3    H144197   5.202   5.726   2.357  1.0696 -1.1758  1.0007
 7594TIP3    H244198   5.162   5.621   2.256 -0.9549  1.6374 -1.3021
 7595TIP3   OH244199   0.115   5.254   1.233  0.4934  0.2764 -0.1835
 7595TIP3    H144200   0.075   5.332   1.270  0.4812  0.1186  0.1424
 7595TIP3    H244201   0.076   5.246   1.146  0.8405  0.8859 -0.3981
 7596TIP3   OH244202   2.585   1.823   0.662  0.0407  0.2324 -0.4908
 7596TIP3    H144203   2.624   1.752   0.610  0.8782  0.0543  0.3373
 7596TIP3    H244204   2.493   1.798   0.672 -0.1826  0.3632 -2.0131
 7597TIP3   OH244205   2.947   5.103   4.533 -0.4761  0.5773  0.3170
 7597TIP3    H144206   2.931   5.189   4.572  0.0317  1.5263 -1.4491
 7597TIP3    H244207   2.859   5.066   4.519 -0.6736  0.1916  2.2651
 7598TIP3   OH244208   1.947   1.308  14.135 -0.1963  0.4997 -0.0603
 7598TIP3    H144209   2.031   1.339  14.169  0.2224 -0.4154 -0.2276
 7598TIP3    H244210   1.903   1.269  14.210 -0.7324  1.4967  0.1557
 7599TIP3   OH244211   3.130   1.080  11.126  0.0970  0.1705  0.2326
 7599TIP3    H144212   3.059   1.118  11.074  0.2296  0.2244  0.0897
 7599TIP3    H244213   3.150   0.997  11.082  1.2379  0.9106 -0.7125
 7600TIP3   OH244214   6.214   0.511   3.798 -0.3144  0.5130  0.0458
 7600TIP3    H144215   6.240   0.447   3.864 -0.9530 -0.4044 -0.5715
 7600TIP3    H244216   6.225   0.596   3.842 -0.4248 -0.0541  1.2281
 7601TIP3   OH244217   3.980   2.369   1.766 -0.0265  0.5943 -0.2926
 7601TIP3    H144218   3.939   2.455   1.778  2.0576  1.4135  1.7258
 7601TIP3    H244219   4.043   2.382   1.696 -0.7065  0.2989 -0.9685
 7602TIP3   OH244220   6.410   3.038   5.952  0.1027 -0.1716 -0.2559
 7602TIP3    H144221   6.377   2.988   6.026  0.2066  0.6385  0.3460
 7602TIP3    H244222   6.382   2.989   5.875  2.7788 -2.8853  0.2883
 7603TIP3   OH244223   1.361   4.291  16.253  0.2549  0.2478  0.6118
 7603TIP3    H144224   1.273   4.317  16.228  0.4802  0.1188 -0.3633
 7603TIP3    H244225   1.416   4.368  16.236  0.0728  0.9808  2.9920
 7604TIP3   OH244226   6.731   2.109  12.207 -0.5273 -0.7922  0.0981
 7604TIP3    H144227   6.819   2.131  12.177 -0.8575 -1.3879 -1.4209
 7604TIP3    H244228   6.713   2.171  12.278  1.5800 -1.4767  1.3109
 7605TIP3   OH244229   1.630   3.052   1.076 -0.3544 -0.4162 -0.1625
 7605TIP3    H144230   1.696   3.116   1.049 -2.6705  1.6468 -1.4633
 7605TIP3    H244231   1.606   3.078   1.165 -0.3738 -0.2899 -0.2041
 7606TIP3   OH244232   2.620   6.726   1.306  0.2524 -0.4477 -0.5195
 7606TIP3    H144233   2.648   6.813   1.336 -1.6648  0.1557 -0.3365
 7606TIP3    H244234   2.627   6.730   1.211  1.1033 -0.4428 -0.4616
 7607TIP3   OH244235   0.384   6.029   3.778  0.3311 -0.2085 -0.1653
 7607TIP3    H144236   0.438   6.038   3.857 -0.4662  0.9225  0.2701
 7607TIP3    H244237   0.448   6.022   3.707  1.0876  0.9904  0.3572
 7608TIP3   OH244238   2.350   5.455   5.000 -0.1175 -0.0467  0.1987
 7608TIP3    H144239   2.409   5.527   4.979  0.4094 -0.1772  1.1836
 7608TIP3    H244240   2.282   5.459   4.932  0.2758  0.9488 -0.1522
 7609TIP3   OH244241   5.585   4.601  11.886  0.0909  0.3840  0.0779
 7609TIP3    H144242   5.579   4.506  11.871 -3.0154  0.3698  0.7412
 7609TIP3    H244243   5.566   4.611  11.980  1.8334  1.6157  0.3373
 7610TIP3   OH244244   2.058   1.402  16.825 -0.3446  0.1351 -0.2552
 7610TIP3    H144245   2.000   1.383  16.899 -1.4091 -0.1797 -1.1483
 7610TIP3    H244246   2.146   1.403  16.863 -0.8038 -0.7950  0.8859
 7611TIP3   OH244247   0.071   6.190  11.985  0.4419  0.4521  0.1150
 7611TIP3    H144248   0.052   6.224  12.072 -1.4084 -0.9021  0.2828
 7611TIP3    H244249   0.060   6.265  11.927  1.0298  1.2066  0.9540
 7612TIP3   OH244250   4.409   0.298  11.003 -0.0821 -0.0842 -1.0345
 7612TIP3    H144251   4.399   0.252  10.920  1.0045  2.1824 -2.5030
 7612TIP3    H244252   4.352   0.375  10.995 -1.0181 -0.5182  0.8971
 7613TIP3   OH244253   1.978   3.050  13.621 -0.5489  0.1255 -0.3153
 7613TIP3    H144254   1.929   3.131  13.606 -0.1383  0.1341 -1.7715
 7613TIP3    H244255   2.002   3.053  13.714 -3.5350 -0.0441  0.5649
 7614TIP3   OH244256   6.549   3.802  13.162 -0.0481  0.3263  0.5593
 7614TIP3    H144257   6.600   3.787  13.083 -0.4463 -0.6924  0.4874
 7614TIP3    H244258   6.590   3.879  13.203  1.3957 -0.3277  0.3921
 7615TIP3   OH244259   2.807   1.733  14.874  0.0644  0.0088  0.2661
 7615TIP3    H144260   2.847   1.791  14.808  2.2651  0.8383  2.1826
 7615TIP3    H244261   2.845   1.647  14.856  1.2467  0.3879  0.8653
 7616TIP3   OH244262   2.407   3.515  14.560  0.4160 -0.3260  0.3402
 7616TIP3    H144263   2.395   3.561  14.477 -0.4864  1.6849  1.5077
 7616TIP3    H244264   2.387   3.580  14.627  0.2697 -2.1146  2.1497
 7617TIP3   OH244265   5.991   6.460  14.814  0.5977 -0.2069  0.5287
 7617TIP3    H144266   6.006   6.416  14.730 -1.3383  0.8388 -0.4514
 7617TIP3    H244267   5.935   6.400  14.863  1.3321 -0.6036  0.9016
 7618TIP3   OH244268   5.149   0.086  15.075 -0.0165 -0.1022  0.3189
 7618TIP3    H144269   5.088   0.020  15.040 -1.2387  2.3153 -2.5309
 7618TIP3    H244270   5.104   0.122  15.152  0.3754 -2.0237  1.5163
 7619TIP3   OH244271   5.858   0.853   3.273 -0.0232 -0.9432 -0.1277
 7619TIP3    H144272   5.939   0.903   3.281 -1.2589  1.3443 -1.1066
 7619TIP3    H244273   5.883   0.774   3.225  2.1834 -1.9021  2.3627
 7620TIP3   OH244274   6.383   5.655  12.829 -0.2748  0.5339  0.9612
 7620TIP3    H144275   6.337   5.661  12.746  0.5977  0.6863  0.4747
 7620TIP3    H244276   6.363   5.567  12.862 -0.9729  0.6330  0.8056
 7621TIP3   OH244277   0.175   0.459   3.063 -0.0582  0.0230  0.2400
 7621TIP3    H144278   0.146   0.385   3.008  0.9307  1.3157 -2.1483
 7621TIP3    H244279   0.107   0.466   3.130 -0.5625 -2.5709  0.1343
 7622TIP3   OH244280   4.483   4.947  17.295  0.5028 -0.1880 -0.0346
 7622TIP3    H144281   4.511   4.925  17.206  2.4911  1.3406  0.1552
 7622TIP3    H244282   4.552   4.913  17.351  0.0240  0.2150  0.8183
 7623TIP3   OH244283   0.763   2.475  15.004  0.2722 -0.5880  0.1830
 7623TIP3    H144284   0.726   2.408  14.947 -0.2015 -0.3018  0.1428
 7623TIP3    H244285   0.692   2.496  15.064  0.5977 -0.5120  0.5405
 7624TIP3   OH244286   5.819   2.154   4.866 -0.1442 -0.3642  0.1078
 7624TIP3    H144287   5.864   2.131   4.947 -2.3553  0.3191  1.6076
 7624TIP3    H244288   5.890   2.165   4.802  1.7412 -0.1529  2.1148
 7625TIP3   OH244289   5.439   1.724  15.105 -0.0219 -0.5422  0.2844
 7625TIP3    H144290   5.474   1.686  15.024 -2.8320 -0.9512 -0.8413
 7625TIP3    H244291   5.464   1.663  15.174  0.0718 -1.6480 -0.7146
 7626TIP3   OH244292   3.801   2.015   2.527 -0.2357  0.5345  0.3010
 7626TIP3    H144293   3.729   2.062   2.568 -1.5226  0.8512 -2.1750
 7626TIP3    H244294   3.781   2.015   2.433  2.2571 -0.6304 -0.3347
 7627TIP3   OH244295   1.286   2.432  11.278 -1.2115 -0.3452 -0.4114
 7627TIP3    H144296   1.379   2.425  11.300 -1.0788  2.0022 -0.0292
 7627TIP3    H244297   1.242   2.378  11.345 -0.1967 -0.6761  0.0086
 7628TIP3   OH244298   1.590   3.876  14.675 -0.9139  0.4768  0.3712
 7628TIP3    H144299   1.651   3.875  14.749 -1.4460 -0.6107  0.8236
 7628TIP3    H244300   1.642   3.846  14.601 -0.1021  2.5686  0.0385
 7629TIP3   OH244301   6.698   4.738   1.858  0.3772  0.1382 -0.3697
 7629TIP3    H144302   6.716   4.797   1.785 -1.5704 -0.1722 -1.1586
 7629TIP3    H244303   6.603   4.726   1.856  0.3185 -0.2192  1.9658
 7630TIP3   OH244304   1.964   2.014  12.215  0.3706 -0.0213  0.6222
 7630TIP3    H144305   1.930   2.072  12.147  0.1563  2.2383  2.5032
 7630TIP3    H244306   2.059   2.027  12.213  0.3838 -0.1203  0.6009
 7631TIP3   OH244307   1.985   0.197   3.231 -0.4418 -0.1814  0.1538
 7631TIP3    H144308   1.970   0.166   3.320 -2.2919 -3.5444 -1.1415
 7631TIP3    H244309   1.902   0.237   3.204 -0.1441  0.1484 -0.2979
 7632TIP3   OH244310   1.262   4.973  12.805  0.7701 -0.6961  0.3084
 7632TIP3    H144311   1.214   4.967  12.887  1.8958  2.1935  1.3093
 7632TIP3    H244312   1.339   4.918  12.818  0.9716 -0.2151  1.2752
 7633TIP3   OH244313   0.958   5.720   1.506  0.5836 -0.3623  0.0949
 7633TIP3    H144314   0.975   5.639   1.554  0.6099 -0.7613 -0.5736
 7633TIP3    H244315   0.978   5.699   1.415  0.9293  0.4994 -0.0410
 7634TIP3   OH244316   0.083   2.207   2.999  0.1139  0.1526  0.0358
 7634TIP3    H144317   0.145   2.212   3.072  1.5491 -1.2265 -1.0014
 7634TIP3    H244318   0.061   2.114   2.993 -0.9682  0.4282 -0.5294
 7635TIP3   OH244319   4.619   2.543   0.891 -0.2855  0.3807  0.4485
 7635TIP3    H144320   4.688   2.609   0.905 -1.1377  0.8785  2.6997
 7635TIP3    H244321   4.574   2.572   0.811 -0.1804  2.1311  0.9876
 7636TIP3   OH244322   3.972   2.264   2.612  0.0478  0.0927 -0.1121
 7636TIP3    H144323   3.925   2.184   2.589  0.8713 -0.8845  1.4493
 7636TIP3    H244324   4.062   2.249   2.583 -0.1947  1.2689 -1.5657
 7637TIP3   OH244325   4.160   2.829   2.653 -0.4505  0.2601 -0.2814
 7637TIP3    H144326   4.151   2.874   2.568  0.0836  0.1957 -0.3714
 7637TIP3    H244327   4.203   2.893   2.709  1.0935 -0.4235 -0.6480
 7638TIP3   OH244328   4.416   6.245   5.616 -0.1517 -0.3115 -0.2735
 7638TIP3    H144329   4.347   6.187   5.651 -0.2224 -0.4577 -0.6541
 7638TIP3    H244330   4.371   6.327   5.597 -0.6485 -1.0214 -2.3616
 7639TIP3   OH244331   1.078   4.348  14.171  0.6956  0.5622 -0.5160
 7639TIP3    H144332   0.985   4.340  14.194  1.5149  0.9236  3.5604
 7639TIP3    H244333   1.111   4.258  14.174  0.6674  0.5063 -1.3925
 7640TIP3   OH244334   4.260   2.579   4.794 -0.9103  0.1443 -0.4379
 7640TIP3    H144335   4.270   2.607   4.885 -1.0316  1.4843 -0.8194
 7640TIP3    H244336   4.278   2.485   4.796 -0.4315  0.2428  0.8830
 7641TIP3   OH244337   5.654   2.275   1.545  0.1963 -0.6239  0.0585
 7641TIP3    H144338   5.654   2.370   1.550  1.6327 -0.6469  2.1203
 7641TIP3    H244339   5.631   2.246   1.634 -1.1510 -2.2378 -0.7512
 7642TIP3   OH244340   0.317   6.719   1.619  0.3332 -0.0250  0.2844
 7642TIP3    H144341   0.224   6.700   1.608  0.4501 -1.1313  1.0421
 7642TIP3    H244342   0.319   6.802   1.667 -0.2603  0.0006  0.2698
 7643TIP3   OH244343   1.684   6.602   1.878 -0.6114  0.4851 -0.0830
 7643TIP3    H144344   1.693   6.612   1.973  0.4233 -0.3887 -0.0796
 7643TIP3    H244345   1.758   6.650   1.841  0.9255 -1.8666 -0.2846
 7644TIP3   OH244346   5.123   0.688  15.501  0.0077  0.3158 -0.6300
 7644TIP3    H144347   5.128   0.750  15.429 -0.6132  0.0883 -0.8758
 7644TIP3    H244348   5.032   0.693  15.531  0.0056 -0.3284 -0.5189
 7645TIP3   OH244349   2.298   5.844  16.627 -0.0486 -0.2210  0.2537
 7645TIP3    H144350   2.317   5.938  16.635 -2.5737  0.3830 -0.0679
 7645TIP3    H244351   2.242   5.825  16.702 -2.1744 -0.6655 -1.3473
 7646TIP3   OH244352   6.556   3.956  11.557  0.0956  0.3118  0.1483
 7646TIP3    H144353   6.604   4.037  11.541 -0.0558  0.6494  1.2974
 7646TIP3    H244354   6.594   3.921  11.638 -0.8665  0.0249  0.4867
 7647TIP3   OH244355   1.108   3.378  12.864  0.2534 -0.2609  0.5956
 7647TIP3    H144356   1.114   3.308  12.799 -0.8003  1.5133 -1.5134
 7647TIP3    H244357   1.032   3.355  12.917 -1.8481  0.6407 -1.8838
 7648TIP3   OH244358   0.692   0.994   2.386  0.0264 -0.5473  0.0035
 7648TIP3    H144359   0.622   0.977   2.323 -0.0500  1.1244 -0.4099
 7648TIP3    H244360   0.650   0.984   2.472 -0.8035  0.6035 -0.2387
 7649TIP3   OH244361   4.300   1.144   5.412  0.0879 -0.6705 -0.1939
 7649TIP3    H144362   4.369   1.210   5.411 -0.0734 -0.5088 -0.7763
 7649TIP3    H244363   4.334   1.074   5.469 -0.0956  0.2937  1.1559
 7650TIP3   OH244364   2.438   4.411  14.367 -0.5006 -0.4947  0.3864
 7650TIP3    H144365   2.363   4.440  14.419 -1.0403 -0.9785 -0.1144
 7650TIP3    H244366   2.447   4.476  14.298 -1.1435 -1.0112 -0.1957
 7651TIP3   OH244367   0.510   1.978  12.636 -0.2995 -0.5120 -0.1616
 7651TIP3    H144368   0.455   1.903  12.610  0.9210 -1.6816  0.4838
 7651TIP3    H244369   0.570   1.942  12.701  0.7890  0.8789 -0.3459
 7652TIP3   OH244370   1.200   2.703  10.479 -0.0986  0.3029  0.0542
 7652TIP3    H144371   1.263   2.772  10.454 -0.4796  0.8450  0.5596
 7652TIP3    H244372   1.246   2.621  10.461  1.2493  0.6775  1.5660
 7653TIP3   OH244373   6.766   0.601  11.874 -0.0487  0.3090 -0.0730
 7653TIP3    H144374   6.762   0.565  11.785  0.1092 -0.0551  0.0687
 7653TIP3    H244375   6.692   0.562  11.920  2.3035 -3.0758  1.2809
 7654TIP3   OH244376   4.132   5.307  11.582 -0.0304 -0.0327  0.2705
 7654TIP3    H144377   4.119   5.229  11.637 -1.4437 -1.0444 -1.4039
 7654TIP3    H244378   4.142   5.272  11.493  1.8374  1.5704 -0.2403
 7655TIP3   OH244379   1.075   1.630  11.541 -0.2577  0.1767  0.2029
 7655TIP3    H144380   1.057   1.560  11.478  0.9309 -0.2934  0.3802
 7655TIP3    H244381   1.154   1.672  11.508  0.1609  0.1713  1.1788
 7656TIP3   OH244382   2.785   5.406   2.967 -0.2901  0.3435 -0.7648
 7656TIP3    H144383   2.772   5.331   3.026  1.0338  1.3173  0.8771
 7656TIP3    H244384   2.847   5.375   2.901 -2.4357 -1.0272 -2.2505
 7657TIP3   OH244385   0.224   1.879   1.451  0.0500 -0.2282  0.4668
 7657TIP3    H144386   0.301   1.936   1.453 -0.9009  1.3042 -1.8639
 7657TIP3    H244387   0.254   1.799   1.407  0.4907  0.0958  0.1694
 7658TIP3   OH244388   0.209   1.125   3.220 -0.7407 -0.9655 -0.4423
 7658TIP3    H144389   0.260   1.048   3.193  1.6035 -0.2175  1.4895
 7658TIP3    H244390   0.274   1.191   3.240 -2.4970  0.2907  1.6002
 7659TIP3   OH244391   4.445   0.812   3.986 -0.4176  0.0639  0.4891
 7659TIP3    H144392   4.486   0.775   4.065 -1.1079  0.5615  1.0991
 7659TIP3    H244393   4.401   0.891   4.017  0.0032  0.7262 -0.5687
 7660TIP3   OH244394   2.168   5.573  15.361 -0.6498 -0.6182 -0.1349
 7660TIP3    H144395   2.095   5.526  15.401 -0.1701 -0.4040  1.0423
 7660TIP3    H244396   2.131   5.657  15.334 -0.5803  0.0187  1.6411
 7661TIP3   OH244397   5.989   2.202   5.983  0.4225  0.0269  0.1571
 7661TIP3    H144398   6.061   2.161   6.030  0.3877  1.9462  2.0060
 7661TIP3    H244399   5.911   2.179   6.034  0.1182  0.4994 -0.0880
 7662TIP3   OH244400   3.647   4.907  14.415  0.1370  0.1267 -0.7020
 7662TIP3    H144401   3.696   4.832  14.450 -1.1618 -1.7919 -2.7216
 7662TIP3    H244402   3.698   4.934  14.339  0.2350  0.8783 -0.3741
 7663TIP3   OH244403   3.368   2.443  13.915 -0.0595 -0.0573  0.0615
 7663TIP3    H144404   3.418   2.413  13.839 -2.1006  0.5983 -1.6590
 7663TIP3    H244405   3.410   2.401  13.990  2.8714  0.2812 -1.2296
 7664TIP3   OH244406   2.155   0.404   5.073  0.7325  0.8472  0.2044
 7664TIP3    H144407   2.204   0.460   5.134 -2.0142  2.1160  1.4294
 7664TIP3    H244408   2.067   0.441   5.072 -0.1962 -1.1574 -2.0463
 7665TIP3   OH244409   5.997   5.551   4.348  0.4302  0.5810  0.7530
 7665TIP3    H144410   5.922   5.493   4.338  0.7575 -0.0190  1.5806
 7665TIP3    H244411   5.975   5.606   4.423  0.7879  0.4394  0.9653
 7666TIP3   OH244412   3.318   4.381   5.495  0.1862 -0.8842 -0.0504
 7666TIP3    H144413   3.322   4.476   5.505  0.4576 -0.9142  0.1341
 7666TIP3    H244414   3.234   4.365   5.453  0.9898 -0.3996 -1.9502
 7667TIP3   OH244415   5.436   2.000  17.297  0.2054 -0.2276  0.0558
 7667TIP3    H144416   5.380   2.043  17.362  0.3581  0.0515  0.0042
 7667TIP3    H244417   5.524   2.032  17.317  0.1444  0.5477 -0.8410
 7668TIP3   OH244418   2.680   0.715   2.903  0.4597 -1.0220 -0.3669
 7668TIP3    H144419   2.686   0.670   2.818  0.3418  2.5981 -2.5003
 7668TIP3    H244420   2.763   0.760   2.912 -0.4819  0.6930  0.1195
 7669TIP3   OH244421   2.799   1.271   1.675  0.1892 -0.1400  0.1722
 7669TIP3    H144422   2.772   1.193   1.628 -1.1301  0.1770  0.3542
 7669TIP3    H244423   2.864   1.312   1.618 -2.0065  0.7169 -1.8952
 7670TIP3   OH244424   0.736   1.196  11.478 -0.1556  0.4638 -0.3108
 7670TIP3    H144425   0.679   1.271  11.494 -0.1097  0.4905 -0.2727
 7670TIP3    H244426   0.805   1.204  11.543 -0.0520  0.4885 -0.4239
 7671TIP3   OH244427   0.899   5.732   0.978  0.0686  0.2308  0.1956
 7671TIP3    H144428   0.864   5.734   0.889  0.2061  0.8621  0.1492
 7671TIP3    H244429   0.854   5.803   1.023  1.8738  1.6649 -0.1184
 7672TIP3   OH244430   3.572   1.323  11.380 -0.0613 -0.0141  0.0089
 7672TIP3    H144431   3.593   1.384  11.309 -0.2519  0.2939  0.2178
 7672TIP3    H244432   3.569   1.377  11.459 -1.0476 -0.1490  0.0744
 7673TIP3   OH244433   1.861   5.327  13.473  0.2904 -0.0797 -0.0163
 7673TIP3    H144434   1.784   5.285  13.434  1.2806 -0.5043 -1.5998
 7673TIP3    H244435   1.882   5.274  13.549  0.8642 -1.8842 -1.3610
 7674TIP3   OH244436   1.421   5.237  16.650  0.0482  0.1085  0.3297
 7674TIP3    H144437   1.382   5.258  16.565 -0.6811 -1.2188  0.2992
 7674TIP3    H244438   1.480   5.164  16.631 -0.3808 -0.4293  0.9935
 7675TIP3   OH244439   3.243   0.051   1.463 -0.0356 -0.5690  0.1258
 7675TIP3    H144440   3.262   0.142   1.442 -0.8632 -0.1696  1.0277
 7675TIP3    H244441   3.202   0.016   1.383 -1.6297  0.4530  0.4413
 7676TIP3   OH244442   2.654   0.376  15.275  0.6782 -0.3687  0.0132
 7676TIP3    H144443   2.675   0.316  15.204  1.5635 -2.4300  1.8881
 7676TIP3    H244444   2.715   0.449  15.264 -0.5803  0.3789 -2.4610
 7677TIP3   OH244445   4.887   1.037   1.975 -0.0724 -0.5138  0.2262
 7677TIP3    H144446   4.932   0.955   1.955 -0.5638 -0.5388 -0.8697
 7677TIP3    H244447   4.882   1.083   1.891 -1.3332 -0.1534  0.4763
 7678TIP3   OH244448   5.530   4.977  13.659  0.3172 -0.2535  0.2879
 7678TIP3    H144449   5.477   4.910  13.701 -2.9476  1.9730  0.1210
 7678TIP3    H244450   5.607   4.986  13.715 -0.1016 -2.7087  1.3559
 7679TIP3   OH244451   0.012   0.109   1.087  0.1868  0.1789  0.2569
 7679TIP3    H144452   0.022   0.156   1.004 -0.1206  0.1757  0.2198
 7679TIP3    H244453   0.057   0.165   1.151 -1.3713  1.2325  0.4752
 7680TIP3   OH244454   3.637   5.749   5.199  0.3512 -0.2561 -0.0632
 7680TIP3    H144455   3.613   5.668   5.154  2.0817 -0.5368 -0.5490
 7680TIP3    H244456   3.594   5.743   5.284  0.4751 -1.6958 -0.0866
 7681TIP3   OH244457   6.168   3.010  13.544 -0.6207  0.2534  0.5169
 7681TIP3    H144458   6.251   3.041  13.507 -0.3161  1.1353  1.8945
 7681TIP3    H244459   6.119   3.089  13.565 -0.9638 -0.2239  1.5879
 7682TIP3   OH244460   1.871   1.298   5.221  0.5497  0.5107 -0.5960
 7682TIP3    H144461   1.894   1.255   5.304 -0.6334 -1.5439 -1.2435
 7682TIP3    H244462   1.864   1.391   5.243  2.3297  0.3067  1.1134
 7683TIP3   OH244463   1.297   3.424   5.699 -0.0010  0.0717  0.5136
 7683TIP3    H144464   1.381   3.396   5.734  0.4769  0.4646 -0.3025
 7683TIP3    H244465   1.246   3.344   5.691  0.1318 -0.1144  1.4197
 7684TIP3   OH244466   3.244   5.979  16.853  0.0957 -0.1686 -0.0107
 7684TIP3    H144467   3.290   5.979  16.769 -1.8333  0.4815 -1.1312
 7684TIP3    H244468   3.171   5.920  16.841  0.4274 -0.9666  1.6365
 7685TIP3   OH244469   2.763   4.105  14.390 -0.6098  0.0547  0.3792
 7685TIP3    H144470   2.801   4.190  14.414 -0.9411 -0.1854  1.8448
 7685TIP3    H244471   2.713   4.123  14.310 -0.8577  1.2850  0.7943
 7686TIP3   OH244472   6.708   3.570   1.782 -0.3183  0.5089  0.0612
 7686TIP3    H144473   6.783   3.590   1.837  0.3871 -0.8501 -0.3773
 7686TIP3    H244474   6.650   3.518   1.838  0.1288 -0.3718 -0.2750
 7687TIP3   OH244475   3.666   4.136  17.287 -0.1310  0.2163 -0.8103
 7687TIP3    H144476   3.617   4.213  17.317 -0.3972 -0.3161  0.1884
 7687TIP3    H244477   3.706   4.101  17.367  2.1780  0.8033 -1.6300
 7688TIP3   OH244478   1.206   6.347   0.486 -0.1883  1.0818 -0.0977
 7688TIP3    H144479   1.283   6.320   0.435 -0.0950  1.3189 -0.0846
 7688TIP3    H244480   1.206   6.288   0.561  0.8010  1.9760  0.6359
 7689TIP3   OH244481   0.286   1.582   2.489  0.4654  0.3859 -0.9714
 7689TIP3    H144482   0.342   1.504   2.486 -2.0189 -1.5518 -0.0168
 7689TIP3    H244483   0.277   1.609   2.398  2.3727  0.4009 -1.2108
 7690TIP3   OH244484   1.439   3.789  12.105 -0.2124 -0.2327  0.5877
 7690TIP3    H144485   1.439   3.865  12.164 -0.1663 -0.6661  1.1563
 7690TIP3    H244486   1.530   3.759  12.107  0.2366  0.8597 -1.1773
 7691TIP3   OH244487   2.002   1.926  11.490 -0.0360 -0.3234 -0.3483
 7691TIP3    H144488   1.957   1.920  11.573 -0.3021 -0.0246 -0.4679
 7691TIP3    H244489   2.095   1.929  11.513 -0.0042 -2.1332 -0.1703
 7692TIP3   OH244490   3.674   5.009  12.518  0.1126 -0.3205 -0.2754
 7692TIP3    H144491   3.685   4.993  12.611 -0.8156  1.2910  0.1445
 7692TIP3    H244492   3.616   4.939  12.489  1.7280 -1.8315 -0.0494
 7693TIP3   OH244493   4.621   3.730  16.037  0.1587 -0.3791  0.5102
 7693TIP3    H144494   4.716   3.720  16.023  0.4636  2.7248 -0.3405
 7693TIP3    H244495   4.582   3.672  15.972  1.5104 -0.5514 -0.1983
 7694TIP3   OH244496   5.492   6.610  16.060 -0.3007  0.5107 -0.8125
 7694TIP3    H144497   5.563   6.563  16.104 -1.0136  0.4648  0.3239
 7694TIP3    H244498   5.519   6.701  16.061  0.3062  0.3433 -1.4993
 7695TIP3   OH244499   6.507   4.833   5.924  0.7001  0.1748  0.3857
 7695TIP3    H144500   6.453   4.879   5.988 -0.2374 -0.1698 -0.1252
 7695TIP3    H244501   6.587   4.810   5.970  0.3676  0.6202  1.1938
 7696TIP3   OH244502   1.275   5.861  14.194 -0.2804 -0.0063  0.0368
 7696TIP3    H144503   1.361   5.820  14.180  0.5555  1.4502  0.6832
 7696TIP3    H244504   1.292   5.930  14.258 -1.7033  1.0944 -0.7142
 7697TIP3   OH244505   6.176   4.770   3.193  0.0765  0.0658 -0.3940
 7697TIP3    H144506   6.156   4.761   3.100 -1.8589  1.0776 -0.1366
 7697TIP3    H244507   6.106   4.827   3.227  0.7966 -0.1873  1.6554
 7698TIP3   OH244508   4.404   1.309   4.167  0.2347  0.2296  0.3691
 7698TIP3    H144509   4.434   1.344   4.250  2.4710  1.4483 -0.8708
 7698TIP3    H244510   4.376   1.385   4.117 -0.7932 -0.4502 -0.1359
 7699TIP3   OH244511   0.166   3.806  15.886 -0.1865 -0.1864 -0.4732
 7699TIP3    H144512   0.205   3.760  15.961  1.7714  0.8826 -0.7568
 7699TIP3    H244513   0.233   3.869  15.859 -1.1607  0.0297 -2.6254
 7700TIP3   OH244514   5.711   1.692  16.463  0.4606  0.4261  0.2514
 7700TIP3    H144515   5.668   1.631  16.523 -0.9041  0.6010 -0.4844
 7700TIP3    H244516   5.699   1.778  16.503 -1.3073  0.6573 -0.6808
 7701TIP3   OH244517   6.036   2.915   2.142 -0.2760  0.1705 -0.3675
 7701TIP3    H144518   6.110   2.912   2.202 -0.1803  2.1586 -0.3349
 7701TIP3    H244519   6.017   3.008   2.130 -1.8004 -0.2368 -1.5781
 7702TIP3   OH244520   1.538   0.867  15.048  0.2266 -0.3176 -0.1152
 7702TIP3    H144521   1.580   0.847  15.132 -1.0034  0.6320  0.7601
 7702TIP3    H244522   1.556   0.790  14.993  0.2467 -1.3981  1.3427
 7703TIP3   OH244523   2.079   2.665   2.733 -0.1437 -0.2819 -0.4520
 7703TIP3    H144524   2.159   2.672   2.681  0.8561 -0.2982  1.0299
 7703TIP3    H244525   2.107   2.681   2.823 -1.9973  0.7569 -0.0168
 7704TIP3   OH244526   5.809   0.051  14.637  0.3002 -0.8171  0.0448
 7704TIP3    H144527   5.722   0.012  14.632 -0.6729  1.0576  1.0645
 7704TIP3    H244528   5.825   0.063  14.730  0.1201  1.9053 -0.1710
 7705TIP3   OH244529   6.390   6.338   3.231 -0.9222  0.0470  0.0026
 7705TIP3    H144530   6.455   6.278   3.267 -0.3722 -0.0797 -1.1517
 7705TIP3    H244531   6.342   6.285   3.167 -0.9040  0.6547 -0.5137
 7706TIP3   OH244532   0.362   0.658   5.237 -0.2908  0.0376  0.4726
 7706TIP3    H144533   0.287   0.711   5.209  1.0089  1.3275 -0.7337
 7706TIP3    H244534   0.355   0.579   5.184 -1.7769 -0.7100  1.6857
 7707TIP3   OH244535   3.756   5.975   2.394 -0.4261 -0.1261 -0.2323
 7707TIP3    H144536   3.678   5.930   2.360 -0.7465  0.1039  0.1878
 7707TIP3    H244537   3.733   5.998   2.484  0.4616 -0.8603  0.1991
 7708TIP3   OH244538   6.124   6.721   5.634  0.1764 -0.0485  0.4432
 7708TIP3    H144539   6.206   6.768   5.620  0.5739 -0.5250  1.1239
 7708TIP3    H244540   6.075   6.778   5.694  0.7407 -0.5746  1.4296
 7709TIP3   OH244541   6.450   4.450  14.562 -0.0720 -0.2147 -0.2863
 7709TIP3    H144542   6.520   4.515  14.558 -0.5637  0.2785 -1.2430
 7709TIP3    H244543   6.384   4.491  14.619  1.1118 -1.4314  2.1446
 7710TIP3   OH244544   1.550   2.198   2.446 -0.8456 -0.1378  0.2096
 7710TIP3    H144545   1.525   2.267   2.385 -1.0221 -0.4213 -0.0424
 7710TIP3    H244546   1.627   2.157   2.407 -1.6780 -1.1248 -0.4606
 7711TIP3   OH244547   5.329   4.186  13.845 -0.2239 -0.4616 -0.3409
 7711TIP3    H144548   5.329   4.221  13.756  0.1018  0.0864 -0.1307
 7711TIP3    H244549   5.421   4.189  13.872 -0.2743 -0.9402 -0.1083
 7712TIP3   OH244550   5.159   2.588   5.450 -0.2567  0.0836  0.1599
 7712TIP3    H144551   5.132   2.517   5.393 -0.3142  0.6622 -0.5535
 7712TIP3    H244552   5.232   2.552   5.501 -1.0055 -0.8288  0.6193
 7713TIP3   OH244553   6.168   4.988   4.058 -0.2673  0.1360  0.1600
 7713TIP3    H144554   6.085   4.954   4.026 -0.1306 -0.4143  0.3661
 7713TIP3    H244555   6.159   4.987   4.154 -0.0667  0.1834  0.1801
 7714TIP3   OH244556   5.351   5.921   0.161 -0.3006  0.0835  1.1072
 7714TIP3    H144557   5.402   5.941   0.239  1.0706  0.6559  0.1065
 7714TIP3    H244558   5.280   5.986   0.161 -0.2479  0.1447  1.8132
 7715TIP3   OH244559   1.351   5.005  14.950  0.5821  0.1686  0.2330
 7715TIP3    H144560   1.268   5.049  14.967 -0.1642 -0.9832 -0.2777
 7715TIP3    H244561   1.347   4.926  15.003  0.5496 -0.7842 -1.1237
 7716TIP3   OH244562   1.436   4.341   5.392  0.2027  0.6616 -0.3262
 7716TIP3    H144563   1.383   4.323   5.470  0.0272 -1.4857 -0.8807
 7716TIP3    H244564   1.373   4.370   5.326 -0.1793 -0.8015 -0.6451
 7717TIP3   OH244565   5.443   3.051   1.202 -0.2565  0.4011 -0.0760
 7717TIP3    H144566   5.439   2.994   1.125 -0.6944  0.2912  0.0253
 7717TIP3    H244567   5.365   3.029   1.252  1.9332 -2.4826  2.4789
 7718TIP3   OH244568   1.426   2.363  14.283 -0.2532 -0.4161  0.3616
 7718TIP3    H144569   1.447   2.447  14.242  0.7807 -0.4894  0.7085
 7718TIP3    H244570   1.457   2.297  14.221  1.8544 -0.5303  1.4514
 7719TIP3   OH244571   0.400   2.505   4.219 -0.9255 -0.2493 -0.5992
 7719TIP3    H144572   0.420   2.553   4.138 -0.3071  2.2270  0.9207
 7719TIP3    H244573   0.344   2.564   4.269 -0.1350 -1.0895  1.3971
 7720TIP3   OH244574   0.579   1.017   3.368 -0.0714 -0.0610  0.4202
 7720TIP3    H144575   0.496   0.995   3.409  0.5814 -1.3037  1.1563
 7720TIP3    H244576   0.566   0.999   3.275 -1.0842  1.2594  0.2797
 7721TIP3   OH244577   3.426   5.858  11.231 -0.7023  0.0145 -0.3659
 7721TIP3    H144578   3.369   5.782  11.238 -0.6653 -0.2263 -2.2309
 7721TIP3    H244579   3.404   5.897  11.146  1.9623 -0.1361 -1.1949
 7722TIP3   OH244580   2.309   6.589   3.479  0.1468 -0.2066  0.4375
 7722TIP3    H144581   2.365   6.561   3.408  1.0323  0.8956  0.6757
 7722TIP3    H244582   2.304   6.684   3.470  0.3846 -0.0282  1.9069
 7723TIP3   OH244583   6.294   3.818   1.265  0.2327  0.0721  0.1937
 7723TIP3    H144584   6.343   3.887   1.310  0.6585 -1.0540  1.5057
 7723TIP3    H244585   6.219   3.863   1.227  0.0313  1.1342  1.7579
 7724TIP3   OH244586   4.764   3.146  13.085  0.7862 -0.0048  0.6523
 7724TIP3    H144587   4.738   3.182  13.000  1.1936  0.1000  0.5668
 7724TIP3    H244588   4.805   3.062  13.065 -1.5236 -1.2779  0.9815
 7725TIP3   OH244589   3.622   2.771   2.337  0.4955  0.2948  0.1209
 7725TIP3    H144590   3.692   2.784   2.274 -0.5034  0.4210 -0.9982
 7725TIP3    H244591   3.615   2.855   2.383  3.0766 -0.5997  2.4460
 7726TIP3   OH244592   1.809   5.094   6.470  0.2810  0.4954 -0.6324
 7726TIP3    H144593   1.739   5.063   6.413 -1.0360  0.8891  0.7083
 7726TIP3    H244594   1.829   5.019   6.527  0.0666  0.7755 -0.1856
 7727TIP3   OH244595   4.657   6.144   3.325 -0.1550 -0.4771  0.5477
 7727TIP3    H144596   4.587   6.152   3.390  0.1410 -0.4040  0.8647
 7727TIP3    H244597   4.642   6.059   3.283 -0.9187 -0.0885  0.0290
 7728TIP3   OH244598   0.175   3.979  11.251 -0.3931 -0.1346 -0.3853
 7728TIP3    H144599   0.182   4.010  11.342 -0.7635 -1.4743  0.1217
 7728TIP3    H244600   0.252   3.923  11.238 -1.0042 -0.9791 -0.4585
 7729TIP3   OH244601   6.768   6.321   3.996  0.1417  0.5467  0.0251
 7729TIP3    H144602   6.806   6.329   4.083 -0.4580  1.3931  0.2200
 7729TIP3    H244603   6.775   6.409   3.959 -1.3323  0.6483 -0.0527
 7730TIP3   OH244604   5.677   4.851   2.906 -0.7321 -0.5154 -0.2044
 7730TIP3    H144605   5.697   4.937   2.868 -0.6512 -1.5327 -2.6510
 7730TIP3    H244606   5.589   4.862   2.943  0.2975  1.2895  1.9134
 7731TIP3   OH244607   4.312   1.591   1.715 -0.2095  0.0087 -0.0306
 7731TIP3    H144608   4.311   1.569   1.808  0.2111 -0.0660 -0.0432
 7731TIP3    H244609   4.221   1.615   1.695 -0.3591 -0.2518  0.3323
 7732TIP3   OH244610   3.555   1.062   4.216 -0.2044 -0.0580  0.2582
 7732TIP3    H144611   3.650   1.059   4.205 -0.3516 -0.6469 -0.9116
 7732TIP3    H244612   3.527   1.138   4.165 -0.4063 -0.0658  0.3547
 7733TIP3   OH244613   2.222   6.279  13.876  0.2479 -0.2439 -0.1087
 7733TIP3    H144614   2.263   6.313  13.956  0.3277 -0.5591 -0.0120
 7733TIP3    H244615   2.231   6.184  13.884  2.3888 -0.2561 -1.5969
 7734TIP3   OH244616   2.033   1.445  12.169 -0.1252  0.3206  0.1009
 7734TIP3    H144617   1.989   1.530  12.166 -2.4287 -0.7945 -0.8714
 7734TIP3    H244618   1.982   1.394  12.232  0.7832 -0.5367  0.1650
 7735TIP3   OH244619   3.164   0.685   1.539 -0.4129 -0.3144 -0.1351
 7735TIP3    H144620   3.097   0.663   1.604  0.7047  1.4274  1.7355
 7735TIP3    H244621   3.245   0.648   1.575  0.1735  0.3602 -0.7319
 7736TIP3   OH244622   3.013   2.281   1.642  0.1363  0.3045  0.8051
 7736TIP3    H144623   3.024   2.241   1.556  0.3808  0.8559  0.5756
 7736TIP3    H244624   3.068   2.359   1.639 -0.8600  1.0317  1.0040
 7737TIP3   OH244625   3.890   3.090  15.767 -0.8938  0.0180  0.0591
 7737TIP3    H144626   3.844   3.054  15.691 -1.2266  0.6982 -0.0725
 7737TIP3    H244627   3.828   3.079  15.839 -0.8223 -0.0595  0.1091
 7738TIP3   OH244628   2.388   6.347  15.693 -0.5598  0.8604  0.1549
 7738TIP3    H144629   2.304   6.324  15.655 -0.5076  0.6077  0.1923
 7738TIP3    H244630   2.453   6.305  15.636 -0.4600  1.0233  0.1472
 7739TIP3   OH244631   2.088   2.734  14.249 -0.1766 -0.0087  0.2492
 7739TIP3    H144632   2.040   2.816  14.247 -0.7296 -0.3288  0.1308
 7739TIP3    H244633   2.022   2.668  14.270  0.2601 -0.4218  0.3448
 7740TIP3   OH244634   5.088   4.291   0.312 -0.2432  0.3581 -0.0950
 7740TIP3    H144635   5.150   4.258   0.377  0.2259  2.3927  0.5553
 7740TIP3    H244636   5.058   4.375   0.347 -2.4377  0.0230 -0.9963
 7741TIP3   OH244637   1.131   3.790  11.734 -0.1148  0.6588  0.3312
 7741TIP3    H144638   1.084   3.727  11.788  0.2636 -0.7979 -0.9451
 7741TIP3    H244639   1.166   3.738  11.661  0.7738  2.2405 -0.4414
 7742TIP3   OH244640   4.886   1.722  14.884 -0.1605 -0.0446  0.3902
 7742TIP3    H144641   4.814   1.780  14.857 -0.4759 -0.0173  1.2582
 7742TIP3    H244642   4.953   1.782  14.916  0.0828 -0.0919 -0.0308
 7743TIP3   OH244643   0.195   2.311   5.760 -0.7406  0.6450 -0.5475
 7743TIP3    H144644   0.252   2.235   5.770  1.7384  2.0287 -2.7253
 7743TIP3    H244645   0.184   2.344   5.849 -1.7835 -2.0845  0.4382
 7744TIP3   OH244646   6.022   4.576  16.694  0.0801 -0.2110  0.1356
 7744TIP3    H144647   5.948   4.602  16.640 -0.1082 -1.0991 -0.0631
 7744TIP3    H244648   6.094   4.631  16.666 -0.0121 -0.6664 -1.0351
 7745TIP3   OH244649   6.615   0.096  13.822 -0.0540  0.2813  0.0396
 7745TIP3    H144650   6.658   0.046  13.891 -0.7901  0.1665  0.4292
 7745TIP3    H244651   6.566   0.164  13.869  1.2228  1.6180 -0.5013
 7746TIP3   OH244652   6.523   1.091   4.243 -0.0253 -0.0640  0.5362
 7746TIP3    H144653   6.611   1.121   4.219 -0.4860  0.6668 -0.2724
 7746TIP3    H244654   6.473   1.095   4.162 -1.1453  0.7149  1.2471
 7747TIP3   OH244655   5.906   3.864  14.946 -0.0675  0.3094 -0.1077
 7747TIP3    H144656   5.823   3.860  14.993  0.3193  0.2430  0.5822
 7747TIP3    H244657   5.946   3.946  14.975 -1.5417  2.3655 -3.2770
 7748TIP3   OH244658   5.178   4.677  14.747 -0.2292  0.8267  0.1978
 7748TIP3    H144659   5.249   4.612  14.746 -1.1800 -0.2491 -0.2638
 7748TIP3    H244660   5.131   4.663  14.664 -1.0478  1.4351  0.5400
 7749TIP3   OH244661   3.440   0.026   1.633  0.2221  0.5663 -0.4113
 7749TIP3    H144662   3.372   0.042   1.568 -1.3237  1.9560  1.4157
 7749TIP3    H244663   3.432  -0.068   1.652  0.0985  0.3315 -1.5393
 7750TIP3   OH244664   2.640   0.133   6.002 -0.0148  0.3264 -0.5392
 7750TIP3    H144665   2.717   0.080   6.023 -0.4077 -0.5128 -1.1536
 7750TIP3    H244666   2.674   0.221   5.991  0.9177 -0.0909 -1.1302
 7751TIP3   OH244667   4.848   5.638   3.383 -0.2738 -0.1788  0.1038
 7751TIP3    H144668   4.838   5.555   3.428 -0.2357  0.6239  1.6468
 7751TIP3    H244669   4.933   5.633   3.341 -0.4789 -1.0910 -0.2204
 7752TIP3   OH244670   3.706   3.508   1.557  0.4952 -0.3425 -0.3749
 7752TIP3    H144671   3.732   3.500   1.465  2.3472  1.2435 -0.0458
 7752TIP3    H244672   3.723   3.421   1.595  1.4865 -0.4887 -1.1205
 7753TIP3   OH244673   0.484   3.414  11.964  0.0233 -0.0349 -0.3604
 7753TIP3    H144674   0.573   3.422  11.998  0.0676 -1.7835  0.0551
 7753TIP3    H244675   0.468   3.496  11.918  1.8825  0.2841 -0.5116
 7754TIP3   OH244676   3.652   5.557   1.366  0.3705  0.1824  0.5950
 7754TIP3    H144677   3.619   5.642   1.337 -1.2636 -0.6352 -0.0678
 7754TIP3    H244678   3.588   5.528   1.431 -0.3341 -1.4971 -0.7879
 7755TIP3   OH244679   4.170   3.309   0.988  0.1256  0.2714 -0.0869
 7755TIP3    H144680   4.118   3.375   0.942 -1.9963 -2.3460 -1.7894
 7755TIP3    H244681   4.261   3.336   0.974 -0.6209  3.4206  0.3899
 7756TIP3   OH244682   2.191   3.700  12.599 -0.2554  0.6384 -0.5159
 7756TIP3    H144683   2.142   3.618  12.595  1.9893 -0.8770  0.8352
 7756TIP3    H244684   2.129   3.767  12.570 -2.8231 -1.2418  0.3350
 7757TIP3   OH244685   4.890   0.950  16.223  0.0430  0.1183  0.3076
 7757TIP3    H144686   4.919   1.041  16.236 -3.0807  1.6423 -1.9112
 7757TIP3    H244687   4.946   0.917  16.153  0.2431  0.8849  0.0943
 7758TIP3   OH244688   5.044   1.632   2.004  0.0952 -0.0797 -0.0026
 7758TIP3    H144689   5.120   1.680   1.970 -0.3160  0.8789  0.4187
 7758TIP3    H244690   5.050   1.546   1.961  1.4945 -0.0777  0.1360
 7759TIP3   OH244691   0.497   1.397  12.910 -0.0247 -0.3149 -0.3112
 7759TIP3    H144692   0.424   1.382  12.850 -2.1407  1.2512  1.6530
 7759TIP3    H244693   0.575   1.372  12.861 -1.7129 -0.3234 -3.2076
 7760TIP3   OH244694   3.143   2.814  14.265  0.0992  0.3389 -0.0629
 7760TIP3    H144695   3.103   2.728  14.271  0.8458  0.0503  1.1514
 7760TIP3    H244696   3.222   2.801  14.212 -0.2120  0.4434 -0.5534
 7761TIP3   OH244697   0.793   3.481   4.091 -0.1001 -0.7610  0.0002
 7761TIP3    H144698   0.785   3.551   4.027 -0.4165 -0.0370  0.8189
 7761TIP3    H244699   0.878   3.441   4.073 -0.9057 -1.7266 -2.0092
 7762TIP3   OH244700   5.406   4.589  11.333  0.7530  0.6598  0.4607
 7762TIP3    H144701   5.374   4.509  11.375  1.3598  0.9938  1.5967
 7762TIP3    H244702   5.347   4.602  11.259 -0.8631  0.4440  1.6337
 7763TIP3   OH244703   1.484   4.304  11.190 -0.1349  0.5899 -0.2072
 7763TIP3    H144704   1.430   4.302  11.111  0.5161  1.8928 -0.7099
 7763TIP3    H244705   1.573   4.289  11.160 -0.1050 -1.1920  0.5830
 7764TIP3   OH244706   0.136   5.307   1.683 -0.6723  0.2636 -0.1438
 7764TIP3    H144707   0.162   5.392   1.720  1.1678 -0.2188 -0.2527
 7764TIP3    H244708   0.111   5.254   1.759  1.0826 -0.0481  0.2531
 7765TIP3   OH244709   3.699   5.289   5.338 -0.0189  0.1467  0.3753
 7765TIP3    H144710   3.684   5.378   5.370  0.8347  1.4751 -2.5270
 7765TIP3    H244711   3.794   5.277   5.347 -0.1196 -0.4316  0.6648
 7766TIP3   OH244712   2.907   5.788  13.413  0.1579  0.3620 -0.0814
 7766TIP3    H144713   2.864   5.833  13.487  0.7988 -1.4904  1.4959
 7766TIP3    H244714   2.894   5.695  13.432  2.2169 -0.1810 -1.1829
 7767TIP3   OH244715   5.108   4.655  15.005  0.3223  0.4698 -0.0866
 7767TIP3    H144716   5.156   4.659  14.922 -1.3127  2.6162 -1.0351
 7767TIP3    H244717   5.025   4.700  14.987 -1.2904 -1.4437  1.9819
 7768TIP3   OH244718   1.782   1.034   2.143  0.1871 -0.5235 -0.5625
 7768TIP3    H144719   1.719   0.976   2.100  0.8480 -0.4044 -1.7352
 7768TIP3    H244720   1.733   1.071   2.217 -0.3565 -2.2893  0.0314
 7769TIP3   OH244721   4.247   3.242  15.397  0.4043  0.0243 -0.6105
 7769TIP3    H144722   4.161   3.240  15.439  0.7168 -0.8698  0.0114
 7769TIP3    H244723   4.231   3.213  15.307 -0.0171  0.3946 -0.6610
 7770TIP3   OH244724   4.070   2.701  13.963  0.2311  0.0104 -0.6435
 7770TIP3    H144725   4.030   2.627  13.917 -0.5766  0.2946 -0.4239
 7770TIP3    H244726   4.060   2.775  13.904 -2.7177  0.8650  0.7266
 7771TIP3   OH244727   4.034   3.555   0.814  0.1655  0.6323  0.3437
 7771TIP3    H144728   4.030   3.635   0.761  0.8101  0.5981  0.2409
 7771TIP3    H244729   4.014   3.485   0.751 -0.2631  0.6978  0.4046
 7772TIP3   OH244730   3.340   2.056   1.908  0.0297  0.4134 -0.0729
 7772TIP3    H144731   3.256   2.028   1.872 -0.6206  0.8907  1.0079
 7772TIP3    H244732   3.371   1.981   1.959  0.8608 -0.1957 -1.4363
 7773TIP3   OH244733   0.679   3.399   4.758 -0.2300 -0.4914 -0.0947
 7773TIP3    H144734   0.738   3.425   4.828  0.6106 -1.8011 -0.2755
 7773TIP3    H244735   0.678   3.473   4.698  1.4316 -0.5328 -0.2017
 7774TIP3   OH244736   4.695   2.197  15.993  0.1774  0.0316 -0.0067
 7774TIP3    H144737   4.713   2.205  16.086  3.0882 -0.0726 -0.4632
 7774TIP3    H244738   4.687   2.103  15.977  0.0071  0.0283  0.1080
 7775TIP3   OH244739   5.399   0.907   4.151  0.8034  0.0848  0.2580
 7775TIP3    H144740   5.407   0.955   4.068  0.7409  1.2417  0.9077
 7775TIP3    H244741   5.462   0.950   4.210  0.7316 -0.6222  0.8636
 7776TIP3   OH244742   6.383   1.626  13.808 -0.3436  0.4816 -0.2638
 7776TIP3    H144743   6.389   1.574  13.727  3.4536  1.4352 -0.7908
 7776TIP3    H244744   6.381   1.716  13.777  0.6046  0.8382  0.6760
 7777TIP3   OH244745   0.536   1.267  14.285 -0.3319 -0.0099 -0.5370
 7777TIP3    H144746   0.589   1.191  14.308 -1.8787 -0.6230  1.3298
 7777TIP3    H244747   0.599   1.337  14.269  1.0740 -1.2185 -0.4747
 7778TIP3   OH244748   4.295   4.282  10.658  0.3415 -0.5260 -0.2464
 7778TIP3    H144749   4.235   4.357  10.664  0.8755 -0.1738  0.9295
 7778TIP3    H244750   4.258   4.217  10.717  0.9210 -0.4441  0.2082
 7779TIP3   OH244751   2.801   0.259  12.605 -0.3261 -0.2228 -0.0897
 7779TIP3    H144752   2.808   0.326  12.673  1.6962  1.2706 -1.6408
 7779TIP3    H244753   2.760   0.185  12.649  0.5060  0.8039  2.6421
 7780TIP3   OH244754   3.108   5.389  15.162  0.2356  0.8349  0.0459
 7780TIP3    H144755   3.063   5.305  15.168  0.1841  0.7001 -1.7731
 7780TIP3    H244756   3.039   5.454  15.172  0.3400  0.7073  1.9317
 7781TIP3   OH244757   3.368   3.379   2.276  0.2525  0.3435 -0.0666
 7781TIP3    H144758   3.409   3.371   2.190 -0.1985 -3.7650 -0.1284
 7781TIP3    H244759   3.441   3.370   2.338  0.2633  0.4812 -0.0593
 7782TIP3   OH244760   3.336   2.751  11.095 -0.0073 -0.3705 -0.2096
 7782TIP3    H144761   3.418   2.714  11.062 -0.1393 -0.0060 -0.9746
 7782TIP3    H244762   3.282   2.764  11.017  0.0625  1.4894  0.0020
 7783TIP3   OH244763   4.599   5.527  11.567  0.1628  0.0467  0.5177
 7783TIP3    H144764   4.674   5.555  11.514  0.8195 -1.0641  0.8169
 7783TIP3    H244765   4.524   5.538  11.509  0.6086  0.7557  0.0551
 7784TIP3   OH244766   0.363   5.572  15.522  0.5287 -0.1089 -0.2616
 7784TIP3    H144767   0.449   5.530  15.530  0.4885 -0.2914 -0.7487
 7784TIP3    H244768   0.309   5.508  15.475  0.3706  0.3494 -0.7212
 7785TIP3   OH244769   6.721   2.172   0.628  0.5452 -0.3086  0.3434
 7785TIP3    H144770   6.718   2.265   0.651 -2.3168  0.2318 -1.6410
 7785TIP3    H244771   6.789   2.135   0.685  0.1266  2.5161  2.9449
 7786TIP3   OH244772   1.642   2.739   4.401  0.8189 -0.4088  0.4818
 7786TIP3    H144773   1.561   2.701   4.366 -0.0386  0.8395  1.0409
 7786TIP3    H244774   1.677   2.790   4.328  0.5744 -0.1749  0.5226
 7787TIP3   OH244775   2.842   3.581   5.896 -0.4053 -0.0982 -0.1756
 7787TIP3    H144776   2.754   3.564   5.929 -1.0157  2.9812  0.0902
 7787TIP3    H244777   2.900   3.559   5.969 -0.9100 -1.9228 -0.2751
 7788TIP3   OH244778   1.129   4.559  16.824  0.5883 -0.0842 -0.1235
 7788TIP3    H144779   1.224   4.550  16.816  0.6656  1.1635 -0.8904
 7788TIP3    H244780   1.114   4.653  16.831 -0.6362 -0.2199 -0.6469
 7789TIP3   OH244781   3.348   0.306   4.971  0.1109 -0.0058 -0.5223
 7789TIP3    H144782   3.290   0.362   4.919  0.8751 -1.4984 -3.2099
 7789TIP3    H244783   3.290   0.239   5.008 -0.4043  0.8334  0.1969
 7790TIP3   OH244784   3.098   2.078  17.196 -0.0115  0.0400 -0.7965
 7790TIP3    H144785   3.107   2.164  17.236  0.3349 -0.9925  1.5078
 7790TIP3    H244786   3.009   2.052  17.216  1.2777 -2.1450  3.1215
 7791TIP3   OH244787   6.149   3.078   4.923 -0.9618  0.0152 -0.0572
 7791TIP3    H144788   6.076   3.017   4.920 -1.0198  0.1102 -0.5971
 7791TIP3    H244789   6.112   3.159   4.959 -0.6880 -0.5305  1.5239
 7792TIP3   OH244790   3.440   4.472   1.750  0.0405  0.2056  0.1123
 7792TIP3    H144791   3.478   4.385   1.753  0.2220  0.3068  1.1031
 7792TIP3    H244792   3.462   4.511   1.835  0.3258  1.3693 -0.4712
 7793TIP3   OH244793   3.974   2.532  13.059  0.3042  0.1592  0.4039
 7793TIP3    H144794   4.051   2.589  13.060  0.2073  0.2916  0.3270
 7793TIP3    H244795   3.985   2.479  12.980 -0.5717  1.4071 -0.5881
 7794TIP3   OH244796   5.915   2.085   1.498 -0.0001 -0.6939 -0.3344
 7794TIP3    H144797   5.837   2.139   1.512  1.0426  1.1122 -1.0805
 7794TIP3    H244798   5.985   2.134   1.542  1.0410 -1.3027 -1.2668
 7795TIP3   OH244799   4.082   2.149   5.011 -0.4180  0.3673 -0.2659
 7795TIP3    H144800   3.995   2.188   5.003 -0.1678  1.1603  0.6660
 7795TIP3    H244801   4.066   2.055   5.016 -1.3008  0.5475  0.6239
 7796TIP3   OH244802   2.817   3.726  16.910 -0.5690  0.1269 -0.2491
 7796TIP3    H144803   2.787   3.817  16.911 -1.4562 -0.1282  1.5532
 7796TIP3    H244804   2.755   3.681  16.853 -0.6476  0.5016 -0.4662
 7797TIP3   OH244805   6.079   3.064  16.895 -0.2184 -0.2494  1.0554
 7797TIP3    H144806   6.005   3.081  16.953 -0.8772 -0.2446  0.2398
 7797TIP3    H244807   6.064   3.121  16.819  0.1564 -0.8778  0.4878
 7798TIP3   OH244808   4.088   2.949  12.658 -0.0040 -0.0125  0.4819
 7798TIP3    H144809   4.142   2.986  12.728  1.0951 -3.5986  1.7728
 7798TIP3    H244810   4.148   2.940  12.584 -0.0036 -0.0388  0.4853
 7799TIP3   OH244811   3.315   4.705  11.841 -0.5398  0.3495 -0.2928
 7799TIP3    H144812   3.248   4.639  11.861  0.6732 -0.9400 -0.3303
 7799TIP3    H244813   3.306   4.721  11.747 -0.8003  0.1820 -0.2972
 7800TIP3   OH244814   1.249   2.124   1.768  0.0697 -0.0490 -0.1957
 7800TIP3    H144815   1.312   2.196   1.776  0.6676 -0.7351  2.2306
 7800TIP3    H244816   1.171   2.165   1.729  1.4451  1.1491 -1.8427
 7801TIP3   OH244817   5.651   5.091   2.020  0.6239 -0.1048  0.1511
 7801TIP3    H144818   5.687   5.023   1.964  1.2371 -0.0365  0.4578
 7801TIP3    H244819   5.701   5.170   1.997 -2.4117  1.2356 -2.8595
 7802TIP3   OH244820   5.150   2.484  15.484 -0.2986 -0.2549 -0.6347
 7802TIP3    H144821   5.092   2.423  15.529 -0.9555  0.1062 -0.9760
 7802TIP3    H244822   5.221   2.429  15.450  0.2790 -0.5194  0.9117
 7803TIP3   OH244823   1.871   1.463   0.733  0.8803 -0.6073  0.0842
 7803TIP3    H144824   1.925   1.407   0.788 -0.1740 -0.9432  0.8142
 7803TIP3    H244825   1.864   1.416   0.650  1.4552 -0.6917  0.0776
 7804TIP3   OH244826   3.126   3.975  11.017  0.1020  0.0077 -0.6230
 7804TIP3    H144827   3.035   3.995  11.041  0.3317 -0.9204  1.1289
 7804TIP3    H244828   3.144   4.034  10.944 -1.1790  1.8060  0.4292
 7805TIP3   OH244829   1.454   2.121   3.752  0.0769  0.7196  0.1157
 7805TIP3    H144830   1.394   2.087   3.818 -1.3710  3.8365  0.5531
 7805TIP3    H244831   1.528   2.156   3.803 -0.2832  1.6846 -0.0141
 7806TIP3   OH244832   1.446   3.666  13.320 -0.4126  0.2468  0.1608
 7806TIP3    H144833   1.361   3.640  13.356 -0.0406 -1.8958 -0.3632
 7806TIP3    H244834   1.489   3.583  13.299  2.1128  1.2397  1.0855
 7807TIP3   OH244835   3.526   5.268   4.410  0.3747  0.1218  0.0183
 7807TIP3    H144836   3.607   5.276   4.459  0.9079  0.8519 -0.9400
 7807TIP3    H244837   3.462   5.316   4.461  0.9509  0.9789 -0.0451
 7808TIP3   OH244838   4.083   3.023   1.577  0.3852  0.8411 -0.4634
 7808TIP3    H144839   4.122   3.047   1.661  1.8007  1.0021 -1.1261
 7808TIP3    H244840   4.158   3.017   1.517 -0.5169  0.0644 -1.5572
 7809TIP3   OH244841   4.927   4.087  13.368  0.2645  0.5999  0.2278
 7809TIP3    H144842   4.948   4.067  13.277  1.1430 -2.0874  0.9253
 7809TIP3    H244843   5.002   4.054  13.418 -0.0826  2.2328  1.9301
 7810TIP3   OH244844   2.661   0.726   4.668 -0.9712 -0.2664  0.0592
 7810TIP3    H144845   2.693   0.814   4.648 -2.3674 -0.0574 -1.4111
 7810TIP3    H244846   2.665   0.720   4.764  0.7065  0.7575  0.0971
 7811TIP3   OH244847   2.185   3.104   2.334 -0.3568  0.2563  0.0598
 7811TIP3    H144848   2.217   3.014   2.328  0.8420  0.7674 -2.1264
 7811TIP3    H244849   2.119   3.111   2.265 -1.8656  0.5504  1.4791
 7812TIP3   OH244850   1.955   5.829  15.017  0.2799  0.5844 -0.0318
 7812TIP3    H144851   1.881   5.890  15.018 -1.7916 -1.7236 -0.5778
 7812TIP3    H244852   1.987   5.832  14.927 -2.5793 -2.0021 -1.3315
 7813TIP3   OH244853   4.855   1.720   0.675 -0.3183  0.4627  0.2220
 7813TIP3    H144854   4.761   1.722   0.657 -0.1282  1.7204 -0.7736
 7813TIP3    H244855   4.885   1.809   0.656  0.8441  0.4720  1.8976
 7814TIP3   OH244856   2.086   0.214   0.861  0.1681 -0.2738 -0.4619
 7814TIP3    H144857   2.153   0.164   0.813  0.3166 -0.2091 -0.3230
 7814TIP3    H244858   2.097   0.303   0.830  0.2656 -0.2313 -0.3071
 7815TIP3   OH244859   3.993   3.108  11.710 -0.4562 -0.6025  0.0531
 7815TIP3    H144860   3.902   3.133  11.723 -0.0368  0.1930  1.6458
 7815TIP3    H244861   3.991   3.013  11.701 -1.4521 -0.5647 -0.2290
 7816TIP3   OH244862   3.211   5.487  16.660  0.8650  0.0965 -0.1905
 7816TIP3    H144863   3.149   5.461  16.727  0.1822 -0.2438 -0.9374
 7816TIP3    H244864   3.287   5.520  16.708  0.9468 -1.4266  0.7599
 7817TIP3   OH244865   3.292   1.994   6.218  0.7547  0.0899  0.4435
 7817TIP3    H144866   3.319   2.081   6.187  0.4512 -0.1391 -0.5129
 7817TIP3    H244867   3.375   1.946   6.229  0.8795  0.2112  0.0648
 7818TIP3   OH244868   2.362   3.459  15.845  0.0785 -0.1510  0.2013
 7818TIP3    H144869   2.342   3.380  15.895 -1.0732  0.4879  0.8037
 7818TIP3    H244870   2.334   3.531  15.901 -0.5926  0.6215 -1.0610
 7819TIP3   OH244871   0.743   4.239  12.850 -0.6473 -0.0835  0.0223
 7819TIP3    H144872   0.832   4.268  12.873 -1.1212 -0.7966  3.3639
 7819TIP3    H244873   0.696   4.319  12.829 -0.1021  0.8175  1.9849
 7820TIP3   OH244874   0.798   3.045   4.150 -0.3956  0.0093 -0.1455
 7820TIP3    H144875   0.731   3.070   4.214  0.6732  0.5588  0.7931
 7820TIP3    H244876   0.769   3.084   4.068  0.3281  3.0003  0.9065
 7821TIP3   OH244877   2.765   6.246  15.741 -0.4207 -0.4482 -0.0612
 7821TIP3    H144878   2.719   6.171  15.703 -0.5159 -0.8363  0.8174
 7821TIP3    H244879   2.855   6.237  15.710 -0.9516  0.4726 -2.0315
 7822TIP3   OH244880   4.417   4.283  16.825  0.2683  0.7114 -0.3728
 7822TIP3    H144881   4.489   4.294  16.763 -0.7280  2.5301 -1.2845
 7822TIP3    H244882   4.412   4.368  16.870 -2.8187  1.5485 -2.0620
 7823TIP3   OH244883   1.775   4.135  15.688  0.0326  0.1030 -0.1113
 7823TIP3    H144884   1.732   4.054  15.715 -0.9601 -0.0086 -1.9358
 7823TIP3    H244885   1.851   4.106  15.637  0.6778  0.3436  0.6709
 7824TIP3   OH244886   0.053   1.648   2.245 -0.0259  0.8902  0.0588
 7824TIP3    H144887   0.111   1.665   2.170  2.2870 -0.8771  1.3107
 7824TIP3    H244888   0.035   1.735   2.281  2.2992  1.5319 -0.1318
 7825TIP3   OH244889   0.305   2.435  15.442  0.3297 -0.1496  0.1937
 7825TIP3    H144890   0.212   2.453  15.455  0.2072 -0.5227 -0.1528
 7825TIP3    H244891   0.348   2.484  15.512 -0.2544 -1.3327  1.4182
 7826TIP3   OH244892   1.756   3.706   1.446  0.0027  0.0673 -0.3878
 7826TIP3    H144893   1.686   3.697   1.510 -1.9276  0.6124 -2.3078
 7826TIP3    H244894   1.781   3.798   1.450 -1.1450  0.4556 -1.3443
 7827TIP3   OH244895   6.245   1.012  16.390  0.5330 -0.4080 -0.0131
 7827TIP3    H144896   6.324   1.045  16.434  1.1890 -1.4026 -0.3896
 7827TIP3    H244897   6.230   1.073  16.318  0.9883 -0.2201  0.0449
 7828TIP3   OH244898   4.662   5.149   3.169 -0.0881 -0.4474 -0.0230
 7828TIP3    H144899   4.667   5.140   3.074  1.2513 -2.1864  0.1569
 7828TIP3    H244900   4.604   5.224   3.183 -0.9813 -0.6491 -2.1866
 7829TIP3   OH244901   3.585   1.532   3.105 -0.6120  0.1756  0.2280
 7829TIP3    H144902   3.500   1.558   3.141 -1.2530 -0.4190 -0.8192
 7829TIP3    H244903   3.598   1.442   3.135 -0.3935  0.2324  0.3079
 7830TIP3   OH244904   3.369   5.422   0.031  0.2590  0.1016 -0.0982
 7830TIP3    H144905   3.291   5.453  -0.015  1.8828  1.9422 -1.8563
 7830TIP3    H244906   3.426   5.499   0.034  2.0517 -1.2070  1.0072
 7831TIP3   OH244907   4.409   2.863   3.435 -0.1648 -0.1523  0.4325
 7831TIP3    H144908   4.374   2.797   3.375  1.4328 -0.3564 -0.3299
 7831TIP3    H244909   4.359   2.850   3.516 -2.7740  0.5152 -0.9673
 7832TIP3   OH244910   1.671   4.149  14.540 -0.1976  0.8899  0.7503
 7832TIP3    H144911   1.643   4.075  14.593 -1.0197  2.4320  2.5721
 7832TIP3    H244912   1.730   4.199  14.596  0.8109  1.3407 -0.6418
 7833TIP3   OH244913   2.095   5.275   0.950 -0.3288  0.6393 -0.2590
 7833TIP3    H144914   2.085   5.215   1.024 -0.9167 -1.2627 -1.8012
 7833TIP3    H244915   2.007   5.285   0.915 -0.3275  2.8299  0.2001
 7834TIP3   OH244916   5.190   5.939   0.755 -0.1130 -0.1520  0.3179
 7834TIP3    H144917   5.095   5.938   0.739  0.0211 -0.5952 -0.5447
 7834TIP3    H244918   5.207   6.026   0.790 -0.5745  0.6809 -1.3932
 7835TIP3   OH244919   4.220   0.905   4.124 -0.3511  0.2577  0.1670
 7835TIP3    H144920   4.287   0.875   4.186 -0.6742  0.6628  0.7296
 7835TIP3    H244921   4.184   0.983   4.165 -1.9032 -0.5380  0.3946
 7836TIP3   OH244922   4.328   2.189  13.930 -1.0635 -0.5217  0.1198
 7836TIP3    H144923   4.289   2.250  13.867 -1.6583 -0.2766  0.7150
 7836TIP3    H244924   4.338   2.240  14.010 -0.9195 -1.0112  0.4166
 7837TIP3   OH244925   6.146   1.779   1.875  0.7092 -0.3980  0.0978
 7837TIP3    H144926   6.063   1.817   1.849  1.4230  0.3922 -1.0869
 7837TIP3    H244927   6.148   1.693   1.832  0.4814 -0.4482  0.1869
 7838TIP3   OH244928   3.445   6.342   4.521 -0.4099  0.2994  0.3770
 7838TIP3    H144929   3.519   6.304   4.567  0.2887 -0.1792 -1.0793
 7838TIP3    H244930   3.405   6.402   4.584 -0.2369 -1.2126  1.9911
 7839TIP3   OH244931   0.787   6.518   5.353 -0.5841  0.5094  0.0729
 7839TIP3    H144932   0.827   6.594   5.312 -0.4652  1.5636  2.0298
 7839TIP3    H244933   0.825   6.443   5.307 -0.3664  1.5927 -1.5866
 7840TIP3   OH244934   6.562   4.752  12.603  0.6411  0.2675  0.6743
 7840TIP3    H144935   6.479   4.796  12.580  0.6208  0.1042  0.4288
 7840TIP3    H244936   6.613   4.755  12.522  0.6616 -0.1134  0.6732
 7841TIP3   OH244937   2.332   1.983   3.537 -0.7886  0.1967  0.4947
 7841TIP3    H144938   2.246   1.946   3.559 -1.7835  1.0338 -1.6722
 7841TIP3    H244939   2.357   1.939   3.455 -0.1528  1.4333 -0.0107
 7842TIP3   OH244940   2.545   1.787  13.890  0.2624  0.6484  0.0772
 7842TIP3    H144941   2.594   1.848  13.945 -0.0004  0.9016  0.0298
 7842TIP3    H244942   2.462   1.774  13.937 -0.0579  1.0458 -0.3785
 7843TIP3   OH244943   1.069   4.926   3.290 -0.1223  0.9077  0.4850
 7843TIP3    H144944   1.111   4.844   3.263 -0.6505 -0.1164  2.5919
 7843TIP3    H244945   1.021   4.955   3.212  0.5028 -0.5011 -0.4630
 7844TIP3   OH244946   6.586   5.808   4.953  0.3138  0.1828  0.0570
 7844TIP3    H144947   6.673   5.813   4.912  0.4299  0.1801  0.3045
 7844TIP3    H244948   6.532   5.866   4.900  0.7945  1.2737  0.7374
 7845TIP3   OH244949   0.969   4.000  10.469  0.2064  0.7638 -0.4033
 7845TIP3    H144950   1.005   3.937  10.531  2.4884 -0.1503 -2.5192
 7845TIP3    H244951   0.880   3.969  10.451  0.3914 -0.3509  0.5303
 7846TIP3   OH244952   2.567   5.612  13.308 -0.1716 -0.2269  0.4564
 7846TIP3    H144953   2.514   5.692  13.313  0.2349 -0.0170  2.0175
 7846TIP3    H244954   2.510   5.544  13.345  0.3026 -0.1776  1.3055
 7847TIP3   OH244955   1.924   5.256   1.582  0.3927 -0.1449  0.3288
 7847TIP3    H144956   1.961   5.191   1.521 -0.2850  0.0253 -0.2791
 7847TIP3    H244957   1.878   5.318   1.525  0.3199  0.3968  0.9721
 7848TIP3   OH244958   1.121   0.769  10.945 -0.0460 -0.1914 -0.3125
 7848TIP3    H144959   1.074   0.841  10.902 -1.3273  0.0018  1.3379
 7848TIP3    H244960   1.059   0.697  10.946  0.2215 -0.4209  0.5454
 7849TIP3   OH244961   1.950   0.492   3.266 -0.5724  0.1286  0.5102
 7849TIP3    H144962   1.985   0.403   3.261  1.0220  0.6706  1.4441
 7849TIP3    H244963   1.972   0.522   3.354 -0.0029  1.8748 -0.1857
 7850TIP3   OH244964   1.827   4.345  14.082  0.1592 -0.2362  0.4469
 7850TIP3    H144965   1.826   4.417  14.145 -2.9014 -0.6791  1.0428
 7850TIP3    H244966   1.807   4.386  13.998 -2.3377 -0.3795  0.9041
 7851TIP3   OH244967   6.325   2.213  12.168 -0.1669 -0.0560  0.2354
 7851TIP3    H144968   6.304   2.298  12.128 -1.1903  0.0453  0.9248
 7851TIP3    H244969   6.335   2.233  12.261  0.3938 -0.5653  0.2870
 7852TIP3   OH244970   1.869   2.956  16.777  0.7305 -1.1715 -0.5164
 7852TIP3    H144971   1.785   2.971  16.821  1.7557 -1.7370  1.8108
 7852TIP3    H244972   1.934   2.994  16.836  2.1454 -0.8784 -2.1851
 7853TIP3   OH244973   6.293   3.497  16.981  0.1408 -0.1570  0.0982
 7853TIP3    H144974   6.302   3.408  17.016  0.6905 -1.2798 -2.5737
 7853TIP3    H244975   6.236   3.486  16.905  1.5928  1.4260 -1.3083
 7854TIP3   OH244976   5.217   4.396   2.452  0.1339  0.3548 -0.1389
 7854TIP3    H144977   5.137   4.364   2.493  0.2045 -0.5088 -0.6559
 7854TIP3    H244978   5.257   4.318   2.413  1.3818  0.7063  0.3763
 7855TIP3   OH244979   4.093   5.564  12.045  0.0545  0.2617  0.4443
 7855TIP3    H144980   4.068   5.656  12.043  0.3087  0.3306 -1.3101
 7855TIP3    H244981   4.024   5.520  11.996  0.6538 -0.2836  0.0860
 7856TIP3   OH244982   4.183   0.927   4.563  0.4344  0.0239  0.1599
 7856TIP3    H144983   4.200   0.883   4.646  0.2020 -2.1712 -0.8798
 7856TIP3    H244984   4.159   0.856   4.503 -1.7146  1.7783 -1.2065
 7857TIP3   OH244985   1.465   5.492   5.558  0.1636 -0.0111 -0.3404
 7857TIP3    H144986   1.538   5.437   5.528  1.0641  0.6530  0.5809
 7857TIP3    H244987   1.415   5.510   5.478  1.1740 -0.2320 -1.0422
 7858TIP3   OH244988   5.748   2.530   0.820 -0.2934 -0.1863 -0.3724
 7858TIP3    H144989   5.671   2.579   0.791 -1.7960 -2.6084 -0.7827
 7858TIP3    H244990   5.810   2.597   0.848 -2.8420  1.8732  0.7861
 7859TIP3   OH244991   2.126   3.612  11.727  0.7358 -0.6036 -0.0366
 7859TIP3    H144992   2.069   3.554  11.677  1.9133 -0.3642 -1.7489
 7859TIP3    H244993   2.118   3.697  11.684  1.9360 -0.4363  0.0316
 7860TIP3   OH244994   1.300   5.701  15.007  0.1650 -0.1195 -0.2899
 7860TIP3    H144995   1.346   5.617  15.008  0.9951  0.1726  3.4687
 7860TIP3    H244996   1.210   5.679  15.034  0.0932  0.0774 -0.3678
 7861TIP3   OH244997   1.447   2.620  11.869  0.7348 -0.3342 -0.6107
 7861TIP3    H144998   1.460   2.714  11.877  0.8016 -0.2864 -1.2088
 7861TIP3    H244999   1.474   2.600  11.779 -1.8665 -0.4725 -1.4313
 7862TIP3   OH245000   2.635   0.529   0.066 -0.2453 -0.5376  0.3665
 7862TIP3    H145001   2.630   0.550  -0.028  0.3057  0.5269  0.5636
 7862TIP3    H245002   2.603   0.608   0.110 -2.3811 -1.6981  1.0638
 7863TIP3   OH245003   1.674   0.560  14.064  0.1366 -0.6677  0.6607
 7863TIP3    H145004   1.683   0.598  13.976 -2.0182  0.0815  0.7101
 7863TIP3    H245005   1.580   0.544  14.074  0.4813 -1.9455  2.3647
 7864TIP3   OH245006   4.180   1.303  15.235  0.1312 -0.9036  0.1608
 7864TIP3    H145007   4.209   1.212  15.245  2.4697 -0.3070 -0.4880
 7864TIP3    H245008   4.152   1.309  15.144  1.3535 -0.6753 -0.2248
 7865TIP3   OH245009   4.924   5.919   4.613 -1.0843 -0.1725  0.0621
 7865TIP3    H145010   4.830   5.900   4.604 -1.4007  1.5913 -0.9508
 7865TIP3    H245011   4.927   5.991   4.676 -0.6853  1.4005 -1.6553
 7866TIP3   OH245012   0.983   1.414   1.166  0.0646  0.2722  0.6904
 7866TIP3    H145013   0.967   1.475   1.237  0.0949 -2.1218  2.9102
 7866TIP3    H245014   1.004   1.331   1.209 -0.8888 -1.5928 -2.0920
 7867TIP3   OH245015   0.508   0.919  15.920  0.4988  0.0584  0.2539
 7867TIP3    H145016   0.594   0.952  15.949  1.0579  0.5147 -1.7860
 7867TIP3    H245017   0.469   0.993  15.874 -1.2285 -0.0085  1.5144
 7868TIP3   OH245018   2.802   4.744  17.291  0.2105 -0.0478  0.0202
 7868TIP3    H145019   2.860   4.676  17.327 -0.4960 -0.8517 -0.3503
 7868TIP3    H245020   2.859   4.796  17.235  0.7809 -0.2658  0.3823
 7869TIP3   OH245021   2.239   4.369   3.408 -0.2949 -0.0177 -0.0419
 7869TIP3    H145022   2.272   4.450   3.446  0.9487 -1.2953  1.8191
 7869TIP3    H245023   2.144   4.372   3.422 -0.0822  0.4572  1.4054
 7870TIP3   OH245024   5.634   0.001  12.497 -0.0839 -0.0105  0.0176
 7870TIP3    H145025   5.591  -0.066  12.445 -0.0567 -0.2839  0.3408
 7870TIP3    H245026   5.658   0.069  12.434 -0.8934  0.1002 -0.1807
 7871TIP3   OH245027   6.220   6.433  16.234 -0.0754 -0.1271  0.1815
 7871TIP3    H145028   6.223   6.354  16.180  2.1212  0.1480 -0.1979
 7871TIP3    H245029   6.220   6.505  16.172 -2.7772  0.2453  0.5101
 7872TIP3   OH245030   0.858   4.761   2.465  0.1724  0.1232 -0.4556
 7872TIP3    H145031   0.814   4.845   2.450 -0.8638 -0.2378  0.4626
 7872TIP3    H245032   0.944   4.772   2.424 -0.6667  0.9162 -2.1137
 7873TIP3   OH245033   1.272   5.921   3.892  0.0608 -0.3700  0.5160
 7873TIP3    H145034   1.202   5.907   3.829 -0.8524 -2.4954  1.8922
 7873TIP3    H245035   1.330   5.984   3.850  0.1382 -2.5156 -2.9182
 7874TIP3   OH245036   4.486   2.874   1.204 -0.8415 -0.4489  0.2420
 7874TIP3    H145037   4.481   2.788   1.163 -4.7718  0.2095 -1.0946
 7874TIP3    H245038   4.408   2.878   1.260 -0.0830  1.8106  1.2647
 7875TIP3   OH245039   0.642   3.361  11.647 -0.1629  0.0111  0.4763
 7875TIP3    H145040   0.712   3.355  11.712 -0.6930  0.3428  1.0877
 7875TIP3    H245041   0.604   3.447  11.662 -1.3437 -0.5546  0.8194
 7876TIP3   OH245042   6.156   4.616   5.552  0.2866 -0.1318  0.2594
 7876TIP3    H145043   6.101   4.544   5.585  0.2321 -0.7132 -1.0386
 7876TIP3    H245044   6.111   4.646   5.473  1.4575 -0.1450 -0.4375
 7877TIP3   OH245045   0.274   3.408   0.606 -0.2359  0.0916 -0.0931
 7877TIP3    H145046   0.242   3.420   0.695  1.8083 -1.8556  0.9945
 7877TIP3    H245047   0.233   3.327   0.576 -2.2555  1.5961 -1.6593
 7878TIP3   OH245048   3.488   3.789   2.461  0.3530  0.1843 -0.2066
 7878TIP3    H145049   3.486   3.788   2.366 -0.7650  3.0684 -0.3322
 7878TIP3    H245050   3.569   3.835   2.483 -0.2179  1.0934  0.1061
 7879TIP3   OH245051   5.875   5.724  15.390  0.5751 -0.5098  0.6238
 7879TIP3    H145052   5.803   5.686  15.441 -0.0723 -1.3773 -0.8767
 7879TIP3    H245053   5.936   5.652  15.377  0.0023 -0.7294 -1.0697
 7880TIP3   OH245054   5.472   1.047  14.425  0.1406  0.4208 -0.1837
 7880TIP3    H145055   5.424   0.969  14.454  0.1925 -0.3488 -2.0312
 7880TIP3    H245056   5.409   1.095  14.371  0.2555  1.4570  0.5685
 7881TIP3   OH245057   1.349   5.296   0.520  0.3306 -0.7249 -0.0286
 7881TIP3    H145058   1.316   5.364   0.461  1.1520 -0.3195 -0.0399
 7881TIP3    H245059   1.443   5.291   0.500  0.6722 -0.4416  1.3618
 7882TIP3   OH245060   0.674   4.590  15.261 -0.1255 -0.1674 -0.3144
 7882TIP3    H145061   0.705   4.557  15.177 -0.1104  3.4334 -1.9069
 7882TIP3    H245062   0.581   4.568  15.263 -0.0032 -0.7718 -1.0235
 7883TIP3   OH245063   0.425   5.718   3.382  0.0608 -0.4410 -0.3117
 7883TIP3    H145064   0.401   5.628   3.359  0.6859 -0.8295  0.4724
 7883TIP3    H245065   0.505   5.708   3.435 -2.0608  0.1820  3.3824
 7884TIP3   OH245066   0.655   6.260  13.873 -0.7598  0.0522  0.4023
 7884TIP3    H145067   0.637   6.201  13.947  0.3519 -0.2395  0.4565
 7884TIP3    H245068   0.569   6.274  13.833 -1.2795 -0.3462  1.3278
 7885TIP3   OH245069   4.783   4.914  15.858 -0.3007  0.4019 -0.0655
 7885TIP3    H145070   4.711   4.965  15.822 -1.1669  0.1816  1.2791
 7885TIP3    H245071   4.757   4.823  15.842  0.2675  0.3297 -0.6317
 7886TIP3   OH245072   5.890   4.357  11.737  0.4179 -0.1019 -0.0775
 7886TIP3    H145073   5.980   4.343  11.707  0.0724 -0.1432 -1.1632
 7886TIP3    H245074   5.871   4.447  11.710  0.5518  0.3661  1.3072
 7887TIP3   OH245075   1.498   1.605  16.549  0.3583  0.5708 -0.3635
 7887TIP3    H145076   1.510   1.629  16.641 -0.2512  1.1227 -0.4232
 7887TIP3    H245077   1.403   1.600  16.537  0.4444 -0.9612 -0.6010
 7888TIP3   OH245078   0.391   4.091   6.009 -0.0025  0.4098  0.5914
 7888TIP3    H145079   0.394   3.995   6.018 -1.5582  0.1164 -1.1556
 7888TIP3    H245080   0.309   4.116   6.051  0.2775  0.9417  0.8217
 7889TIP3   OH245081   2.722   3.970  13.329  0.4421 -0.4844 -0.3679
 7889TIP3    H145082   2.799   4.012  13.369 -1.3703  0.3249  2.6157
 7889TIP3    H245083   2.708   3.892  13.382 -1.6899  0.2754  0.3088
 7890TIP3   OH245084   6.729   0.760  12.784  0.0378  0.9645 -0.2155
 7890TIP3    H145085   6.701   0.668  12.778  0.0697  0.9471 -0.1070
 7890TIP3    H245086   6.822   0.755  12.805 -0.1540  1.0170  0.6851
 7891TIP3   OH245087   4.422   0.320  11.889  0.5792 -0.2405 -0.8419
 7891TIP3    H145088   4.469   0.322  11.805  0.9940  0.6605 -0.6060
 7891TIP3    H245089   4.448   0.238  11.930  0.2806 -0.7445 -1.6459
 7892TIP3   OH245090   3.538   3.187   1.142  0.5793  0.5871  0.2008
 7892TIP3    H145091   3.513   3.095   1.153 -1.0525  0.9829  0.0550
 7892TIP3    H245092   3.631   3.184   1.118  0.9467 -0.9291  1.6670
 7893TIP3   OH245093   5.909   6.246   2.702 -0.2754  0.3918 -0.3751
 7893TIP3    H145094   5.997   6.208   2.703 -0.1979  0.5750 -0.1654
 7893TIP3    H245095   5.855   6.182   2.748 -0.7723 -0.9414 -2.6517
 7894TIP3   OH245096   0.100   6.287   0.104 -0.8252 -0.2175  0.0780
 7894TIP3    H145097   0.182   6.335   0.098 -1.3150  0.6374 -0.0164
 7894TIP3    H245098   0.039   6.348   0.145 -1.6975 -0.4359 -0.8355
 7895TIP3   OH245099   0.406   0.141  14.594  0.0811  0.0370  0.4560
 7895TIP3    H145100   0.420   0.089  14.515 -0.3616 -1.6661  1.4422
 7895TIP3    H245101   0.319   0.178  14.583 -0.4264 -1.0755  0.5910
 7896TIP3   OH245102   5.057   1.775  15.871 -0.6439 -0.6988 -0.9937
 7896TIP3    H145103   5.035   1.813  15.786 -1.0474 -0.9870 -1.0204
 7896TIP3    H245104   5.069   1.850  15.929 -0.9810 -0.5175 -1.1589
 7897TIP3   OH245105   2.337   6.240   1.874  0.9557 -0.1310 -0.3730
 7897TIP3    H145106   2.246   6.254   1.903  1.7081  2.0612  1.1986
 7897TIP3    H245107   2.365   6.326   1.842  3.0638 -0.2259  1.0341
 7898TIP3   OH245108   3.948   5.380  14.797 -0.3920 -0.7211 -0.7141
 7898TIP3    H145109   4.027   5.387  14.851 -2.0643  0.4500  1.7622
 7898TIP3    H245110   3.947   5.459  14.744 -1.0694  0.4780  1.0232
 7899TIP3   OH245111   5.396   0.172   1.512 -0.4246 -0.1801  0.2918
 7899TIP3    H145112   5.491   0.167   1.505 -0.4659 -0.6359  0.0142
 7899TIP3    H245113   5.366   0.083   1.497 -0.8720 -0.1156  0.7964
 7900TIP3   OH245114   2.187   0.001   0.072  0.2462 -0.0550  0.4780
 7900TIP3    H145115   2.255  -0.058   0.039 -0.7981 -1.3388  0.5443
 7900TIP3    H245116   2.120   0.001   0.005 -0.1298  0.4329  0.8430
 7901TIP3   OH245117   2.168   3.824  14.356 -0.0508 -0.1220  0.2594
 7901TIP3    H145118   2.202   3.911  14.333 -1.6364  0.0541 -1.7984
 7901TIP3    H245119   2.128   3.835  14.442 -0.7452  1.3991 -0.2205
 7902TIP3   OH245120   5.517   5.858  12.481 -0.1057 -0.1694  0.4145
 7902TIP3    H145121   5.504   5.947  12.448 -0.3653  0.4280  2.0359
 7902TIP3    H245122   5.463   5.853  12.560  1.1212 -1.2355  1.2375
 7903TIP3   OH245123   3.158   2.392   2.355  0.3105  0.1812 -0.0282
 7903TIP3    H145124   3.186   2.314   2.307 -0.0144  1.3228 -2.1511
 7903TIP3    H245125   3.236   2.447   2.358  0.7637 -0.4753  2.1508
 7904TIP3   OH245126   0.612   0.989  11.670 -0.0864 -0.0512 -0.4819
 7904TIP3    H145127   0.676   0.959  11.735 -1.1115  2.5027  1.8859
 7904TIP3    H245128   0.656   1.060  11.624 -0.3541  0.0668 -0.5583
 7905TIP3   OH245129   1.254   0.011   2.491 -0.5006  0.2949  0.7061
 7905TIP3    H145130   1.299   0.068   2.429 -0.5166  0.5020  0.8868
 7905TIP3    H245131   1.324  -0.031   2.540 -0.4093 -1.1853 -0.6097
 7906TIP3   OH245132   5.232   6.351  12.935  0.0798  0.1861  0.0263
 7906TIP3    H145133   5.257   6.439  12.907  1.2081  0.3595  1.4410
 7906TIP3    H245134   5.225   6.357  13.031 -2.2905 -0.6836 -0.0239
 7907TIP3   OH245135   0.325   5.900   4.260  0.4276  0.0764 -0.5678
 7907TIP3    H145136   0.369   5.899   4.345 -1.5722  0.3083  0.5405
 7907TIP3    H245137   0.254   5.963   4.271 -0.6967 -0.8918 -1.9706
 7908TIP3   OH245138   5.493   4.823   0.546  0.0053 -0.1894  0.6958
 7908TIP3    H145139   5.401   4.835   0.572 -0.7520 -2.2987 -0.7099
 7908TIP3    H245140   5.506   4.728   0.550  1.3119 -0.1800 -1.7172
 7909TIP3   OH245141   1.873   4.954  12.921 -0.0642  0.2853 -0.3650
 7909TIP3    H145142   1.813   5.026  12.901  0.9347  1.7825  1.6054
 7909TIP3    H245143   1.959   4.987  12.894  0.4998  0.1536  1.1828
 7910TIP3   OH245144   2.795   5.494  12.792  0.1028 -0.2118  0.3329
 7910TIP3    H145145   2.701   5.507  12.800  0.3618  1.1831  1.7160
 7910TIP3    H245146   2.825   5.478  12.882  1.1543 -0.9059 -0.1197
 7911TIP3   OH245147   3.606   2.073  13.593 -0.0743  0.1876  0.3539
 7911TIP3    H145148   3.548   2.002  13.567 -0.1086  0.3556 -0.0293
 7911TIP3    H245149   3.693   2.033  13.594 -0.0245  0.2619 -0.3574
 7912TIP3   OH245150   6.355   4.742   4.671  0.0990  0.0729  0.8543
 7912TIP3    H145151   6.333   4.649   4.666  2.2745 -0.4328 -3.0259
 7912TIP3    H245152   6.448   4.744   4.691  0.5260  1.2532 -0.9813
 7913TIP3   OH245153   2.174   5.291   5.626 -0.1480 -0.2443  0.0600
 7913TIP3    H145154   2.113   5.302   5.553  1.3310 -1.0381 -1.3761
 7913TIP3    H245155   2.143   5.212   5.671 -1.1694  0.3472  0.4424
 7914TIP3   OH245156   1.731   6.753   5.416 -0.0500 -0.3008  0.0816
 7914TIP3    H145157   1.734   6.669   5.369  0.2025 -1.0743  1.4428
 7914TIP3    H245158   1.812   6.798   5.390 -0.3201 -0.3440 -0.8665
 7915TIP3   OH245159   3.877   5.235  12.551  0.0215  0.3865 -0.5143
 7915TIP3    H145160   3.804   5.173  12.558  0.1875  0.2333 -0.0802
 7915TIP3    H245161   3.948   5.194  12.599 -0.3270  1.5844  1.1470
 7916TIP3   OH245162   6.430   6.260   3.660  0.0070 -0.9585  0.1950
 7916TIP3    H145163   6.351   6.222   3.622  1.0361 -2.0757 -0.9073
 7916TIP3    H245164   6.486   6.279   3.585  0.2141  1.2253  0.8513
 7917TIP3   OH245165   4.659   3.113  13.390 -0.0437 -0.1983 -0.5533
 7917TIP3    H145166   4.681   3.112  13.297 -0.3357  0.7353 -0.6483
 7917TIP3    H245167   4.572   3.154  13.394  0.5465  1.0650  0.2196
 7918TIP3   OH245168   6.633   3.526  13.203 -0.0586  0.1957 -0.2251
 7918TIP3    H145169   6.575   3.492  13.271  0.3889  0.0702  0.1040
 7918TIP3    H245170   6.606   3.617  13.191 -1.5043 -0.3401 -1.3689
 7919TIP3   OH245171   1.423   3.869   6.107 -0.0864 -0.7622  0.1634
 7919TIP3    H145172   1.366   3.801   6.070 -2.0183  0.4747  0.6825
 7919TIP3    H245173   1.449   3.835   6.193 -0.5098 -1.1203  0.1533
 7920TIP3   OH245174   2.300   6.696   1.234  0.3362 -0.1896  0.1964
 7920TIP3    H145175   2.322   6.674   1.143  2.7865 -1.2760  0.9697
 7920TIP3    H245176   2.382   6.728   1.271 -0.4123 -0.5025  2.2539
 7921TIP3   OH245177   0.217   2.179  12.167  0.4731 -0.6198 -0.0372
 7921TIP3    H145178   0.286   2.160  12.231  0.1596 -1.7069 -0.0141
 7921TIP3    H245179   0.263   2.180  12.083  0.6069 -0.7979  0.0341
 7922TIP3   OH245180   5.064   6.365  17.060 -0.2182 -0.5139  0.8502
 7922TIP3    H145181   5.107   6.366  16.974 -1.6141  1.5151  0.1013
 7922TIP3    H245182   5.016   6.283  17.060  0.0161 -0.6780 -0.2095
 7923TIP3   OH245183   2.999   5.160   1.294  0.1030 -0.1107 -0.0746
 7923TIP3    H145184   2.974   5.154   1.386 -0.7758 -0.4433 -0.3245
 7923TIP3    H245185   2.927   5.207   1.252  0.0121 -0.8332 -0.7609
 7924TIP3   OH245186   3.065   4.979  13.055  0.0714  0.7041 -0.0259
 7924TIP3    H145187   3.134   4.954  13.116  0.4314 -0.7920 -0.9964
 7924TIP3    H245188   3.106   5.046  13.000 -0.6175  2.9674  2.0109
 7925TIP3   OH245189   1.398   0.688  11.529 -0.0350  0.2611  0.0630
 7925TIP3    H145190   1.327   0.748  11.507 -0.3549 -0.6177 -1.3686
 7925TIP3    H245191   1.359   0.625  11.589 -0.2348  0.2652 -0.0630
 7926TIP3   OH245192   4.137   4.411   0.794 -0.2823 -0.3066 -0.4060
 7926TIP3    H145193   4.052   4.454   0.801  0.2074  0.6973 -0.4803
 7926TIP3    H245194   4.147   4.365   0.878  0.8889  3.0076  1.4883
 7927TIP3   OH245195   2.847   4.164   1.186  0.4182  0.0203  0.0706
 7927TIP3    H145196   2.923   4.126   1.231  1.2935  1.5143 -0.0888
 7927TIP3    H245197   2.804   4.218   1.252 -0.8475 -1.2230  0.3088
 7928TIP3   OH245198   6.541   3.592  11.630  0.5885  0.0979 -0.0033
 7928TIP3    H145199   6.557   3.686  11.643  2.2783  0.0273 -1.2460
 7928TIP3    H245200   6.599   3.568  11.558 -2.2088 -1.2088 -1.9819
 7929TIP3   OH245201   1.133   3.057  11.254  0.2926 -0.3118  0.0659
 7929TIP3    H145202   1.135   3.005  11.173  0.3438 -0.4105  0.1297
 7929TIP3    H245203   1.223   3.054  11.286  0.5317  0.6768 -0.4741
 7930TIP3   OH245204   6.296   4.085  16.125 -0.1879 -0.6630 -0.3948
 7930TIP3    H145205   6.351   4.020  16.082 -3.1094 -4.8314  1.4343
 7930TIP3    H245206   6.332   4.094  16.213  0.0615  0.0764 -0.5647
 7931TIP3   OH245207   2.884   0.258  15.438 -0.4860 -0.1904  0.2005
 7931TIP3    H145208   2.790   0.272  15.450 -0.4140 -0.6188  1.4244
 7931TIP3    H245209   2.914   0.334  15.389 -1.1938  0.7668  1.2067
 7932TIP3   OH245210   2.577   3.213  12.171  0.4495  0.2918  0.3137
 7932TIP3    H145211   2.642   3.196  12.239 -0.2368 -0.9500  0.6867
 7932TIP3    H245212   2.544   3.301  12.190 -0.9186 -0.6288  2.6491
 7933TIP3   OH245213   4.186   0.696   5.866 -0.2411 -0.1741 -0.6659
 7933TIP3    H145214   4.272   0.710   5.905 -0.0230  1.0720 -1.5542
 7933TIP3    H245215   4.155   0.614   5.906  1.7270 -1.1435 -1.0025
 7934TIP3   OH245216   2.103   4.251   4.873  0.5712 -0.5883 -0.1640
 7934TIP3    H145217   2.026   4.286   4.918  1.0248  0.6625 -0.3187
 7934TIP3    H245218   2.077   4.246   4.782  1.2423  1.6999 -0.5509
 7935TIP3   OH245219   2.489   2.670   1.727  0.7559  0.1316 -0.0769
 7935TIP3    H145220   2.528   2.753   1.699  1.1605 -0.9045 -2.8935
 7935TIP3    H245221   2.456   2.688   1.815  1.8314  2.9289 -0.1359
 7936TIP3   OH245222   0.914   1.326  11.976 -0.3937 -0.6896 -0.2186
 7936TIP3    H145223   0.858   1.374  11.915 -0.9337 -1.6913 -0.5445
 7936TIP3    H245224   0.854   1.270  12.024 -0.0206  0.3375  1.5216
 7937TIP3   OH245225   5.329   0.301  13.280 -0.4792  0.1787 -0.4277
 7937TIP3    H145226   5.240   0.334  13.273 -0.8419 -0.3123  1.3751
 7937TIP3    H245227   5.359   0.329  13.366  0.5440 -0.9731 -0.3731
 7938TIP3   OH245228   0.909   3.642  14.346 -0.0936  0.0897 -0.7102
 7938TIP3    H145229   0.823   3.655  14.306 -0.7860 -0.2012  0.6309
 7938TIP3    H245230   0.895   3.575  14.413  1.0047  0.5568  0.0252
 7939TIP3   OH245231   5.083   1.354  14.418  0.6805  0.1689  0.0303
 7939TIP3    H145232   5.137   1.300  14.475  2.0048  0.6649 -0.7243
 7939TIP3    H245233   5.035   1.412  14.479  0.5260 -0.6814  0.7317
 7940TIP3   OH245234   3.137   4.323  12.152  0.3409  0.5716 -0.4470
 7940TIP3    H145235   3.156   4.333  12.245 -0.4595 -0.1781 -0.1917
 7940TIP3    H245236   3.222   4.303  12.112  0.5699  0.1408  0.2378
 7941TIP3   OH245237   4.753   5.023   2.175 -0.3493 -0.1426 -0.5536
 7941TIP3    H145238   4.691   5.080   2.128 -1.4897 -2.7290 -2.4202
 7941TIP3    H245239   4.834   5.029   2.125  0.2255  1.3801  0.4883
 7942TIP3   OH245240   3.128   1.173   4.207 -0.0320  0.2883  0.2043
 7942TIP3    H145241   3.038   1.197   4.225  0.0135 -0.0697  0.9638
 7942TIP3    H245242   3.136   1.177   4.112 -1.5074 -1.9966 -0.0796
 7943TIP3   OH245243   1.159   0.855  12.465  0.0150 -0.6727 -0.1690
 7943TIP3    H145244   1.080   0.893  12.426 -1.2419 -1.4599  1.4760
 7943TIP3    H245245   1.188   0.920  12.528 -0.4345 -1.1631  0.5592
 7944TIP3   OH245246   5.158   3.845   6.592  0.2649 -0.2598  0.2255
 7944TIP3    H145247   5.078   3.892   6.619  0.9764  0.0678  1.8889
 7944TIP3    H245248   5.140   3.754   6.614  0.6323 -0.0708  1.3968
 7945TIP3   OH245249   1.916   1.133   5.722  1.0035  0.7954  0.3672
 7945TIP3    H145250   1.877   1.128   5.809  1.4896 -0.7496  0.5239
 7945TIP3    H245251   1.841   1.129   5.662  0.7247  0.9745  0.7026
 7946TIP3   OH245252   1.017   3.102  14.038  0.4571  0.4732 -0.1539
 7946TIP3    H145253   0.998   3.121  14.130 -0.4510 -0.5308 -0.1236
 7946TIP3    H245254   0.952   3.153  13.989 -0.2927 -0.4739 -0.1628
 7947TIP3   OH245255   6.030   1.024  16.992  0.2480  0.5660  0.3206
 7947TIP3    H145256   5.947   0.978  16.997  0.6634 -0.4986 -1.5829
 7947TIP3    H245257   6.010   1.107  16.950  0.2163  0.0070 -0.8117
 7948TIP3   OH245258   4.870   1.099   3.042 -0.0091 -0.1211 -0.3313
 7948TIP3    H145259   4.843   1.182   3.081  1.0391 -0.6915  1.7364
 7948TIP3    H245260   4.790   1.046   3.041 -0.0762 -0.0545  0.9736
 7949TIP3   OH245261   1.726   2.843  12.946  0.7195 -0.0505 -0.1468
 7949TIP3    H145262   1.793   2.873  13.006 -0.5952  1.1946  0.7823
 7949TIP3    H245263   1.714   2.750  12.968  2.0707 -0.2808 -0.3064
 7950TIP3   OH245264   4.492   4.565   0.110  0.0133 -0.4979 -0.0741
 7950TIP3    H145265   4.500   4.650   0.153  1.8689 -0.6316 -0.0751
 7950TIP3    H245266   4.402   4.562   0.079 -0.4523  0.9338  1.0317
 7951TIP3   OH245267   4.620   0.989  16.331 -0.1451  0.2827  0.3258
 7951TIP3    H145268   4.715   0.994  16.342 -0.2643  1.3890  0.9862
 7951TIP3    H245269   4.603   0.898  16.307  1.3069  0.6067 -2.2608
 7952TIP3   OH245270   2.793   0.524  16.702 -0.7990  0.5665 -0.0148
 7952TIP3    H145271   2.834   0.443  16.671 -0.6452  0.9559 -0.8634
 7952TIP3    H245272   2.744   0.557  16.626 -1.5447  0.8392  0.5675
 7953TIP3   OH245273   1.546   0.862   2.468  0.1862  0.6346 -0.3291
 7953TIP3    H145274   1.563   0.851   2.374 -1.5540  0.4652 -0.6527
 7953TIP3    H245275   1.453   0.845   2.477  0.4016  0.2887  1.5071
 7954TIP3   OH245276   3.672   3.815   3.606  0.1079 -0.5504 -0.0849
 7954TIP3    H145277   3.753   3.764   3.600  0.5934  0.3402 -1.9958
 7954TIP3    H245278   3.604   3.756   3.576  0.6744 -0.1232 -2.3600
 7955TIP3   OH245279   0.391   2.367  16.424 -0.4613  0.4643  0.3540
 7955TIP3    H145280   0.321   2.323  16.376  1.1638  1.9201 -3.8188
 7955TIP3    H245281   0.346   2.435  16.474 -2.2001  0.1921 -0.7381
 7956TIP3   OH245282   5.664   2.021  13.300 -0.3433 -0.0525 -0.2530
 7956TIP3    H145283   5.720   2.098  13.302  2.9616 -2.2327  0.7984
 7956TIP3    H245284   5.654   2.002  13.206 -0.4189  1.1077 -0.4946
 7957TIP3   OH245285   2.376   5.005  15.693 -0.6992  0.3464  0.0149
 7957TIP3    H145286   2.392   4.915  15.721 -1.0627  0.0594 -0.6869
 7957TIP3    H245287   2.449   5.025  15.635  0.4463  1.1856  1.6476
 7958TIP3   OH245288   0.239   1.808   5.188 -0.1317  0.2135  0.2853
 7958TIP3    H145289   0.255   1.749   5.261  2.3543  0.4299 -0.0221
 7958TIP3    H245290   0.212   1.890   5.229 -0.9085 -0.2849  0.8185
 7959TIP3   OH245291   3.134   5.330  17.105 -0.5730 -0.7381 -0.5568
 7959TIP3    H145292   3.208   5.351  17.049 -0.5321 -1.8550 -0.9551
 7959TIP3    H245293   3.100   5.415  17.135 -0.9922 -0.0725 -2.7564
 7960TIP3   OH245294   0.202   5.688   4.611  0.0953  0.1128 -0.6266
 7960TIP3    H145295   0.219   5.751   4.680 -2.0055  2.2693 -1.9177
 7960TIP3    H245296   0.252   5.720   4.536 -0.2194 -0.3416 -1.0373
 7961TIP3   OH245297   4.595   1.307  17.283 -0.1386 -0.2458 -0.9440
 7961TIP3    H145298   4.618   1.345  17.368  1.7052  0.0962 -1.5347
 7961TIP3    H245299   4.629   1.217  17.287 -1.5362 -0.7914 -0.7495
 7962TIP3   OH245300   6.044   2.349  16.255 -0.9581  0.0019 -0.1552
 7962TIP3    H145301   5.981   2.278  16.266 -0.2957 -0.2800  2.6387
 7962TIP3    H245302   6.128   2.304  16.239 -0.7172  0.1628  0.6106
 7963TIP3   OH245303   1.892   4.019  11.561 -0.0889 -0.0942 -0.0660
 7963TIP3    H145304   1.829   4.092  11.562  1.0985  0.9804  1.1994
 7963TIP3    H245305   1.837   3.941  11.559 -1.4408  0.8160 -0.4709
 7964TIP3   OH245306   5.682   0.076  14.378  0.1289  0.4423  0.0530
 7964TIP3    H145307   5.728   0.103  14.458  1.6961 -0.2861 -0.5569
 7964TIP3    H245308   5.720   0.130  14.309 -1.1899  1.0443 -0.2234
 7965TIP3   OH245309   2.996   2.184  15.442  0.1091  0.2172 -0.4329
 7965TIP3    H145310   3.087   2.211  15.425  1.0282 -2.2052  0.1964
 7965TIP3    H245311   2.946   2.223  15.371  1.9917 -0.0208 -1.9882
 7966TIP3   OH245312   2.616   1.579  12.035 -0.5408  0.3689 -0.3510
 7966TIP3    H145313   2.673   1.656  12.048 -2.6502  2.0817 -0.6591
 7966TIP3    H245314   2.590   1.554  12.124  0.6353 -0.4290 -0.2080
 7967TIP3   OH245315   1.357   0.397   1.998 -0.0131  0.4149 -0.2065
 7967TIP3    H145316   1.436   0.348   2.020  0.7242  0.4576 -2.4343
 7967TIP3    H245317   1.312   0.340   1.935 -0.5253  1.4205 -0.7696
 7968TIP3   OH245318   1.977   0.764  16.652  0.7360 -0.2758 -0.1824
 7968TIP3    H145319   1.982   0.670  16.671 -0.0555 -0.4454 -0.7513
 7968TIP3    H245320   1.893   0.775  16.607  0.2648  0.9017  0.9396
 7969TIP3   OH245321   5.635   5.087   1.572  0.2280 -0.2221 -0.2449
 7969TIP3    H145322   5.671   5.083   1.484  0.6217 -0.4123 -0.0752
 7969TIP3    H245323   5.552   5.134   1.561  0.7297  0.6226 -0.5653
 7970TIP3   OH245324   1.277   2.916  14.856 -0.0312 -0.7390 -0.0320
 7970TIP3    H145325   1.347   2.932  14.920 -0.8313 -0.5437  0.8124
 7970TIP3    H245326   1.256   2.823  14.867 -0.9363 -0.4573  0.8124
 7971TIP3   OH245327   5.057   5.518  12.272  0.0250 -0.0540  0.0458
 7971TIP3    H145328   5.042   5.593  12.329  0.1205 -0.8325  1.1232
 7971TIP3    H245329   5.007   5.537  12.193 -0.6381  0.7517  0.6451
 7972TIP3   OH245330   3.736   5.267  16.522  0.3621 -0.2586  0.1349
 7972TIP3    H145331   3.646   5.266  16.490 -0.1738 -0.3670  1.5700
 7972TIP3    H245332   3.774   5.346  16.484 -0.5961  0.2391  0.1787
 7973TIP3   OH245333   6.756   6.422   1.609 -0.4841  0.4412 -0.5308
 7973TIP3    H145334   6.795   6.346   1.565 -1.2541 -0.6356  0.5884
 7973TIP3    H245335   6.801   6.497   1.570  1.3990 -0.6475 -0.6059
 7974TIP3   OH245336   1.648   2.345   3.229 -0.1804  0.2673 -0.1294
 7974TIP3    H145337   1.699   2.345   3.310  0.1133 -2.1674 -0.2328
 7974TIP3    H245338   1.698   2.290   3.169 -0.8155  1.3321 -1.7022
 7975TIP3   OH245339   5.684   4.251  10.716  0.5958  0.1667  0.3613
 7975TIP3    H145340   5.618   4.280  10.779  1.3611  1.8239  0.4508
 7975TIP3    H245341   5.644   4.268  10.631 -0.3333 -1.8272  0.3606
 7976TIP3   OH245342   1.804   5.516   4.490 -0.5409 -0.3206 -0.1890
 7976TIP3    H145343   1.785   5.590   4.432  0.7444 -0.0043 -0.2461
 7976TIP3    H245344   1.744   5.447   4.461  0.3615 -0.3301 -2.2281
 7977TIP3   OH245345   1.919   6.294  12.585  0.7430 -0.3816 -0.1366
 7977TIP3    H145346   1.840   6.345  12.564  0.9092 -0.5720 -1.3237
 7977TIP3    H245347   1.967   6.348  12.647 -0.5924 -0.5152  1.0493
 7978TIP3   OH245348   2.658   2.555   6.580  0.3569  0.6181 -0.1594
 7978TIP3    H145349   2.672   2.644   6.549  1.9062 -0.4799 -2.9848
 7978TIP3    H245350   2.745   2.524   6.605 -0.1448 -0.1635  0.6918
 7979TIP3   OH245351   1.873   1.388  12.388 -0.5145 -0.2181 -0.1793
 7979TIP3    H145352   1.790   1.343  12.374 -0.2950  0.0332 -2.6265
 7979TIP3    H245353   1.848   1.475  12.419 -1.1471 -0.2577 -0.5676
 7980TIP3   OH245354   0.044   4.185   2.494  0.2777 -0.5932  0.5260
 7980TIP3    H145355   0.097   4.125   2.547  1.3283  0.1576  0.3674
 7980TIP3    H245356   0.108   4.237   2.445 -0.6256  0.0716  0.0059
 7981TIP3   OH245357   2.222   4.341  16.261 -0.9045 -0.3270 -0.2782
 7981TIP3    H145358   2.286   4.347  16.190 -1.3883 -2.9711 -1.0304
 7981TIP3    H245359   2.163   4.415  16.246 -0.1553 -0.0045 -1.7819
 7982TIP3   OH245360   1.766   0.787   4.145 -0.1865  0.1233  0.2855
 7982TIP3    H145361   1.811   0.871   4.131  1.8036 -0.9789 -0.3938
 7982TIP3    H245362   1.673   0.808   4.139  0.2637  2.2427 -0.0625
 7983TIP3   OH245363   0.384   4.768  16.990  0.5438 -0.9248 -0.5475
 7983TIP3    H145364   0.410   4.709  17.061 -1.3978 -0.0097  1.0196
 7983TIP3    H245365   0.295   4.742  16.969  0.3177  0.2697 -1.1351
 7984TIP3   OH245366   5.818   4.529  11.283  0.4318  0.0057  0.2050
 7984TIP3    H145367   5.791   4.437  11.274  0.9342 -0.0900 -0.3932
 7984TIP3    H245368   5.912   4.528  11.266  0.4011  0.6573 -0.0231
 7985TIP3   OH245369   5.329   3.235  13.882 -0.0744 -0.4177 -0.3973
 7985TIP3    H145370   5.271   3.159  13.876 -2.2339  1.0271  0.8585
 7985TIP3    H245371   5.291   3.288  13.952  2.8138  0.6388  0.4980
 7986TIP3   OH245372   3.433   0.811  16.787 -0.6653  0.2055  0.5169
 7986TIP3    H145373   3.399   0.730  16.824 -0.4898  0.2010  0.6679
 7986TIP3    H245374   3.480   0.782  16.708 -1.6133  0.2882 -0.0852
 7987TIP3   OH245375   6.246   0.944  16.877  0.6340 -0.3211  0.5153
 7987TIP3    H145376   6.251   1.024  16.824 -1.7705 -1.0355 -0.9713
 7987TIP3    H245377   6.171   0.958  16.934  0.7896 -1.1507  0.9339
 7988TIP3   OH245378   2.775   5.070  14.655  0.2175  0.2253 -0.3611
 7988TIP3    H145379   2.732   5.011  14.717 -0.9502  1.5120  0.0790
 7988TIP3    H245380   2.837   5.120  14.708  0.6390 -0.0430 -0.5939
 7989TIP3   OH245381   4.405   3.150   0.282  0.1799 -0.3285  0.0752
 7989TIP3    H145382   4.366   3.219   0.229  0.7405  0.0540  0.1438
 7989TIP3    H245383   4.370   3.069   0.247  1.1835 -0.1388 -1.4312
 7990TIP3   OH245384   1.109   5.026   2.609 -0.0854 -0.0612  0.0107
 7990TIP3    H145385   1.162   4.973   2.550 -0.7412 -1.0353  0.2625
 7990TIP3    H245386   1.036   4.969   2.632 -1.2583  1.2344 -0.3451
 7991TIP3   OH245387   0.357   3.170  13.313 -0.1298  0.3201 -0.3089
 7991TIP3    H145388   0.304   3.169  13.392  0.8800 -1.1697  0.3814
 7991TIP3    H245389   0.321   3.100  13.258 -0.4487  0.9553 -0.9272
 7992TIP3   OH245390   5.848   6.189  13.698  0.0507  0.1570 -0.5211
 7992TIP3    H145391   5.941   6.211  13.700  1.2739 -4.1088 -0.4975
 7992TIP3    H245392   5.830   6.166  13.607 -1.1120  1.1521 -0.5773
 7993TIP3   OH245393   5.299   4.568   5.183 -0.3213 -0.1930  0.3323
 7993TIP3    H145394   5.387   4.593   5.209 -0.9851  0.9343  1.6599
 7993TIP3    H245395   5.246   4.647   5.199 -1.7964 -1.2245  0.7647
 7994TIP3   OH245396   0.959   3.638  13.930  0.1532  0.3752  0.2572
 7994TIP3    H145397   1.024   3.644  13.860  0.6710  0.8903  0.7712
 7994TIP3    H245398   0.881   3.679  13.894 -0.1253 -0.8311 -0.6064
 7995TIP3   OH245399   5.351   1.599  15.838  0.1277 -0.1296  0.1953
 7995TIP3    H145400   5.332   1.656  15.763  1.3622 -2.4859 -2.1047
 7995TIP3    H245401   5.299   1.520  15.821  0.4077 -0.7135  1.8841
 7996TIP3   OH245402   0.915   4.610   1.253  0.0339  0.2809  0.6461
 7996TIP3    H145403   0.857   4.550   1.206  1.6930  0.0216 -1.1913
 7996TIP3    H245404   0.951   4.558   1.325 -1.3734  0.2374  1.3647
 7997TIP3   OH245405   2.174   2.226  14.146  0.2824 -0.2652  0.4054
 7997TIP3    H145406   2.252   2.268  14.181  0.4490  0.5177 -0.8467
 7997TIP3    H245407   2.171   2.253  14.054  0.3011 -2.8242 -0.4360
 7998TIP3   OH245408   6.152   4.804  16.611  0.0968  0.0377  0.4688
 7998TIP3    H145409   6.213   4.872  16.638  0.0575  0.2562  0.0115
 7998TIP3    H245410   6.069   4.850  16.595 -0.1770 -0.2468  1.0198
 7999TIP3   OH245411   2.004   2.238   4.521 -0.8282  0.6797  0.1092
 7999TIP3    H145412   1.913   2.214   4.536 -0.4296 -0.4941  0.7880
 7999TIP3    H245413   2.045   2.158   4.487 -0.2252  1.4243 -0.9923
 8000TIP3   OH245414   5.885   4.414  15.903 -0.6236 -0.0755 -0.8756
 8000TIP3    H145415   5.939   4.392  15.979 -0.7548 -0.2676 -0.8373
 8000TIP3    H245416   5.938   4.390  15.828 -1.0548 -1.2397 -0.8312
 8001TIP3   OH245417   5.276   3.483  15.895 -0.3484  0.2175 -0.4315
 8001TIP3    H145418   5.265   3.556  15.834  1.2495 -0.1579 -1.2311
 8001TIP3    H245419   5.323   3.417  15.844  3.0060  0.6936  1.7781
 8002TIP3   OH245420   5.497   6.294   5.196 -0.0755  0.5099  0.0730
 8002TIP3    H145421   5.419   6.241   5.212  1.0894 -1.6544 -1.0068
 8002TIP3    H245422   5.505   6.297   5.100  0.3739  1.9303  0.1370
 8003TIP3   OH245423   4.482   4.491   2.072 -0.0813 -0.0509  0.0636
 8003TIP3    H145424   4.416   4.423   2.080  0.7984 -0.8307  0.9602
 8003TIP3    H245425   4.565   4.446   2.083  0.5894  0.9986 -0.4555
 8004TIP3   OH245426   0.364   6.530   2.674  0.4193  0.1476 -0.5221
 8004TIP3    H145427   0.376   6.594   2.604  0.2428  0.5457 -0.1904
 8004TIP3    H245428   0.434   6.466   2.661  0.8008  0.5899 -0.6536
 8005TIP3   OH245429   4.679   5.374   1.827 -0.1821  0.2056 -0.0947
 8005TIP3    H145430   4.642   5.363   1.739 -0.1965 -0.6482  0.0090
 8005TIP3    H245431   4.656   5.293   1.873 -0.3836  0.7499  0.7748
 8006TIP3   OH245432   3.560   4.698   3.527  0.2117  0.0687  0.3541
 8006TIP3    H145433   3.560   4.674   3.620 -0.0690  2.5465  1.0674
 8006TIP3    H245434   3.478   4.662   3.494  0.2591 -0.7603  1.0956
 8007TIP3   OH245435   6.534   0.144   4.729 -0.1292  0.5776 -0.0952
 8007TIP3    H145436   6.451   0.133   4.682  0.7937 -1.3914 -1.3943
 8007TIP3    H245437   6.520   0.098   4.812  0.9892 -4.0686 -2.1589
 8008TIP3   OH245438   5.768   6.534  10.535  0.2877 -0.3632  0.2813
 8008TIP3    H145439   5.822   6.610  10.555  1.7468 -0.4365 -2.7401
 8008TIP3    H245440   5.706   6.565  10.469  0.7620 -1.6951 -0.8352
 8009TIP3   OH245441   4.366   3.140   3.471  0.6827  0.6418 -0.1011
 8009TIP3    H145442   4.377   3.063   3.416 -1.7376  1.3125 -1.6867
 8009TIP3    H245443   4.354   3.106   3.559 -0.1274 -0.7923 -0.7397
 8010TIP3   OH245444   0.096   2.457  12.669 -0.2163  0.2597  0.2229
 8010TIP3    H145445   0.021   2.460  12.729  0.1224  3.7955  0.6930
 8010TIP3    H245446   0.077   2.526  12.604  2.2344  0.7326 -0.0871
 8011TIP3   OH245447   5.359   0.739  13.175  0.0638  0.2131  0.2264
 8011TIP3    H145448   5.438   0.774  13.215  0.2507  0.6079 -0.4870
 8011TIP3    H245449   5.310   0.816  13.146 -0.1535 -0.0591 -0.1419
 8012TIP3   OH245450   5.700   4.485  15.061 -0.0900  0.0094  0.0813
 8012TIP3    H145451   5.620   4.433  15.056  0.7010 -1.3908  1.2107
 8012TIP3    H245452   5.701   4.537  14.981 -2.1950  0.1792  0.1170
 8013TIP3   OH245453   3.955   2.881  16.846  0.1888  0.0148  0.7385
 8013TIP3    H145454   3.998   2.802  16.879 -0.2039 -0.7606 -0.5179
 8013TIP3    H245455   3.873   2.849  16.807  1.0818  0.6495 -1.8991
 8014TIP3   OH245456   5.266   5.107   3.915 -0.7943 -0.1311  0.0836
 8014TIP3    H145457   5.308   5.022   3.915 -1.3640 -0.4469  1.6781
 8014TIP3    H245458   5.177   5.090   3.884 -1.1335 -0.2602  1.0960
 8015TIP3   OH245459   2.913   6.123   1.553  0.1621  0.1611 -0.0047
 8015TIP3    H145460   2.899   6.196   1.613 -0.5523 -0.0227  0.0593
 8015TIP3    H245461   2.968   6.062   1.602  0.7943  0.6657 -0.0729
 8016TIP3   OH245462   2.384   4.411   4.852 -0.1316 -0.0170  0.2310
 8016TIP3    H145463   2.303   4.396   4.901 -0.0390  0.7605  0.6324
 8016TIP3    H245464   2.418   4.493   4.886 -0.2070  0.7081 -1.3403
 8017TIP3   OH245465   3.491   6.445  15.290 -0.0448  0.4425  0.1461
 8017TIP3    H145466   3.505   6.446  15.196 -0.6188  0.9709  0.0657
 8017TIP3    H245467   3.400   6.469  15.302 -0.1495 -0.2276  0.8144
 8018TIP3   OH245468   4.942   1.683  14.473 -0.1300  0.2730 -0.0251
 8018TIP3    H145469   4.954   1.733  14.393 -2.1361  0.4759 -0.2490
 8018TIP3    H245470   4.858   1.638  14.461  0.7310 -1.7195  0.9231
 8019TIP3   OH245471   1.244   0.964  12.733  0.2919  0.9402  0.0121
 8019TIP3    H145472   1.195   1.044  12.753 -2.6681 -0.0948 -2.3218
 8019TIP3    H245473   1.212   0.900  12.797 -0.7945  0.5040 -0.9375
 8020TIP3   OH245474   0.658   2.411   5.609 -0.2101 -0.1413  0.8879
 8020TIP3    H145475   0.597   2.377   5.675 -2.0096  1.2551  0.0560
 8020TIP3    H245476   0.729   2.450   5.659 -0.6310 -0.7045  1.9588
 8021TIP3   OH245477   0.946   4.526   5.823  0.2266 -0.0764  0.1092
 8021TIP3    H145478   0.949   4.542   5.918 -1.1557  0.4292  0.0896
 8021TIP3    H245479   0.872   4.466   5.811  1.1428 -1.1141 -0.5470
 8022TIP3   OH245480   0.402   2.384  12.544 -0.4441 -0.8648 -0.3319
 8022TIP3    H145481   0.332   2.323  12.568 -0.8071  0.0393  1.0475
 8022TIP3    H245482   0.403   2.448  12.615 -0.6703  1.2524 -2.1021
 8023TIP3   OH245483   0.434   6.265  16.777 -0.6551 -0.0096 -0.4751
 8023TIP3    H145484   0.409   6.186  16.824 -1.3915 -0.6181 -1.8217
 8023TIP3    H245485   0.418   6.336  16.840  1.2597 -0.9732  1.2123
 8024TIP3   OH245486   4.183   4.964   1.335  0.5499  0.2672  0.4061
 8024TIP3    H145487   4.270   4.992   1.307  0.0996  0.0646 -1.3342
 8024TIP3    H245488   4.124   5.002   1.269 -0.3548 -2.2442 -0.3217
 8025TIP3   OH245489   1.513   1.516  12.213  0.6935  0.5187  0.0754
 8025TIP3    H145490   1.541   1.579  12.280 -0.3987  0.4644  0.5955
 8025TIP3    H245491   1.423   1.494  12.236  1.1255 -1.4832  0.1005
 8026TIP3   OH245492   5.730   0.901  15.190  0.3440 -0.0389  0.2096
 8026TIP3    H145493   5.815   0.859  15.191 -0.0061 -0.8421 -0.9394
 8026TIP3    H245494   5.678   0.853  15.255  1.0915  1.2313  1.7848
 8027TIP3   OH245495   5.983   2.740   4.542 -0.7948 -0.4245 -0.0911
 8027TIP3    H145496   5.931   2.813   4.509 -0.4144 -0.0458  0.1331
 8027TIP3    H245497   6.065   2.746   4.493 -0.2607  0.0821  0.8281
 8028TIP3   OH245498   6.018   4.292  16.735  0.1954  0.2190 -0.1803
 8028TIP3    H145499   5.975   4.376  16.754  0.1926  0.2571 -0.3587
 8028TIP3    H245500   5.945   4.230  16.728  0.2053  0.1792  0.0706
 8029TIP3   OH245501   5.666   0.443   1.497 -0.6661  0.1141 -0.1920
 8029TIP3    H145502   5.748   0.436   1.449 -0.9856 -0.0049 -0.7249
 8029TIP3    H245503   5.628   0.527   1.469 -1.4208 -0.4975 -1.0618
 8030TIP3   OH245504   1.422   6.085  14.318  0.5728 -0.0367 -0.5913
 8030TIP3    H145505   1.483   6.159  14.309 -0.5313  1.0606  0.5569
 8030TIP3    H245506   1.336   6.126  14.328  0.0991 -1.4112  1.5091
 8031TIP3   OH245507   4.472   1.715  16.601 -0.3472 -0.0849 -0.2416
 8031TIP3    H145508   4.397   1.669  16.638 -0.1846 -1.2852 -1.3261
 8031TIP3    H245509   4.512   1.760  16.676 -1.0154 -1.0184  0.7113
 8032TIP3   OH245510   6.077   0.213  12.271 -0.3743  0.6388 -0.3224
 8032TIP3    H145511   6.166   0.231  12.302 -0.4120  1.6511 -0.7571
 8032TIP3    H245512   6.051   0.134  12.318  0.4767  0.7530  0.3716
 8033TIP3   OH245513   4.783   2.049   6.672 -0.5628 -0.8254  0.7194
 8033TIP3    H145514   4.809   1.959   6.652 -0.4981 -1.0206  1.6589
 8033TIP3    H245515   4.814   2.100   6.597 -2.5484 -1.8783 -0.9401
 8034TIP3   OH245516   6.493   0.530  16.421  0.0534  0.4679  0.1232
 8034TIP3    H145517   6.429   0.534  16.350  0.2155  1.3901  0.0264
 8034TIP3    H245518   6.510   0.436  16.431  0.9680  0.3622 -1.9043
 8035TIP3   OH245519   2.190   0.811   2.616  0.9115  0.1595  0.0057
 8035TIP3    H145520   2.126   0.849   2.555  1.3062 -3.2515 -2.8795
 8035TIP3    H245521   2.272   0.807   2.566  1.1665 -3.1409  0.4089
 8036TIP3   OH245522   2.129   3.358  12.648  0.2907  0.0022 -0.2290
 8036TIP3    H145523   2.216   3.320  12.635  1.2173  0.6434  3.1288
 8036TIP3    H245524   2.080   3.292  12.696 -0.6215  0.1910 -0.8741
 8037TIP3   OH245525   6.694   6.386  11.862 -0.2374 -0.1688 -0.2634
 8037TIP3    H145526   6.671   6.479  11.859 -0.2535 -0.1717 -3.4774
 8037TIP3    H245527   6.620   6.344  11.905 -0.6178  1.2090  0.4733
 8038TIP3   OH245528   1.736   3.753  12.131  0.2049 -0.2732  0.1241
 8038TIP3    H145529   1.785   3.785  12.056 -0.3519  0.6363  0.1248
 8038TIP3    H245530   1.798   3.757  12.204  0.1669  0.8569  0.1218
 8039TIP3   OH245531   4.545   5.798   3.995  0.2405 -0.0894  0.0944
 8039TIP3    H145532   4.613   5.857   4.029  0.6990 -0.4831 -0.1193
 8039TIP3    H245533   4.565   5.714   4.036 -0.3860 -0.1126  0.3654
 8040TIP3   OH245534   6.112   3.555  13.269  0.1426 -0.0529 -0.1955
 8040TIP3    H145535   6.181   3.616  13.241 -0.2977  0.7257  0.3886
 8040TIP3    H245536   6.031   3.606  13.262 -0.4451 -1.0717 -1.2471
 8041TIP3   OH245537   6.470   3.352  16.717 -0.8910 -0.2574  0.0160
 8041TIP3    H145538   6.414   3.429  16.723 -0.4207  0.0576  0.5441
 8041TIP3    H245539   6.459   3.308  16.802 -0.3953 -0.2203  0.1036
 8042TIP3   OH245540   3.707   5.547   6.392  0.3724  0.2022 -0.5208
 8042TIP3    H145541   3.612   5.537   6.392 -0.0676  3.2293 -2.0003
 8042TIP3    H245542   3.739   5.474   6.339 -1.3453  0.3328 -1.8109
 8043TIP3   OH245543   6.197   5.240   3.958 -0.0429  0.3335  0.4217
 8043TIP3    H145544   6.147   5.263   4.037 -1.2497 -0.3991 -0.1088
 8043TIP3    H245545   6.204   5.144   3.961  0.5225  0.3571 -0.0008
 8044TIP3   OH245546   1.066   4.456  13.401  0.0091 -0.0880 -0.2072
 8044TIP3    H145547   1.112   4.464  13.317  0.3832 -0.6176 -0.0490
 8044TIP3    H245548   1.017   4.375  13.393  2.2106 -1.6383  1.1350
 8045TIP3   OH245549   0.833   2.817  12.099  0.1784 -0.2610 -0.0711
 8045TIP3    H145550   0.822   2.873  12.022  1.3785  1.4807  0.9607
 8045TIP3    H245551   0.785   2.863  12.169  0.1985 -1.1402  0.5336
 8046TIP3   OH245552   5.523   5.428   5.011  0.3235  0.7194  0.0313
 8046TIP3    H145553   5.501   5.521   5.009  2.0049  1.1961 -3.0577
 8046TIP3    H245554   5.613   5.425   5.042  1.2686  0.5036 -2.5218
 8047TIP3   OH245555   5.635   6.007  12.778  0.7176 -0.0190  0.4507
 8047TIP3    H145556   5.624   6.101  12.762  0.1359  0.3613  2.6323
 8047TIP3    H245557   5.558   5.967  12.738  1.4731  0.2771 -1.3754
 8048TIP3   OH245558   1.761   3.475   2.741  0.2953  0.5829  0.5079
 8048TIP3    H145559   1.751   3.530   2.818  1.3128  2.3361 -0.5601
 8048TIP3    H245560   1.853   3.482   2.717  0.8006 -2.5932  1.0104
 8049TIP3   OH245561   0.714   4.481   0.282 -0.3413  0.3294  0.5959
 8049TIP3    H145562   0.791   4.531   0.256 -0.3068  0.0739  0.2003
 8049TIP3    H245563   0.695   4.510   0.371  0.0711  0.5643  0.6071
 8050TIP3   OH245564   2.101   6.346  13.297  0.1103 -0.3943  0.2582
 8050TIP3    H145565   2.047   6.328  13.374 -0.0079  0.1458  0.3085
 8050TIP3    H245566   2.183   6.379  13.332 -0.1767  0.4689  0.1510
 8051TIP3   OH245567   0.477   6.488   0.458 -0.0443 -0.1303  0.2846
 8051TIP3    H145568   0.545   6.446   0.511 -0.2102 -0.5343  0.1818
 8051TIP3    H245569   0.505   6.579   0.450  0.8315 -0.4395 -0.3123
 8052TIP3   OH245570   5.365   6.031  16.982  0.1361 -0.0327 -0.3779
 8052TIP3    H145571   5.332   6.010  17.069  1.1227 -0.0679  0.0051
 8052TIP3    H245572   5.382   6.125  16.985 -0.3590  0.0687 -0.7211
 8053TIP3   OH245573   4.109   5.971   0.672 -0.0345  0.1649  0.5959
 8053TIP3    H145574   4.156   5.947   0.752 -0.2957  0.5822  0.8742
 8053TIP3    H245575   4.126   5.898   0.613 -2.4214 -1.7714  2.0852
 8054TIP3   OH245576   6.050   0.736  16.882 -0.1808  0.3857  0.2845
 8054TIP3    H145577   6.133   0.776  16.908  0.0844  1.3802 -1.8660
 8054TIP3    H245578   6.074   0.647  16.858  0.3570  0.7441 -0.5822
 8055TIP3   OH245579   0.323   5.256  14.941  0.3029 -0.8898 -0.9772
 8055TIP3    H145580   0.304   5.347  14.918  0.9627 -0.5637 -0.2981
 8055TIP3    H245581   0.287   5.204  14.869  0.7644 -0.0309 -1.8445
 8056TIP3   OH245582   5.856   1.431  15.370 -0.3549  0.4055  0.5921
 8056TIP3    H145583   5.911   1.378  15.312  0.8968  1.9811  0.2739
 8056TIP3    H245584   5.826   1.369  15.437 -0.7547 -1.1622 -0.9567
 8057TIP3   OH245585   0.221   6.318   3.031  0.3934 -0.3361 -0.4954
 8057TIP3    H145586   0.258   6.383   2.970  0.4299  0.1037 -0.0070
 8057TIP3    H245587   0.285   6.246   3.031  1.1715  0.3404  0.2052
 8058TIP3   OH245588   4.610   0.552   0.307  0.2345 -0.7756  0.1167
 8058TIP3    H145589   4.676   0.553   0.238  1.0836 -0.8457  0.9040
 8058TIP3    H245590   4.584   0.643   0.317  1.7332 -0.4126  1.1822
 8059TIP3   OH245591   2.061   0.690  14.427  0.2579 -0.5016 -0.4926
 8059TIP3    H145592   1.988   0.690  14.489  2.5807 -0.9249  2.4734
 8059TIP3    H245593   2.138   0.670  14.481  2.3943 -1.6299 -3.6751
 8060TIP3   OH245594   0.534   5.427   2.698  0.2725  0.2238  0.2476
 8060TIP3    H145595   0.562   5.453   2.785 -2.1463  2.0677  0.5581
 8060TIP3    H245596   0.440   5.442   2.697 -0.0920 -1.6266 -2.0745
 8061TIP3   OH245597   4.619   1.922   4.434 -0.0708 -0.7093 -0.1257
 8061TIP3    H145598   4.697   1.899   4.484  0.6205 -1.0740 -1.3365
 8061TIP3    H245599   4.638   2.009   4.399 -0.0956 -0.9037 -0.6269
 8062TIP3   OH245600   3.785   4.365   1.583  0.0463 -0.2049  0.0868
 8062TIP3    H145601   3.727   4.430   1.541 -1.4120 -1.7588 -0.4102
 8062TIP3    H245602   3.758   4.281   1.546  0.6173 -1.3275  2.0782
 8063TIP3   OH245603   5.853   6.647  17.240  0.0587 -0.0943  0.3245
 8063TIP3    H145604   5.821   6.688  17.321  1.0138  0.4263  0.4531
 8063TIP3    H245605   5.778   6.650  17.180 -0.4717  0.0722  0.9834
 8064TIP3   OH245606   4.529   3.861  15.299 -0.9046 -0.2023 -0.4067
 8064TIP3    H145607   4.485   3.796  15.243  1.5691 -1.9663 -0.4356
 8064TIP3    H245608   4.494   3.845  15.387 -0.9657 -0.9928 -0.5707
 8065TIP3   OH245609   3.571   3.045   0.783 -0.1502 -0.5583 -0.7041
 8065TIP3    H145610   3.535   3.133   0.771 -0.8084 -0.7952 -0.5108
 8065TIP3    H245611   3.557   3.025   0.875 -0.6605 -1.1455 -0.9034
 8066TIP3   OH245612   4.547   1.342  13.928  0.0058 -0.1913 -0.3133
 8066TIP3    H145613   4.459   1.335  13.890  0.0745 -0.6756 -0.3807
 8066TIP3    H245614   4.606   1.319  13.857  0.3103  2.0211 -0.8606
 8067TIP3   OH245615   6.087   4.581  14.167  0.4755  0.0538 -0.0375
 8067TIP3    H145616   6.140   4.631  14.229 -0.2627 -0.4814  1.0433
 8067TIP3    H245617   6.076   4.639  14.092 -0.8846  1.7814  1.4274
 8068TIP3   OH245618   1.245   1.811  11.166  0.1665  0.2107 -0.1692
 8068TIP3    H145619   1.315   1.746  11.162 -2.0359 -2.3866  0.7072
 8068TIP3    H245620   1.240   1.847  11.078  2.1924  0.0568 -0.3832
 8069TIP3   OH245621   3.338   6.291   0.325 -0.9735 -0.0880  0.6548
 8069TIP3    H145622   3.424   6.330   0.341 -0.9363 -0.0604  0.3913
 8069TIP3    H245623   3.321   6.306   0.232 -0.6822 -1.2289  0.3980
 8070TIP3   OH245624   5.114   4.696   3.279 -0.1333  0.1772 -0.1820
 8070TIP3    H145625   5.065   4.616   3.259 -0.3286  1.0489 -3.9797
 8070TIP3    H245626   5.203   4.678   3.251  0.2762  0.6985  0.7269
 8071TIP3   OH245627   1.190   2.620  13.821  0.1560  0.4247 -0.5666
 8071TIP3    H145628   1.226   2.666  13.897 -2.1271 -1.7037  2.0271
 8071TIP3    H245629   1.098   2.643  13.819 -0.4011 -1.5938 -1.0342
 8072TIP3   OH245630   6.546   0.707  14.580 -0.1523 -0.0849 -0.9901
 8072TIP3    H145631   6.505   0.709  14.493  0.3977  0.1562 -1.2496
 8072TIP3    H245632   6.541   0.797  14.611  0.4722  0.0117 -1.1638
 8073TIP3   OH245633   2.521   3.481   4.817  0.1634 -0.1157 -0.2968
 8073TIP3    H145634   2.551   3.569   4.793 -1.1048  0.5827  0.6092
 8073TIP3    H245635   2.431   3.493   4.847  0.4589 -1.4843  1.2989
 8074TIP3   OH245636   1.016   5.718  12.016 -0.2003  0.6832  0.2523
 8074TIP3    H145637   0.954   5.705  12.088 -0.1596 -0.6059  0.0650
 8074TIP3    H245638   0.979   5.670  11.942  0.2142  1.2489 -0.3417
 8075TIP3   OH245639   6.768   5.481  16.161  0.2548 -0.1699  0.0505
 8075TIP3    H145640   6.710   5.539  16.209 -0.8183 -1.9810  1.0618
 8075TIP3    H245641   6.718   5.458  16.082  1.3383  1.5007 -1.1672
 8076TIP3   OH245642   4.273   0.061   6.011 -0.3770 -0.4185 -0.5202
 8076TIP3    H145643   4.310   0.123   6.074  0.2929 -1.3715  0.0608
 8076TIP3    H245644   4.330  -0.016   6.016 -1.3652 -1.2209 -0.9675
 8077TIP3   OH245645   2.765   0.704  11.260  0.5382 -0.0749  0.0587
 8077TIP3    H145646   2.776   0.635  11.195 -0.5144  0.7470 -1.0339
 8077TIP3    H245647   2.761   0.658  11.343  0.1821 -1.3119 -0.6217
 8078TIP3   OH245648   2.580   6.588   5.262  0.1301 -0.1966 -0.8661
 8078TIP3    H145649   2.582   6.535   5.342  1.6179  0.6541 -0.3012
 8078TIP3    H245650   2.502   6.642   5.271 -1.5097 -2.3328 -1.5241
 8079TIP3   OH245651   2.226   3.589  13.293  0.2007  0.1415 -0.4749
 8079TIP3    H145652   2.156   3.528  13.317  1.2558  0.0402  2.9167
 8079TIP3    H245653   2.199   3.672  13.331  0.6926  0.7722 -1.4759
 8080TIP3   OH245654   6.765   1.698   4.548 -0.0870  0.3875  0.2580
 8080TIP3    H145655   6.828   1.755   4.591  0.2458  1.2320 -1.2757
 8080TIP3    H245656   6.727   1.752   4.478 -1.1272 -0.6913 -0.0418
 8081TIP3   OH245657   2.704   2.738   5.882  0.1303 -0.1770  0.2717
 8081TIP3    H145658   2.625   2.690   5.857 -0.8694  0.8730  1.2943
 8081TIP3    H245659   2.726   2.704   5.969  1.9987 -1.8730 -0.7867
 8082TIP3   OH245660   2.327   3.576   0.116 -0.1484 -0.2031  0.5548
 8082TIP3    H145661   2.293   3.603   0.031 -0.8325 -0.2094  0.8184
 8082TIP3    H245662   2.410   3.624   0.125 -0.4941  0.4688  0.2637
 8083TIP3   OH245663   6.140   0.515   4.334 -0.1663  0.7001  0.2709
 8083TIP3    H145664   6.064   0.515   4.394  0.6204  0.9442  1.2979
 8083TIP3    H245665   6.215   0.498   4.391  0.4191 -0.9819 -0.9356
 8084TIP3   OH245666   6.123   5.343  13.087  0.0725  0.3880 -0.3140
 8084TIP3    H145667   6.156   5.420  13.134 -1.5655  0.1421  1.3550
 8084TIP3    H245668   6.137   5.270  13.146  0.0380 -0.3222 -1.1621
 8085TIP3   OH245669   0.864   4.119   2.062  0.2859 -0.3719 -0.4196
 8085TIP3    H145670   0.910   4.040   2.035  0.5045 -0.0284 -1.0790
 8085TIP3    H245671   0.824   4.096   2.146  0.5721 -1.0905 -0.4715
 8086TIP3   OH245672   3.697   0.935   1.755 -0.2696  0.3617  0.1134
 8086TIP3    H145673   3.618   0.981   1.786  0.1098 -0.0430  1.8164
 8086TIP3    H245674   3.766   1.001   1.759 -0.3749  0.5406 -0.7637
 8087TIP3   OH245675   0.577   1.971   6.163  0.1058  0.6408  0.4151
 8087TIP3    H145676   0.496   1.944   6.120  1.0353 -0.1000 -0.9313
 8087TIP3    H245677   0.616   2.034   6.103  0.7430  0.6724  0.8524
 8088TIP3   OH245678   4.860   3.278  12.139  0.1495 -0.1926  0.2258
 8088TIP3    H145679   4.781   3.264  12.192 -0.1824  1.3983  0.2093
 8088TIP3    H245680   4.923   3.313  12.201  0.6143 -0.7801  0.0869
 8089TIP3   OH245681   2.164   3.207  12.347  0.6304  0.0134  0.5227
 8089TIP3    H145682   2.114   3.176  12.422  0.8910  0.2383  0.7942
 8089TIP3    H245683   2.188   3.297  12.369 -1.7474  1.1381 -1.0709
 8090TIP3   OH245684   4.120   3.925   3.712  0.1756 -0.2550  0.0330
 8090TIP3    H145685   4.034   3.892   3.689  0.6786 -1.5295 -0.0896
 8090TIP3    H245686   4.112   3.951   3.804 -0.3218 -0.3922  0.0284
 8091TIP3   OH245687   4.441   3.031  13.047  0.2886 -0.0877  0.1707
 8091TIP3    H145688   4.531   3.007  13.024  0.6881  0.8844  0.6502
 8091TIP3    H245689   4.424   2.985  13.129  0.6884  0.4397  0.5585
 8092TIP3   OH245690   1.649   2.300   1.365 -0.3248  0.4580 -0.4788
 8092TIP3    H145691   1.723   2.356   1.346 -0.7527  1.0494 -0.4183
 8092TIP3    H245692   1.683   2.211   1.356  1.2188  0.6226  2.5385
 8093TIP3   OH245693   4.344   1.153   1.173  0.0182  0.4447 -0.3209
 8093TIP3    H145694   4.274   1.093   1.149 -0.4025  0.7183  0.2024
 8093TIP3    H245695   4.402   1.102   1.230 -0.6713  0.6948  0.6361
 8094TIP3   OH245696   0.948   0.350  15.677  0.2901 -0.1108 -0.0638
 8094TIP3    H145697   0.867   0.392  15.706  0.6851 -0.1959  1.2573
 8094TIP3    H245698   1.016   0.386  15.735  0.9840 -0.9916 -0.2958
 8095TIP3   OH245699   2.335   2.194   1.484 -0.4910 -0.1081 -0.0896
 8095TIP3    H145700   2.278   2.272   1.483  0.6669  0.8334 -2.8267
 8095TIP3    H245701   2.278   2.123   1.456 -0.7584  0.4704 -1.0604
 8096TIP3   OH245702   2.441   1.551   0.893  0.0579  0.7167  0.6786
 8096TIP3    H145703   2.374   1.483   0.890  1.4615 -0.6834  0.1697
 8096TIP3    H245704   2.514   1.513   0.941  2.0578  0.6797 -2.1115
 8097TIP3   OH245705   3.119   2.495  10.390  1.0045 -0.2909 -0.0283
 8097TIP3    H145706   3.076   2.410  10.401  0.2171 -0.3099 -2.5083
 8097TIP3    H245707   3.056   2.559  10.424 -0.0841 -0.4983 -1.5147
 8098TIP3   OH245708   6.042   0.493   4.046 -0.6230  0.7211  0.5143
 8098TIP3    H145709   6.092   0.573   4.034 -1.2091  1.0010 -0.1002
 8098TIP3    H245710   6.018   0.493   4.139 -0.7234  1.3180  0.4917
 8099TIP3   OH245711   6.482   3.662   5.832  0.2935 -0.4686  0.4250
 8099TIP3    H145712   6.534   3.716   5.772  0.5436 -0.0764  0.9859
 8099TIP3    H245713   6.402   3.642   5.783  0.4489 -0.0747 -0.0020
 8100TIP3   OH245714   3.294   3.474  15.743  0.3399  0.6924 -0.2679
 8100TIP3    H145715   3.256   3.433  15.821 -1.0936  0.4866 -1.0618
 8100TIP3    H245716   3.367   3.417  15.719  0.0435  0.1028  0.2172
 8101TIP3   OH245717   1.542   2.960   5.499 -0.1064 -0.4937 -0.2472
 8101TIP3    H145718   1.586   3.041   5.470 -0.6412 -1.1121 -3.0296
 8101TIP3    H245719   1.614   2.904   5.528  0.9093 -0.8937 -3.2262
 8102TIP3   OH245720   2.814   3.484   3.878  0.1996  1.1202  0.1096
 8102TIP3    H145721   2.898   3.516   3.912  0.0296  0.5344  1.1060
 8102TIP3    H245722   2.788   3.550   3.814  1.7171  1.0081 -0.6835
 8103TIP3   OH245723   3.303   4.914   1.435  0.3160  0.5542 -0.4930
 8103TIP3    H145724   3.222   4.900   1.387  0.3756 -0.4009 -0.3350
 8103TIP3    H245725   3.290   4.998   1.479  0.3074  1.4924 -2.2284
 8104TIP3   OH245726   0.663   5.543  15.799 -0.0207 -0.2433 -0.0303
 8104TIP3    H145727   0.741   5.501  15.835  1.5296  1.4386 -1.2237
 8104TIP3    H245728   0.669   5.634  15.829 -1.3495 -0.0073 -0.4241
 8105TIP3   OH245729   2.294   1.775   0.723  0.3540 -0.2315 -0.1110
 8105TIP3    H145730   2.300   1.692   0.771  0.8405  0.7176  1.5549
 8105TIP3    H245731   2.201   1.794   0.719 -0.0181 -2.0932 -2.8356
 8106TIP3   OH245732   3.132   1.769  11.333  0.2557  0.1580  0.0896
 8106TIP3    H145733   3.075   1.776  11.409  0.8982 -0.3744  0.6288
 8106TIP3    H245734   3.170   1.856  11.323 -1.1681  0.7315 -0.7118
 8107TIP3   OH245735   1.000   0.308   4.098 -0.3223  0.1716 -0.4586
 8107TIP3    H145736   1.003   0.278   4.189 -1.4130 -1.3143 -0.8675
 8107TIP3    H245737   0.977   0.401   4.104  0.2511  0.2611  0.7807
 8108TIP3   OH245738   3.234   1.731   2.953  0.0407  0.0250  0.1055
 8108TIP3    H145739   3.283   1.742   3.034  0.4605  0.6717 -0.2204
 8108TIP3    H245740   3.177   1.808   2.948 -0.8171 -0.5805  0.3420
 8109TIP3   OH245741   5.887   0.153   3.448  0.0159  0.5810  0.5229
 8109TIP3    H145742   5.981   0.172   3.450  0.2288 -0.1555 -1.1174
 8109TIP3    H245743   5.876   0.093   3.375 -1.4378 -1.1570  2.0788
 8110TIP3   OH245744   2.928   2.783  14.754 -0.7019 -0.2368 -0.8330
 8110TIP3    H145745   2.866   2.726  14.709  0.2334 -1.7479 -0.2876
 8110TIP3    H245746   2.994   2.803  14.688  1.1098 -3.1107 -0.1008
 8111TIP3   OH245747   6.181   0.538   5.331 -0.3448  0.2719 -0.0306
 8111TIP3    H145748   6.161   0.531   5.425 -0.2695  1.7174  0.1219
 8111TIP3    H245749   6.272   0.568   5.328  0.6777 -2.5736 -0.6594
 8112TIP3   OH245750   4.809   3.036  14.122  0.4317  0.1124  0.0073
 8112TIP3    H145751   4.838   2.956  14.167  0.8972 -0.7457 -1.7547
 8112TIP3    H245752   4.888   3.091  14.119  0.4218  0.1359  0.1358
 8113TIP3   OH245753   3.934   2.640   3.078  0.2195 -0.3251  0.1478
 8113TIP3    H145754   3.922   2.670   2.988  1.0255  0.0213  0.1438
 8113TIP3    H245755   4.023   2.667   3.101 -0.4328  0.8136  1.5116
 8114TIP3   OH245756   1.926   2.948  16.491  0.3801 -0.0447 -0.3450
 8114TIP3    H145757   1.894   2.948  16.581  0.3380  1.5087 -0.3312
 8114TIP3    H245758   1.869   2.886  16.445  0.4190 -0.8761  0.6831
 8115TIP3   OH245759   5.461   4.177  11.418  0.1203 -0.7369 -0.1744
 8115TIP3    H145760   5.403   4.252  11.426  0.4868 -0.6034  1.9129
 8115TIP3    H245761   5.405   4.105  11.389 -0.4402  0.0684 -1.1524
 8116TIP3   OH245762   0.922   2.712  16.900  0.1699 -0.1599 -0.5757
 8116TIP3    H145763   0.897   2.639  16.843 -0.9414 -0.5548  0.3710
 8116TIP3    H245764   0.845   2.727  16.955  0.8564  0.8660  0.1499
 8117TIP3   OH245765   0.519   6.554  12.579  0.0134 -0.3645 -0.2551
 8117TIP3    H145766   0.454   6.622  12.563 -0.7350 -0.5207  1.8121
 8117TIP3    H245767   0.486   6.477  12.533 -1.1562 -0.3706  0.5578
 8118TIP3   OH245768   3.494   0.527   4.129  0.2558  0.0158 -0.2610
 8118TIP3    H145769   3.510   0.619   4.108 -3.0098  0.5983 -0.7311
 8118TIP3    H245770   3.486   0.524   4.224  0.9242  0.0954 -0.1999
 8119TIP3   OH245771   0.181   2.654  10.784  0.1637  0.0631 -0.3207
 8119TIP3    H145772   0.162   2.601  10.706 -2.0432  0.2924  0.0128
 8119TIP3    H245773   0.177   2.744  10.753 -2.2473  0.2292  0.2737
 8120TIP3   OH245774   1.999   2.460   4.351  0.1350  0.3704  0.5274
 8120TIP3    H145775   1.996   2.371   4.386  2.2440  0.3427  0.7227
 8120TIP3    H245776   1.921   2.466   4.296  0.4332 -1.9263 -0.2582
 8121TIP3   OH245777   5.750   4.004  12.514 -0.5634 -0.3382  0.2243
 8121TIP3    H145778   5.765   4.087  12.470  3.1079 -0.6895  0.5204
 8121TIP3    H245779   5.688   3.958  12.457 -0.5385  1.5154 -1.3931
 8122TIP3   OH245780   6.231   2.076   2.807  0.5885  0.2373  0.0122
 8122TIP3    H145781   6.167   2.038   2.867  0.1804 -0.7466 -1.0098
 8122TIP3    H245782   6.200   2.052   2.720  1.3475  1.3478 -0.5903
 8123TIP3   OH245783   4.035   2.398  12.533  0.2224  0.4293  0.2675
 8123TIP3    H145784   4.061   2.386  12.441  0.2322  2.8885 -0.1136
 8123TIP3    H245785   4.015   2.310  12.563  1.5003 -0.6240 -1.6980
 8124TIP3   OH245786   0.065   6.386  16.294  0.0462 -0.0263  0.0842
 8124TIP3    H145787   0.137   6.344  16.246 -0.1811 -0.6955  0.3232
 8124TIP3    H245788   0.018   6.314  16.335 -0.6494  0.4292  0.0941
 8125TIP3   OH245789   3.420   2.408  12.157 -0.1680  0.4122  0.1478
 8125TIP3    H145790   3.477   2.391  12.232 -1.5736 -0.9444  0.9507
 8125TIP3    H245791   3.332   2.409  12.193 -0.7198  2.5490 -1.0568
 8126TIP3   OH245792   2.902   5.219   1.555  0.7290 -0.3275  0.1266
 8126TIP3    H145793   2.825   5.163   1.569  0.4388  0.4044  1.7442
 8126TIP3    H245794   2.931   5.241   1.643  0.3057  2.7796 -0.4044
 8127TIP3   OH245795   3.438   0.584  14.700  0.1252  0.4380 -0.3718
 8127TIP3    H145796   3.507   0.528  14.735 -1.0359 -1.0994 -0.4728
 8127TIP3    H245797   3.381   0.601  14.775 -1.1609 -1.0474 -0.9588
 8128TIP3   OH245798   6.346   0.697   1.304 -0.8533 -0.3398  0.1524
 8128TIP3    H145799   6.405   0.770   1.285 -0.1871 -0.6541  0.9190
 8128TIP3    H245800   6.281   0.732   1.364  0.6246 -0.8222  2.1215
 8129TIP3   OH245801   5.715   0.413  10.702 -0.3576 -0.0833 -0.3767
 8129TIP3    H145802   5.642   0.354  10.716 -2.3133  2.1635 -0.4181
 8129TIP3    H245803   5.682   0.499  10.729  2.5519  0.9353  0.3905
 8130TIP3   OH245804   2.200   1.966   1.416 -0.5111  0.5003 -0.3278
 8130TIP3    H145805   2.228   1.898   1.355 -0.7327 -0.2658  0.4184
 8130TIP3    H245806   2.105   1.959   1.419 -0.5032  0.5553  0.0901
 8131TIP3   OH245807   1.463   2.894  11.844 -0.0593  0.1227 -0.3836
 8131TIP3    H145808   1.488   2.923  11.756  0.6069 -1.0705 -0.6095
 8131TIP3    H245809   1.494   2.964  11.901  2.8750 -0.7331 -0.7750
 8132TIP3   OH245810   1.511   6.502  13.522  0.3413 -0.0149 -0.6410
 8132TIP3    H145811   1.446   6.432  13.524 -0.2958  0.5672  0.6380
 8132TIP3    H245812   1.591   6.461  13.488 -0.5770 -0.8308 -1.8856
 8133TIP3   OH245813   3.186   1.193   3.249 -0.3906  0.4205 -0.9661
 8133TIP3    H145814   3.146   1.157   3.169 -0.2700 -1.9874 -0.0256
 8133TIP3    H245815   3.112   1.210   3.307 -0.2982 -1.8764 -0.0750
 8134TIP3   OH245816   6.527   0.412   1.999  0.1582  0.2888 -0.1463
 8134TIP3    H145817   6.467   0.360   1.945 -0.2345  0.1959  0.3656
 8134TIP3    H245818   6.472   0.446   2.070  0.9057 -0.6495  0.9216
 8135TIP3   OH245819   1.343   0.445   3.561 -0.2090 -0.4877  0.3372
 8135TIP3    H145820   1.290   0.454   3.640 -1.5855 -2.4586 -0.2765
 8135TIP3    H245821   1.423   0.401   3.592 -0.0340  0.1887  0.8694
 8136TIP3   OH245822   5.861   3.865   3.328  0.1905  0.0757  0.0718
 8136TIP3    H145823   5.882   3.954   3.301  0.7493 -0.3846 -1.1275
 8136TIP3    H245824   5.768   3.855   3.308  0.3486  0.0977 -0.7302
 8137TIP3   OH245825   0.781   1.135   0.958 -0.1122 -0.3985 -0.1795
 8137TIP3    H145826   0.800   1.043   0.971 -0.9606 -1.0345 -2.7917
 8137TIP3    H245827   0.698   1.150   1.004  1.4714 -0.0837  2.8047
 8138TIP3   OH245828   1.991   0.618  17.339  0.1998 -0.5889  0.3088
 8138TIP3    H145829   1.963   0.597  17.249  0.3419  0.0925  0.1035
 8138TIP3    H245830   2.087   0.617  17.334  0.2091 -0.8272  0.5231
 8139TIP3   OH245831   0.017   6.379   3.232  0.5614  0.5215 -0.9612
 8139TIP3    H145832   0.069   6.417   3.304  0.6251 -0.1538 -0.6375
 8139TIP3    H245833   0.081   6.366   3.161  0.8269 -0.1815 -0.6110
 8140TIP3   OH245834   1.323   3.531   0.835  0.1114  0.8563 -0.1569
 8140TIP3    H145835   1.386   3.549   0.765  0.5024 -0.5308 -0.1823
 8140TIP3    H245836   1.372   3.480   0.899 -1.2738 -1.4290 -0.7873
 8141TIP3   OH245837   6.432   6.090  12.564 -0.9417 -0.4246  0.0885
 8141TIP3    H145838   6.387   6.110  12.646 -2.3904 -0.0328 -0.7681
 8141TIP3    H245839   6.477   6.007  12.580  0.8658  0.8390  2.0523
 8142TIP3   OH245840   3.094   0.183   5.034 -0.6126  0.0446  0.8816
 8142TIP3    H145841   3.043   0.182   4.953  1.2214  0.1788 -0.3398
 8142TIP3    H245842   3.079   0.270   5.071 -0.7655  0.3121  0.2016
 8143TIP3   OH245843   3.957   6.084  12.046 -0.4226 -0.3321  1.1253
 8143TIP3    H145844   3.988   5.997  12.073 -1.0309 -0.9709 -0.1290
 8143TIP3    H245845   3.928   6.071  11.956  1.5124  1.6674  0.1291
 8144TIP3   OH245846   1.001   5.525  15.437  0.0308  0.3624 -0.1324
 8144TIP3    H145847   0.907   5.544  15.442  0.0539  0.0799  2.0430
 8144TIP3    H245848   1.016   5.458  15.503  1.7527  0.2285 -0.6022
 8145TIP3   OH245849   2.692   3.113   5.036  0.5812  0.3582  0.7320
 8145TIP3    H145850   2.624   3.179   5.039 -1.2314 -0.8741 -4.1432
 8145TIP3    H245851   2.650   3.036   4.998  4.1698 -1.1183 -0.8044
 8146TIP3   OH245852   3.517   4.687   5.360 -0.2268 -0.1048 -0.3518
 8146TIP3    H145853   3.534   4.693   5.454  0.0402 -1.8242 -0.2575
 8146TIP3    H245854   3.423   4.708   5.352 -0.7214 -1.7660  0.5579
 8147TIP3   OH245855   3.372   4.169   6.107  0.1767 -0.1317  0.1963
 8147TIP3    H145856   3.388   4.263   6.121  0.8348 -0.1020 -0.6911
 8147TIP3    H245857   3.296   4.167   6.048 -1.2473 -0.2184  1.9577
 8148TIP3   OH245858   2.443   6.235  12.673  0.7254  0.7385 -0.2310
 8148TIP3    H145859   2.437   6.306  12.738 -0.0433 -0.7587  1.4198
 8148TIP3    H245860   2.355   6.229  12.635 -0.0222 -1.0268  1.6031
 8149TIP3   OH245861   5.412   3.162  11.756 -0.1168  0.2964 -0.0177
 8149TIP3    H145862   5.471   3.161  11.681 -0.4712 -0.5810 -0.3000
 8149TIP3    H245863   5.357   3.239  11.743 -0.1355  0.1800 -0.6318
 8150TIP3   OH245864   3.018   0.243   4.325 -0.4437 -0.3336  0.0021
 8150TIP3    H145865   2.957   0.304   4.282  0.6849  2.4274  2.0142
 8150TIP3    H245866   3.105   0.277   4.304  0.1770  0.0786  2.8088
 8151TIP3   OH245867   6.376   6.273  12.332  0.6679 -0.1239 -0.2848
 8151TIP3    H145868   6.428   6.206  12.375  1.6699  0.6531 -0.2504
 8151TIP3    H245869   6.385   6.350  12.388 -1.4005 -0.2497  0.2975
 8152TIP3   OH245870   0.260   0.197   2.264  0.7661 -0.1316 -0.0451
 8152TIP3    H145871   0.273   0.113   2.309  0.8271 -0.0959  0.0039
 8152TIP3    H245872   0.326   0.255   2.301 -1.1161  0.8218  2.1122
 8153TIP3   OH245873   5.493   0.060   2.466  0.5080  0.1434 -0.0608
 8153TIP3    H145874   5.554   0.019   2.527 -1.3701 -1.9587  0.5459
 8153TIP3    H245875   5.495   0.153   2.489  1.5997 -0.2434  1.5973
 8154TIP3   OH245876   6.407   4.889   5.673 -0.6044 -0.2907 -0.2846
 8154TIP3    H145877   6.316   4.910   5.695  0.1256  1.1936  1.6660
 8154TIP3    H245878   6.452   4.886   5.757  1.2520 -0.5762 -1.2293
 8155TIP3   OH245879   0.658   5.568   3.886 -0.0812 -0.3861  0.1932
 8155TIP3    H145880   0.626   5.648   3.844  2.7668  0.5638 -0.4226
 8155TIP3    H245881   0.634   5.578   3.978  1.3308  1.8945  0.4040
 8156TIP3   OH245882   4.175   0.716   0.457 -0.2437  0.0524 -1.0894
 8156TIP3    H145883   4.114   0.654   0.496 -0.9539 -0.3341 -2.7384
 8156TIP3    H245884   4.128   0.799   0.456 -0.8862 -0.3125 -2.6389
 8157TIP3   OH245885   1.669   3.210   0.153  0.0169  0.2671 -0.5977
 8157TIP3    H145886   1.762   3.189   0.157  0.3085  1.4458 -0.8163
 8157TIP3    H245887   1.627   3.146   0.211  1.0687  0.3657  0.2955
 8158TIP3   OH245888   5.448   1.475  11.743 -0.1950 -0.1659 -0.0617
 8158TIP3    H145889   5.404   1.552  11.777 -1.6866 -1.2665  0.6100
 8158TIP3    H245890   5.409   1.461  11.656 -0.9489 -0.9260  0.3798
 8159TIP3   OH245891   6.585   2.895   5.530  0.1944 -0.0971 -0.5566
 8159TIP3    H145892   6.645   2.947   5.582 -0.2754  0.8776 -0.9748
 8159TIP3    H245893   6.639   2.863   5.457  0.6336 -0.7406  0.0326
 8160TIP3   OH245894   5.218   3.708  12.421 -0.4486  0.3285  0.7504
 8160TIP3    H145895   5.192   3.700  12.513 -0.1008  2.2654  1.0639
 8160TIP3    H245896   5.298   3.760  12.423  0.0389 -0.3221 -0.6191
 8161TIP3   OH245897   0.052   3.348   4.073  0.3226  0.0141  0.0506
 8161TIP3    H145898   0.032   3.434   4.109 -1.8690 -0.3949 -0.0455
 8161TIP3    H245899   0.053   3.362   3.978  0.6372  0.0540  0.0592
 8162TIP3   OH245900   0.097   1.872   3.323  0.2864 -0.1555  0.3060
 8162TIP3    H145901   0.113   1.940   3.388 -1.7007  0.0426  0.6347
 8162TIP3    H245902   0.019   1.826   3.354  0.4667 -1.3636 -0.9067
 8163TIP3   OH245903   3.877   5.315   4.063 -0.4229 -0.5578  0.4394
 8163TIP3    H145904   3.782   5.305   4.067 -0.2718 -1.8770  2.4182
 8163TIP3    H245905   3.897   5.384   4.125 -0.2125  1.6395 -1.9100
 8164TIP3   OH245906   0.268   5.347   3.244  0.7196 -0.5577 -0.3338
 8164TIP3    H145907   0.339   5.298   3.285  2.2873 -0.3909 -2.7168
 8164TIP3    H245908   0.298   5.365   3.155 -2.1458 -0.0923 -1.3110
 8165TIP3   OH245909   0.846   0.499  16.287 -0.2129  0.2530  0.4592
 8165TIP3    H145910   0.857   0.455  16.203 -1.6499  0.7580 -0.0172
 8165TIP3    H245911   0.935   0.524  16.313  0.3913 -1.0677 -0.2542
 8166TIP3   OH245912   1.052   5.575   0.423  0.3088 -0.4876  0.0623
 8166TIP3    H145913   1.140   5.546   0.398  0.6916  0.0929  0.6885
 8166TIP3    H245914   1.046   5.556   0.517  0.6865  1.6566  0.5708
 8167TIP3   OH245915   5.082   4.070   2.090  0.0306 -0.1895 -0.4017
 8167TIP3    H145916   5.123   4.001   2.037 -1.1491  0.0598 -1.6930
 8167TIP3    H245917   5.015   4.024   2.140  0.8054 -0.3416  0.5115
 8168TIP3   OH245918   6.622   1.929  15.722  0.2947  0.0236  0.1298
 8168TIP3    H145919   6.555   1.990  15.689  1.4271  0.3669 -1.6407
 8168TIP3    H245920   6.595   1.912  15.813 -1.6025  0.9620 -0.1988
 8169TIP3   OH245921   1.809   2.782  15.570  0.1467  0.1225 -0.0355
 8169TIP3    H145922   1.900   2.782  15.541 -0.3249  1.1502 -1.6008
 8169TIP3    H245923   1.780   2.691  15.556  1.0892 -0.3994  1.1540
 8170TIP3   OH245924   5.532   2.948   0.209 -0.3683  0.2524 -0.0742
 8170TIP3    H145925   5.606   3.005   0.191  0.4769 -0.4290  1.0837
 8170TIP3    H245926   5.492   2.933   0.124 -0.4404  2.3017 -0.4517
 8171TIP3   OH245927   3.129   2.833   3.965 -0.4231 -0.2894 -0.1015
 8171TIP3    H145928   3.053   2.833   3.906 -1.0309  2.4406  0.5262
 8171TIP3    H245929   3.158   2.742   3.967 -2.0832 -0.9684 -2.4003
 8172TIP3   OH245930   0.966   6.475  14.937 -0.3256  0.2050 -0.2606
 8172TIP3    H145931   0.899   6.462  15.004  1.1390 -1.9209  0.9262
 8172TIP3    H245932   1.023   6.543  14.972 -1.4716  1.6132 -1.0181
 8173TIP3   OH245933   5.662   0.495   4.382  0.0874 -0.8989  0.0484
 8173TIP3    H145934   5.632   0.554   4.313 -2.0276 -2.1741 -0.2013
 8173TIP3    H245935   5.587   0.488   4.442  1.7749  0.0219  2.4523
 8174TIP3   OH245936   3.196   6.139  11.205  0.0737  0.0193  0.5387
 8174TIP3    H145937   3.110   6.130  11.164 -0.4866  0.2007  1.6265
 8174TIP3    H245938   3.243   6.202  11.150  0.4318 -1.8826 -1.4668
 8175TIP3   OH245939   4.604   3.271  11.874  0.0450 -0.2417  0.0271
 8175TIP3    H145940   4.626   3.240  11.962  0.1104 -0.9173 -0.2187
 8175TIP3    H245941   4.514   3.303  11.881 -0.6478 -2.0560 -0.0789
 8176TIP3   OH245942   0.188   0.614   4.192  0.2593  0.0499  0.0933
 8176TIP3    H145943   0.198   0.579   4.103  0.6705 -0.1125  0.1983
 8176TIP3    H245944   0.276   0.608   4.229  0.5036  1.8384 -0.1220
 8177TIP3   OH245945   4.343   1.845   5.612 -0.3787 -0.3329  0.3308
 8177TIP3    H145946   4.265   1.818   5.563 -0.7125  0.4195  0.4341
 8177TIP3    H245947   4.309   1.896   5.685  0.1542 -0.8980  0.9912
 8178TIP3   OH245948   0.723   2.576   3.054 -0.1495 -0.2571 -0.0627
 8178TIP3    H145949   0.794   2.621   3.008  0.0381 -0.0673  0.4018
 8178TIP3    H245950   0.648   2.580   2.995 -0.3459  1.2939  0.2485
 8179TIP3   OH245951   4.696   5.136  12.998 -0.4530  0.1142 -0.3172
 8179TIP3    H145952   4.695   5.189  12.918  2.7276  1.3483  0.2974
 8179TIP3    H245953   4.766   5.174  13.051 -0.2098 -2.7258  1.6125
 8180TIP3   OH245954   4.430   1.476   5.467 -0.0932  0.1009 -0.2411
 8180TIP3    H145955   4.398   1.424   5.540 -1.1608  0.7331 -0.2454
 8180TIP3    H245956   4.476   1.412   5.411 -1.4073 -0.8541 -0.2731
 8181TIP3   OH245957   0.718   5.190   1.991 -0.1492 -0.3708 -0.0641
 8181TIP3    H145958   0.678   5.276   1.997 -0.1539 -0.2929 -1.0574
 8181TIP3    H245959   0.788   5.200   1.927  0.8792 -0.7338  0.9518
 8182TIP3   OH245960   2.110   1.476  14.347 -0.7837  0.0441 -0.2808
 8182TIP3    H145961   2.151   1.562  14.346 -0.3077 -0.1709 -0.9537
 8182TIP3    H245962   2.171   1.421  14.297 -2.1740 -0.1612 -1.8475
 8183TIP3   OH245963   3.953   0.047   0.956 -0.2078  0.5691 -0.0111
 8183TIP3    H145964   3.965   0.091   1.040 -1.0819  1.8031 -0.4980
 8183TIP3    H245965   4.010  -0.029   0.960  0.6984  1.2771  1.2179
 8184TIP3   OH245966   2.561   3.171   1.433  0.7406 -0.1081 -0.4432
 8184TIP3    H145967   2.498   3.226   1.479  2.3664  0.2481  1.5477
 8184TIP3    H245968   2.559   3.202   1.343 -2.0839 -0.3349 -0.5402
 8185TIP3   OH245969   3.533   1.089  13.380  0.6902 -0.9207  0.1602
 8185TIP3    H145970   3.497   1.102  13.467 -0.4030  0.1196 -0.4238
 8185TIP3    H245971   3.472   1.029  13.337  0.6450 -0.5922 -0.2413
 8186TIP3   OH245972   2.370   3.997  13.312 -0.0084  0.3146  0.0681
 8186TIP3    H145973   2.352   4.001  13.218 -0.7915  0.5599  0.2223
 8186TIP3    H245974   2.433   3.925  13.321  1.4894  1.4667 -0.8330
 8187TIP3   OH245975   3.851   5.898  14.247  0.5356  0.5175 -0.1115
 8187TIP3    H145976   3.908   5.852  14.308  0.0803  1.2142  0.8648
 8187TIP3    H245977   3.763   5.886  14.281  0.0564 -0.5723 -1.6256
 8188TIP3   OH245978   2.421   2.094  16.987  0.5468 -0.3869  0.0283
 8188TIP3    H145979   2.496   2.101  16.928  0.9377 -1.3592  0.3765
 8188TIP3    H245980   2.437   2.161  17.054 -0.6456  1.7495 -1.7006
 8189TIP3   OH245981   6.564   6.647   5.444  0.1833 -0.7250 -0.6177
 8189TIP3    H145982   6.615   6.648   5.526 -1.6849  0.7573  0.6205
 8189TIP3    H245983   6.557   6.739   5.419  1.3681 -1.2015 -2.9597
 8190TIP3   OH245984   0.432   1.551   1.017  0.4346 -0.7338  0.2031
 8190TIP3    H145985   0.445   1.507   1.101 -0.1266 -0.3299  0.5109
 8190TIP3    H245986   0.398   1.483   0.959  1.2121 -1.1119  0.1861
 8191TIP3   OH245987   5.165   5.125  17.291 -0.3365 -0.1363  0.3228
 8191TIP3    H145988   5.118   5.184  17.232 -0.9208 -1.3252 -0.4264
 8191TIP3    H245989   5.114   5.044  17.291  0.8320 -0.9004  0.7642
 8192TIP3   OH245990   1.197   1.840  17.335  0.1799 -0.7476 -0.0286
 8192TIP3    H145991   1.116   1.890  17.346  0.9013  0.1497  1.5324
 8192TIP3    H245992   1.193   1.807  17.245 -1.2211  0.5137 -0.4656
 8193TIP3   OH245993   5.802   1.549   6.775 -0.3804 -0.3824  0.6092
 8193TIP3    H145994   5.741   1.595   6.832  1.4292  0.2359  2.1359
 8193TIP3    H245995   5.869   1.614   6.753 -0.3813 -0.9439 -1.2823
 8194TIP3   OH245996   4.550   3.087  14.000  0.2848  0.2574 -0.1089
 8194TIP3    H145997   4.636   3.074  14.040  1.4177  1.3392 -2.0765
 8194TIP3    H245998   4.566   3.087  13.906 -2.0877 -0.7911 -0.6088
 8195TIP3   OH245999   1.245   2.362   4.705 -0.2462 -0.6770  0.2426
 8195TIP3    H146000   1.245   2.311   4.786 -0.1172 -0.4792  0.3699
 8195TIP3    H246001   1.153   2.384   4.690 -0.3768 -1.4472 -0.1381
 8196TIP3   OH246002   5.424   3.090  13.612 -0.4940  0.1632  0.1878
 8196TIP3    H146003   5.387   3.130  13.533 -0.8924 -0.3923  0.0843
 8196TIP3    H246004   5.400   3.149  13.683  1.5775  1.7443 -0.3269
 8197TIP3   OH246005   0.513   0.332  12.451  0.4567  0.0959  0.2028
 8197TIP3    H146006   0.539   0.269  12.384  1.5633  1.1075 -0.3677
 8197TIP3    H246007   0.421   0.352  12.432 -0.8167 -3.2569  2.0039
 8198TIP3   OH246008   5.398   3.568  14.358 -0.5053  0.1551 -0.3515
 8198TIP3    H146009   5.350   3.522  14.289 -1.8599 -1.0121  1.3028
 8198TIP3    H246010   5.379   3.519  14.438  0.6202  1.7480  0.9656
 8199TIP3   OH246011   4.274   5.240  15.966 -0.7181  0.0594  0.6119
 8199TIP3    H146012   4.297   5.329  15.938  0.4969 -0.3375  0.2947
 8199TIP3    H246013   4.240   5.198  15.887 -0.8007  0.0753  0.6383
 8200TIP3   OH246014   6.166   0.252  13.771  0.0268  0.3411 -0.0872
 8200TIP3    H146015   6.199   0.163  13.772  0.5578  0.5142 -1.2509
 8200TIP3    H246016   6.238   0.305  13.737  0.1672  1.4234  1.7026
 8201TIP3   OH246017   4.042   0.682   2.509  0.0250 -0.8849 -0.0338
 8201TIP3    H146018   4.007   0.766   2.481 -0.3702 -0.8959  0.4028
 8201TIP3    H246019   4.122   0.671   2.459  0.5096  0.1253  0.4834
 8202TIP3   OH246020   6.455   3.891  13.548  0.3738 -0.2443  0.1615
 8202TIP3    H146021   6.360   3.884  13.552  0.2260  1.4679  0.3389
 8202TIP3    H246022   6.475   3.978  13.584  1.9878 -0.5100 -0.0007
 8203TIP3   OH246023   0.543   2.658  16.414  0.3544 -0.6269 -0.0481
 8203TIP3    H146024   0.482   2.614  16.473 -1.3607 -0.2884 -1.4806
 8203TIP3    H246025   0.623   2.668  16.466 -1.1771  0.0430  2.3904
 8204TIP3   OH246026   0.253   0.285   0.044 -0.1006 -0.4034 -0.7867
 8204TIP3    H146027   0.245   0.287   0.139  0.8935 -1.7958 -0.6404
 8204TIP3    H246028   0.166   0.307   0.011 -0.3656  0.4213  0.4322
 8205TIP3   OH246029   5.064   4.945   2.418 -0.0748 -0.4253  0.8592
 8205TIP3    H146030   5.002   4.971   2.487  1.2391 -0.4723  2.1060
 8205TIP3    H246031   5.063   4.850   2.421  0.3897 -0.4255  1.2216
 8206TIP3   OH246032   5.414   1.644  12.951  0.4606  0.1069 -0.8219
 8206TIP3    H146033   5.388   1.568  13.003  1.5230 -0.8581 -1.6542
 8206TIP3    H246034   5.496   1.673  12.990 -0.4845  1.5524  0.1871
 8207TIP3   OH246035   0.422   1.126   2.638 -0.7220  0.8955 -0.4846
 8207TIP3    H146036   0.349   1.165   2.686  0.0334  0.0433  1.4683
 8207TIP3    H246037   0.404   1.032   2.638  0.0282  0.7423 -0.5488
 8208TIP3   OH246038   4.543   1.427  15.404  0.8921 -0.5868  0.0669
 8208TIP3    H146039   4.619   1.470  15.443  1.4652 -0.3441 -1.2858
 8208TIP3    H246040   4.569   1.408  15.315 -0.5583 -0.7087 -0.3557
 8209TIP3   OH246041   1.339   0.330  13.949  0.2949 -0.1502  0.4952
 8209TIP3    H146042   1.424   0.289  13.932  0.1182  0.3076 -1.8779
 8209TIP3    H246043   1.275   0.259  13.936  0.1733  0.1356 -0.5463
 8210TIP3   OH246044   2.008   3.518  14.564 -0.4769  0.4962 -0.5741
 8210TIP3    H146045   1.993   3.503  14.471  1.3883 -1.6536 -0.6357
 8210TIP3    H246046   1.986   3.434  14.605  0.0883  0.9637  0.7338
 8211TIP3   OH246047   2.794   6.203   3.684 -0.5050 -0.5269 -0.8528
 8211TIP3    H146048   2.887   6.181   3.691 -0.2213  0.6044 -0.8345
 8211TIP3    H246049   2.792   6.299   3.689 -1.2957 -0.1757 -4.5341
 8212TIP3   OH246050   1.828   1.008  16.672 -0.6852 -0.0984 -0.4538
 8212TIP3    H146051   1.800   1.059  16.596 -0.4370 -2.1922 -2.0392
 8212TIP3    H246052   1.922   0.997  16.661 -0.4593  0.4154  0.7442
 8213TIP3   OH246053   1.019   0.639  16.011 -0.3320  0.0310  0.1358
 8213TIP3    H146054   0.962   0.565  16.031  0.1001  0.1814  2.1788
 8213TIP3    H246055   0.960   0.705  15.974 -1.1086 -0.5651  0.2837
 8214TIP3   OH246056   3.091   5.505   0.182 -0.0361  0.4622 -0.1088
 8214TIP3    H146057   3.051   5.569   0.241 -0.6700 -0.1505  0.1452
 8214TIP3    H246058   3.046   5.519   0.099  0.1950  0.6915 -0.1980
 8215TIP3   OH246059   2.937   1.598  13.675 -0.5399 -0.7213 -0.0574
 8215TIP3    H146060   2.850   1.636  13.688  0.2261  0.9915  0.3907
 8215TIP3    H246061   2.977   1.650  13.606  0.4107 -0.9560  0.2861
 8216TIP3   OH246062   4.075   0.907   5.399 -0.2399  0.4054  0.2876
 8216TIP3    H146063   4.059   0.906   5.305 -0.7296 -0.3331  0.3710
 8216TIP3    H246064   4.111   0.994   5.416  2.6074 -0.3906 -1.0257
 8217TIP3   OH246065   2.928   3.353  11.526  0.8070  0.4658  0.7344
 8217TIP3    H146066   2.851   3.330  11.579 -0.8366  1.8297 -0.9378
 8217TIP3    H246067   2.945   3.445  11.546  0.2923  0.9416 -0.8592
 8218TIP3   OH246068   4.889   1.361  16.543  0.1271  0.2570 -0.0032
 8218TIP3    H146069   4.906   1.454  16.536  1.1481  0.0228 -0.8266
 8218TIP3    H246070   4.795   1.355  16.563 -0.0705  1.4279 -0.5233
 8219TIP3   OH246071   0.627   0.314  14.463  0.2614  0.5355 -0.0218
 8219TIP3    H146072   0.546   0.287  14.507  0.2271  0.5582 -0.0701
 8219TIP3    H246073   0.669   0.232  14.438  0.0300  0.5301 -0.3982
 8220TIP3   OH246074   1.675   1.078  11.680 -0.3044  0.3439 -0.6580
 8220TIP3    H146075   1.617   1.023  11.627 -1.3670  1.8514 -1.1198
 8220TIP3    H246076   1.706   1.020  11.750 -1.5975 -0.7646 -0.9585
 8221TIP3   OH246077   2.524   2.476  16.153  0.0577 -0.2160 -0.8025
 8221TIP3    H146078   2.572   2.442  16.228 -2.0340 -0.8911  0.3304
 8221TIP3    H246079   2.567   2.559  16.132  1.7116 -0.8169  0.0729
 8222TIP3   OH246080   4.918   5.808  15.618  0.1101  0.5232 -0.1499
 8222TIP3    H146081   4.924   5.724  15.572 -0.9416  0.4605 -0.1944
 8222TIP3    H246082   4.826   5.833  15.611  0.4530  1.7923 -0.3183
 8223TIP3   OH246083   0.231   0.372  13.440 -0.2363 -0.2269  0.2777
 8223TIP3    H146084   0.163   0.438  13.433  0.2841  0.5014  1.6967
 8223TIP3    H246085   0.305   0.418  13.479 -0.4620 -2.0162  3.0857
 8224TIP3   OH246086   0.176   0.760   2.443  0.7176  0.0444 -0.5056
 8224TIP3    H146087   0.114   0.833   2.438 -0.3848 -0.7731  0.7914
 8224TIP3    H246088   0.211   0.764   2.532  1.6371 -0.2553 -0.8346
 8225TIP3   OH246089   0.953   4.414   4.548  0.5874  0.2312 -0.8920
 8225TIP3    H146090   0.859   4.405   4.530  0.5124  0.9532 -0.8658
 8225TIP3    H246091   0.966   4.508   4.561  1.4350  0.2192 -1.5852
 8226TIP3   OH246092   5.241   6.166   5.219  0.1296 -0.1574  0.5197
 8226TIP3    H146093   5.145   6.166   5.208  0.2539 -0.1586 -0.6599
 8226TIP3    H246094   5.269   6.080   5.188  0.6143  0.2227 -0.1075
 8227TIP3   OH246095   4.360   4.439   4.531  0.1265 -0.5072 -0.3982
 8227TIP3    H146096   4.320   4.464   4.614  1.4341  0.5957 -0.0634
 8227TIP3    H246097   4.449   4.472   4.536  0.2948 -0.5667 -2.1889
 8228TIP3   OH246098   3.400   4.629   0.376 -0.1240 -0.7758  0.3486
 8228TIP3    H146099   3.475   4.689   0.377 -0.3743 -0.3680 -1.5682
 8228TIP3    H246100   3.426   4.558   0.434  0.2845  1.0317  2.5375
 8229TIP3   OH246101   0.018   6.520   2.475 -0.0825 -0.2885 -0.1042
 8229TIP3    H146102   0.007   6.427   2.492 -0.0860 -0.1004  0.9566
 8229TIP3    H246103   0.081   6.550   2.540 -0.8891  0.6604  0.2751
 8230TIP3   OH246104   5.379   3.716   2.205 -0.3170  0.3318  0.0465
 8230TIP3    H146105   5.380   3.702   2.110  0.6837  0.1347  0.0748
 8230TIP3    H246106   5.445   3.655   2.239 -1.0762 -0.0098  0.9336
 8231TIP3   OH246107   3.409   5.369   0.314 -0.3616  0.0823  0.3421
 8231TIP3    H146108   3.463   5.298   0.280  1.9835  2.0813 -0.4269
 8231TIP3    H246109   3.351   5.392   0.242  0.3911  0.3324 -0.2025
 8232TIP3   OH246110   3.254   3.874   0.905 -0.3586 -0.2696  0.0870
 8232TIP3    H146111   3.174   3.832   0.936 -0.8351  0.4842 -0.0818
 8232TIP3    H246112   3.324   3.832   0.955 -1.0558  0.5388  1.8246
 8233TIP3   OH246113   1.407   3.562   3.329  0.2654 -0.3100  0.1365
 8233TIP3    H146114   1.478   3.599   3.382 -0.7434  0.8547  0.7287
 8233TIP3    H246115   1.451   3.507   3.265  1.5735 -1.7911  2.1572
 8234TIP3   OH246116   5.060   5.604  12.995  0.3532 -0.1680 -0.3902
 8234TIP3    H146117   5.045   5.522  12.949  1.5376 -0.2976 -0.5690
 8234TIP3    H246118   5.005   5.668  12.949 -1.6996 -1.0959  0.6215
 8235TIP3   OH246119   0.574   0.429  12.804  0.6462  0.4180  0.2820
 8235TIP3    H146120   0.617   0.402  12.723 -1.6029  0.0797 -0.8672
 8235TIP3    H246121   0.585   0.354  12.863 -0.0129 -0.4564 -0.6708
 8236TIP3   OH246122   5.817   0.691  13.142  0.6867  0.2535 -0.0695
 8236TIP3    H146123   5.894   0.724  13.096  0.7701 -0.7457 -0.6562
 8236TIP3    H246124   5.846   0.683  13.233  0.5372  2.1646  0.2076
 8237TIP3   OH246125   5.840   2.472  12.768 -0.6740  0.4834 -0.0579
 8237TIP3    H146126   5.751   2.490  12.738  0.1927 -0.3708 -3.5396
 8237TIP3    H246127   5.851   2.378  12.757  1.4576  0.9053 -2.4529
 8238TIP3   OH246128   5.637   6.002  11.596  0.7319  0.1805 -0.1651
 8238TIP3    H146129   5.637   6.034  11.686  2.4059  0.3914 -0.2125
 8238TIP3    H246130   5.668   5.912  11.602  1.3372  0.3577 -0.5765
 8239TIP3   OH246131   3.354   2.235  14.892  0.5317 -0.1562  0.3231
 8239TIP3    H146132   3.292   2.162  14.895  2.1138 -1.5765  0.1965
 8239TIP3    H246133   3.354   2.263  14.801 -0.0965  0.0217  0.3764
 8240TIP3   OH246134   0.644   4.838   4.839  0.3868 -0.0317  0.5053
 8240TIP3    H146135   0.584   4.886   4.782  0.1317  0.1279  0.8983
 8240TIP3    H246136   0.622   4.746   4.825  0.4248 -0.0005  0.2386
 8241TIP3   OH246137   1.303   0.223   0.350 -0.9118  0.4979  0.8870
 8241TIP3    H146138   1.348   0.298   0.311 -1.4612  0.8098  0.8456
 8241TIP3    H246139   1.367   0.186   0.411 -0.3670  0.5439  0.3549
 8242TIP3   OH246140   5.880   4.449  16.312  0.3051 -0.4911  0.0694
 8242TIP3    H146141   5.925   4.377  16.356  0.6498 -0.2313  0.1458
 8242TIP3    H246142   5.856   4.510  16.383  0.3322 -0.3581 -0.0356
 8243TIP3   OH246143   1.501   3.812  15.852  0.1499  0.2907 -0.1191
 8243TIP3    H146144   1.477   3.890  15.902  0.4330  0.7374 -0.6579
 8243TIP3    H246145   1.430   3.750  15.868  0.4809  0.2335  1.2148
 8244TIP3   OH246146   0.939   5.861   0.308 -0.2300 -0.1255  0.3664
 8244TIP3    H146147   0.990   5.939   0.330  1.4825 -1.0587 -0.0592
 8244TIP3    H246148   0.966   5.796   0.373  0.8926 -1.3096 -1.1796
 8245TIP3   OH246149   4.819   4.965   5.044 -0.1558 -0.7631 -0.6761
 8245TIP3    H146150   4.806   4.901   5.115  0.7149 -2.4604 -1.9704
 8245TIP3    H246151   4.747   4.948   4.983 -1.5237  1.4076  0.2226
 8246TIP3   OH246152   2.042   3.640   1.542 -0.0351 -0.5665 -0.0503
 8246TIP3    H146153   2.000   3.651   1.628  0.1085  0.3804 -0.0934
 8246TIP3    H246154   1.980   3.679   1.480  1.7592  2.9439  0.0926
 8247TIP3   OH246155   2.425   6.760   5.622  0.5243 -0.1582 -0.2082
 8247TIP3    H146156   2.520   6.766   5.623  0.5968 -1.2736  0.1534
 8247TIP3    H246157   2.400   6.740   5.712  0.1740 -2.6425 -0.7694
 8248TIP3   OH246158   5.902   6.038   0.460 -0.4465  0.2980  0.0539
 8248TIP3    H146159   5.956   5.959   0.459 -1.6117 -0.5263 -0.2428
 8248TIP3    H246160   5.814   6.006   0.481 -0.8969  1.5543  0.1658
 8249TIP3   OH246161   6.337   4.881  12.521  0.3607  0.8560  0.2184
 8249TIP3    H146162   6.378   4.954  12.475  1.8403 -1.0437 -1.6556
 8249TIP3    H246163   6.292   4.832  12.453 -0.2237 -0.2338  1.3546
 8250TIP3   OH246164   1.060   1.212  14.945  0.1979  0.1241  0.2996
 8250TIP3    H146165   1.132   1.244  14.891 -0.0891 -0.8001 -0.6751
 8250TIP3    H246166   1.071   1.117  14.946 -1.1434 -0.0598 -0.0791
 8251TIP3   OH246167   0.459   6.045  13.620  0.0464 -0.1457  0.2329
 8251TIP3    H146168   0.415   5.960  13.613 -0.1819 -0.1039  1.0360
 8251TIP3    H246169   0.551   6.026  13.605  0.1243 -0.6941  1.2981
 8252TIP3   OH246170   1.957   2.200   3.423  0.6023 -0.3553  0.8872
 8252TIP3    H146171   1.928   2.117   3.386 -0.4031 -0.8421  2.6369
 8252TIP3    H246172   1.877   2.251   3.434  1.1659  0.7150  0.2032
 8253TIP3   OH246173   1.628   3.995   3.581  0.6061 -0.5922  0.2259
 8253TIP3    H146174   1.541   3.960   3.602  0.1363 -0.0521 -0.7502
 8253TIP3    H246175   1.623   4.087   3.604  0.3539 -0.1783 -1.3306
 8254TIP3   OH246176   5.870   3.854   6.183  0.4058  0.2839 -0.0499
 8254TIP3    H146177   5.786   3.868   6.141 -0.0466 -0.4235  0.5979
 8254TIP3    H246178   5.872   3.761   6.203  1.1227  0.3874  0.4089
 8255TIP3   OH246179   2.745   1.277   3.146 -0.1570 -0.5482 -0.5305
 8255TIP3    H146180   2.665   1.273   3.095 -0.2943 -1.1883 -0.2725
 8255TIP3    H246181   2.717   1.298   3.235  0.2286  2.5435 -1.0450
 8256TIP3   OH246182   0.469   5.849   1.122 -0.3228 -0.5988  0.0888
 8256TIP3    H146183   0.408   5.923   1.115 -0.8681 -1.1133 -0.8926
 8256TIP3    H246184   0.547   5.886   1.162 -1.1704  0.1482  1.1330
 8257TIP3   OH246185   1.155   2.167  12.143 -0.2616  1.2506 -0.5442
 8257TIP3    H146186   1.109   2.233  12.090 -1.1590  0.8162 -0.3350
 8257TIP3    H246187   1.219   2.128  12.083 -0.7908  1.2433 -1.1147
 8258TIP3   OH246188   5.305   2.319  17.011 -0.4098  0.0573 -0.3433
 8258TIP3    H146189   5.362   2.386  16.973 -1.3369  1.7479  1.1496
 8258TIP3    H246190   5.365   2.248  17.035  0.7859  0.9552 -0.5921
 8259TIP3   OH246191   0.787   6.276  13.153  0.7661 -0.0158 -0.1632
 8259TIP3    H146192   0.798   6.363  13.114 -1.0173  1.2553  1.9306
 8259TIP3    H246193   0.704   6.244  13.119  0.6109 -0.1595  0.3329
 8260TIP3   OH246194   4.998   3.735  12.072 -0.4402 -0.5006 -0.2584
 8260TIP3    H146195   4.947   3.813  12.047 -0.4731 -0.5548 -0.3591
 8260TIP3    H246196   5.084   3.749  12.033 -0.0366  0.0971  0.7984
 8261TIP3   OH246197   2.899   4.987  15.976 -0.1065  0.2483  0.0704
 8261TIP3    H146198   2.892   4.893  15.964  0.1002  0.1907  0.3729
 8261TIP3    H246199   2.857   5.004  16.061 -0.5646  0.4906 -0.2047
 8262TIP3   OH246200   4.040   3.408  13.065 -0.3663  0.2518 -0.6279
 8262TIP3    H146201   4.084   3.490  13.047  0.3572 -0.0243 -0.1482
 8262TIP3    H246202   4.109   3.350  13.097 -1.0208 -0.2861 -0.1712
 8263TIP3   OH246203   2.043   4.287  16.854 -0.0531 -0.1836 -0.1956
 8263TIP3    H146204   1.984   4.211  16.853 -0.1494 -0.1350  0.6524
 8263TIP3    H246205   2.044   4.318  16.764  1.5771 -2.4196 -1.0519
 8264TIP3   OH246206   3.703   2.907   5.135 -0.4322 -0.4926  0.0881
 8264TIP3    H146207   3.716   2.894   5.042  3.0444 -1.5470  0.6016
 8264TIP3    H246208   3.646   2.834   5.161 -0.5710 -0.7905 -1.0005
 8265TIP3   OH246209   1.017   5.916  12.743  0.7152  0.1325 -0.2740
 8265TIP3    H146210   1.098   5.954  12.708  1.8546 -1.3901  0.6111
 8265TIP3    H246211   0.987   5.857  12.673  1.3093 -0.5890  0.0760
 8266TIP3   OH246212   0.417   4.582   0.503 -0.2445  0.3427  0.3599
 8266TIP3    H146213   0.512   4.584   0.496 -0.1989  0.0428  0.8023
 8266TIP3    H246214   0.394   4.664   0.546 -0.1813  0.3965  0.2902
 8267TIP3   OH246215   2.450   0.544  11.609 -0.1344 -0.2693  0.5253
 8267TIP3    H146216   2.380   0.484  11.633  0.7519 -0.6607  2.2830
 8267TIP3    H246217   2.415   0.631  11.626 -0.5719 -0.3957  0.2888
 8268TIP3   OH246218   0.871   2.619  15.409  0.0287  0.5212 -0.7699
 8268TIP3    H146219   0.867   2.602  15.315  1.4804 -2.8700 -0.3643
 8268TIP3    H246220   0.940   2.561  15.441 -1.6220  0.1658  2.6541
 8269TIP3   OH246221   4.458   4.701  12.530  0.0493  0.4212 -0.0992
 8269TIP3    H146222   4.428   4.730  12.616 -2.0742  2.5924 -1.4613
 8269TIP3    H246223   4.382   4.656  12.492 -1.1961  4.3074 -2.8544
 8270TIP3   OH246224   6.108   2.725  12.560 -0.1075  0.2980  0.5171
 8270TIP3    H146225   6.179   2.715  12.497 -0.5608 -0.9129  0.1702
 8270TIP3    H246226   6.028   2.711  12.510 -0.6661  2.1870  0.7847
 8271TIP3   OH246227   2.869   5.536   4.650  0.0659 -0.0265 -0.5172
 8271TIP3    H146228   2.912   5.451   4.649  0.3363  0.1027 -1.2874
 8271TIP3    H246229   2.933   5.595   4.609  0.0396  0.6263  0.3454
 8272TIP3   OH246230   5.515   6.364   4.903  0.6093 -0.2161 -0.3674
 8272TIP3    H146231   5.560   6.296   4.853 -0.4800  0.2058 -1.9895
 8272TIP3    H246232   5.506   6.438   4.842 -1.1933  0.1488  0.2596
 8273TIP3   OH246233   5.906   6.138  10.491  0.0341  0.1841 -0.0260
 8273TIP3    H146234   5.945   6.088  10.563  0.3669 -0.5236 -0.6779
 8273TIP3    H246235   5.894   6.074  10.422  0.2348  0.9596 -0.7998
 8274TIP3   OH246236   6.676   5.326  16.820 -0.1286 -0.0829 -0.0837
 8274TIP3    H146237   6.640   5.377  16.747  0.1687  2.3746  1.3882
 8274TIP3    H246238   6.607   5.327  16.886 -0.4456 -2.4058 -0.2884
 8275TIP3   OH246239   6.567   6.675   0.116 -0.2588  0.1288 -0.5835
 8275TIP3    H146240   6.503   6.615   0.154  1.6511 -0.8004  1.3368
 8275TIP3    H246241   6.538   6.761   0.143  0.6690 -0.4557  2.6165
 8276TIP3   OH246242   0.296   5.389   3.655 -0.1712  0.1981  0.2560
 8276TIP3    H146243   0.316   5.377   3.748  0.6359 -1.2796 -0.0794
 8276TIP3    H246244   0.203   5.367   3.648 -0.1054 -0.2079  0.6284
 8277TIP3   OH246245   3.399   4.544  16.093 -0.0967 -0.6805 -0.1743
 8277TIP3    H146246   3.439   4.624  16.058  0.4106 -0.2868  1.2394
 8277TIP3    H246247   3.420   4.477  16.028  0.2595  0.1455 -0.9411
 8278TIP3   OH246248   5.237   2.007  12.462  0.3166  0.4683  0.7120
 8278TIP3    H146249   5.214   2.075  12.399 -1.0848  0.0862  0.7706
 8278TIP3    H246250   5.202   1.926  12.424  0.6666  0.0152  1.3289
 8279TIP3   OH246251   4.530   2.834   4.196  0.2515  0.7349  0.2162
 8279TIP3    H146252   4.540   2.751   4.150  0.7906  1.5796 -1.2684
 8279TIP3    H246253   4.456   2.877   4.154  0.8142  1.5738  0.0580
 8280TIP3   OH246254   4.537   3.504  15.813  0.2731 -0.0869 -0.5730
 8280TIP3    H146255   4.442   3.515  15.815  0.0467 -1.7494 -0.2612
 8280TIP3    H246256   4.550   3.409  15.805  1.8918 -0.1126  1.4658
 8281TIP3   OH246257   1.892   1.072  17.272  0.4511  0.1614  0.3936
 8281TIP3    H146258   1.913   1.036  17.186 -1.0622 -1.1537  0.5339
 8281TIP3    H246259   1.901   1.167  17.262 -1.3109  0.1714 -1.6962
 8282TIP3   OH246260   3.159   2.411   5.341 -0.9026  0.0193  0.1819
 8282TIP3    H146261   3.143   2.453   5.426 -0.8033  1.0041 -0.2760
 8282TIP3    H246262   3.230   2.349   5.359  0.6306  1.7322  0.3908
 8283TIP3   OH246263   0.297   2.857   5.932  0.3364 -0.3695 -0.3911
 8283TIP3    H146264   0.345   2.787   5.975 -0.9717 -0.5047  0.9244
 8283TIP3    H246265   0.354   2.885   5.861  2.8254  0.1714  1.6691
 8284TIP3   OH246266   0.656   6.370  15.369 -0.2394  0.4163 -0.4347
 8284TIP3    H146267   0.697   6.440  15.421  1.7344 -0.8828 -0.1203
 8284TIP3    H246268   0.598   6.325  15.430 -0.1975  0.7108 -0.1752
 8285TIP3   OH246269   1.367   3.447  14.523  0.2204 -0.2492  0.0486
 8285TIP3    H146270   1.338   3.533  14.491  1.1137  0.7204  1.7308
 8285TIP3    H246271   1.329   3.439  14.610  1.9237 -0.5850  0.7902
 8286TIP3   OH246272   6.210   1.887  11.605 -0.3818 -0.3241  0.5595
 8286TIP3    H146273   6.229   1.950  11.535 -0.9510 -1.3658 -0.5695
 8286TIP3    H246274   6.151   1.933  11.664 -1.5452 -0.0802 -0.7497
 8287TIP3   OH246275   5.292   6.236   6.207 -0.2973  0.0921 -0.0143
 8287TIP3    H146276   5.283   6.331   6.216  0.7816  0.0767  1.5801
 8287TIP3    H246277   5.209   6.208   6.167 -3.7586  0.9598  5.4383
 8288TIP3   OH246278   2.143   1.791  15.808 -0.0455 -0.0213 -0.2361
 8288TIP3    H146279   2.114   1.748  15.728 -0.2552 -0.4198  0.0479
 8288TIP3    H246280   2.236   1.808  15.794  0.3895 -1.8114  0.1574
 8289TIP3   OH246281   3.007   2.692  15.380  0.0282  0.6531  0.1642
 8289TIP3    H146282   2.968   2.652  15.302  0.8771  3.0098 -1.6033
 8289TIP3    H246283   2.949   2.764  15.402  0.6800  1.0495  0.6381
 8290TIP3   OH246284   0.638   1.196   2.959  0.2711 -0.4920  0.2043
 8290TIP3    H146285   0.704   1.157   2.902  1.2772  0.9905  0.3003
 8290TIP3    H246286   0.644   1.290   2.942  0.7157  0.0324  2.8280
 8291TIP3   OH246287   5.901   2.987  17.197 -0.1972 -0.0802  0.4658
 8291TIP3    H146288   5.939   2.947  17.275  1.2866  0.5260  0.0780
 8291TIP3    H246289   5.827   2.930  17.175  1.0226 -1.8595  0.7147
 8292TIP3   OH246290   5.103   2.846   5.271 -0.2722  0.4790 -0.5265
 8292TIP3    H146291   5.111   2.786   5.345 -1.4763 -0.3645 -1.0380
 8292TIP3    H246292   5.094   2.789   5.194 -0.8170  1.3148 -1.1060
 8293TIP3   OH246293   4.211   5.831  15.028 -1.0137 -0.1143 -0.1643
 8293TIP3    H146294   4.222   5.916  14.985 -1.9005  0.8009  1.3330
 8293TIP3    H246295   4.293   5.786  15.012 -0.1077  1.4379 -0.1259
 8294TIP3   OH246296   2.675   2.613  12.960  0.0564 -0.0922 -0.2737
 8294TIP3    H146297   2.759   2.634  12.919 -0.3364  1.6671 -0.2419
 8294TIP3    H246298   2.612   2.616  12.888 -0.2846  0.6620  0.0550
 8295TIP3   OH246299   5.894   0.904  15.444 -0.3748 -0.2335  0.3893
 8295TIP3    H146300   5.829   0.967  15.476 -1.0782 -0.1308 -1.1534
 8295TIP3    H246301   5.969   0.958  15.419 -0.9859  0.0223 -0.9535
 8296TIP3   OH246302   2.371   3.328   2.147  0.0391 -0.2133  0.3142
 8296TIP3    H146303   2.398   3.375   2.226 -1.0664 -0.0090  0.5810
 8296TIP3    H246304   2.384   3.392   2.076  1.2762 -0.4820  0.2673
 8297TIP3   OH246305   1.946   2.541   0.211  0.2247 -0.1495  0.0459
 8297TIP3    H146306   1.950   2.610   0.145  1.2891  0.1166  0.3688
 8297TIP3    H246307   2.037   2.518   0.227 -0.1206 -1.9367 -0.3559
 8298TIP3   OH246308   0.915   0.153  12.563  0.3429  0.1834  0.8163
 8298TIP3    H146309   0.968   0.121  12.491 -1.0180  0.5567 -0.4053
 8298TIP3    H246310   0.949   0.109  12.640  1.4878 -0.6355 -0.1361
 8299TIP3   OH246311   2.280   4.911  16.883  0.1367 -0.4922 -0.2107
 8299TIP3    H146312   2.250   4.831  16.926  0.1505 -0.6322 -0.4629
 8299TIP3    H246313   2.264   4.897  16.790 -1.7697  0.6211 -0.0985
 8300TIP3   OH246314   5.522   5.929  11.850 -0.3626 -0.2458  0.3350
 8300TIP3    H146315   5.555   5.983  11.923  2.4324  0.7855 -1.5299
 8300TIP3    H246316   5.559   5.842  11.867  0.4701  0.0460  0.1084
 8301TIP3   OH246317   5.619   4.510   1.357  0.1562  0.0687  0.4009
 8301TIP3    H146318   5.700   4.488   1.401  1.2667  1.4956 -0.8092
 8301TIP3    H246319   5.605   4.603   1.377 -1.1354 -0.1381  0.5240
 8302TIP3   OH246320   0.657   2.449   1.613  0.2187 -0.1720  0.4367
 8302TIP3    H146321   0.696   2.530   1.645  1.4736 -0.7510  0.4416
 8302TIP3    H246322   0.691   2.382   1.672  1.1508 -1.0256 -1.0187
 8303TIP3   OH246323   1.078   2.839   2.589  0.5350  0.2682  0.5321
 8303TIP3    H146324   1.021   2.914   2.569 -0.3046 -0.2125  1.0472
 8303TIP3    H246325   1.164   2.877   2.604  0.2819  1.0516  0.0423
 8304TIP3   OH246326   6.193   4.651   1.132 -0.1479  0.2814  0.6493
 8304TIP3    H146327   6.152   4.716   1.075  0.4900  1.2682  1.2721
 8304TIP3    H246328   6.172   4.567   1.093 -0.7335  0.8859 -0.3610
 8305TIP3   OH246329   6.268   4.771   2.448  0.6688 -0.0276 -0.4415
 8305TIP3    H146330   6.352   4.749   2.409  1.0945  0.0753  0.3846
 8305TIP3    H246331   6.287   4.846   2.506  0.1622 -0.4415  0.2813
 8306TIP3   OH246332   6.123   4.341  16.440 -0.0298 -0.2708  0.0916
 8306TIP3    H146333   6.099   4.249  16.440  1.6449 -0.7349  0.3559
 8306TIP3    H246334   6.099   4.372  16.528  2.6223 -1.4053  1.3267
 8307TIP3   OH246335   1.459   1.933   5.242  0.1437  0.0676  0.1034
 8307TIP3    H146336   1.393   2.002   5.236 -1.4073 -1.3129  0.5506
 8307TIP3    H246337   1.469   1.918   5.336  1.4235  0.4998  0.0695
 8308TIP3   OH246338   3.061   3.702   3.047  0.0412  0.8860 -0.0289
 8308TIP3    H146339   3.058   3.688   2.952  1.5752  2.5878 -0.3940
 8308TIP3    H246340   2.969   3.710   3.073 -0.3911  0.8554 -1.4620
 8309TIP3   OH246341   0.944   5.458  17.182 -0.5345  0.3097  0.4213
 8309TIP3    H146342   0.937   5.419  17.269  2.2725 -2.2022 -0.3093
 8309TIP3    H246343   0.866   5.428  17.136  0.0049 -1.9153  0.8629
 8310TIP3   OH246344   0.406   2.645   1.661  0.2220 -0.1919 -0.1811
 8310TIP3    H146345   0.442   2.705   1.727  1.0342  0.2653 -1.0161
 8310TIP3    H246346   0.482   2.608   1.618 -0.2785 -1.6511  0.1337
 8311TIP3   OH246347   3.493   0.173  14.773  0.2615 -0.8506  0.4242
 8311TIP3    H146348   3.565   0.142  14.718 -0.0512 -1.1093  0.1588
 8311TIP3    H246349   3.515   0.142  14.861  0.2272 -1.3541  0.2575
 8312TIP3   OH246350   0.702   5.964  12.391  0.3999 -0.0016 -0.2399
 8312TIP3    H146351   0.612   5.938  12.372  0.0447  0.8786  0.1758
 8312TIP3    H246352   0.730   6.014  12.314 -0.0049  1.0195  0.2594
 8313TIP3   OH246353   0.972   0.601  14.445 -0.2544  0.1111  0.5287
 8313TIP3    H146354   0.880   0.597  14.470 -0.5756  2.0082 -0.1650
 8313TIP3    H246355   1.020   0.584  14.526 -1.2369  0.8920  1.2955
 8314TIP3   OH246356   5.947   1.843   1.630  0.2568  0.6884  0.2021
 8314TIP3    H146357   6.001   1.914   1.596  0.3080  1.5568  1.9824
 8314TIP3    H246358   5.956   1.773   1.565  1.0438  1.9090 -1.0684
 8315TIP3   OH246359   5.455   3.043   5.619 -0.2041 -0.0286 -0.1236
 8315TIP3    H146360   5.365   3.012   5.606 -0.5262  0.7937  0.0508
 8315TIP3    H246361   5.450   3.097   5.698  0.0606  1.4537 -1.0784
 8316TIP3   OH246362   1.592   5.203   3.333 -0.6707  0.3221  1.1458
 8316TIP3    H146363   1.529   5.140   3.369 -1.6127  1.4576  1.5384
 8316TIP3    H246364   1.658   5.212   3.402 -0.4345 -0.3630  1.0138
 8317TIP3   OH246365   5.233   3.823   1.542  0.0493 -0.2992 -0.1603
 8317TIP3    H146366   5.260   3.778   1.462  1.8331 -0.4195  0.4667
 8317TIP3    H246367   5.273   3.909   1.536 -0.7744  0.1124  0.0848
 8318TIP3   OH246368   4.914   4.562   2.983 -0.2069 -0.2937 -0.5835
 8318TIP3    H146369   4.849   4.608   3.035 -0.0587 -0.2360 -0.4458
 8318TIP3    H246370   4.939   4.487   3.036  1.2067  0.6814  0.2386
 8319TIP3   OH246371   3.234   5.500   4.839  0.3152 -0.1040 -0.2563
 8319TIP3    H146372   3.243   5.448   4.919  2.6391  0.8934  0.2244
 8319TIP3    H246373   3.165   5.564   4.860 -1.0045 -1.5289 -0.0748
 8320TIP3   OH246374   2.103   0.073   0.583  0.3337 -0.1865  0.2115
 8320TIP3    H146375   2.129   0.051   0.493  1.1208  2.1836 -0.1982
 8320TIP3    H246376   2.179   0.048   0.636  2.2667  3.4555 -0.5560
 8321TIP3   OH246377   1.995   0.227   2.715 -0.0118  0.0113 -0.6127
 8321TIP3    H146378   1.969   0.222   2.623  0.9442 -2.9661 -0.8236
 8321TIP3    H246379   1.986   0.137   2.747 -0.5335  1.0116  2.3055
 8322TIP3   OH246380   0.904   2.480  12.383 -0.0323  0.2275  0.2367
 8322TIP3    H146381   0.854   2.401  12.364  1.1330 -0.5091  0.1060
 8322TIP3    H246382   0.940   2.464  12.471  1.5778 -0.1532 -0.4587
 8323TIP3   OH246383   6.026   0.872  11.914 -0.2713  0.0172  0.0346
 8323TIP3    H146384   6.074   0.789  11.917  0.3706  0.3727 -0.0498
 8323TIP3    H246385   6.094   0.937  11.895 -0.6443  0.6542  0.8500
 8324TIP3   OH246386   4.365   0.188   0.945  0.4027 -0.2640 -0.0139
 8324TIP3    H146387   4.340   0.272   0.906  1.8006  0.0632 -0.2878
 8324TIP3    H246388   4.355   0.202   1.039 -1.0532 -0.3904 -0.1303
 8325TIP3   OH246389   2.745   0.169  15.073 -0.0835  0.0465  0.3923
 8325TIP3    H146390   2.774   0.096  15.128  1.1203  0.6628  0.6036
 8325TIP3    H246391   2.715   0.127  14.992 -2.4048 -0.9237  1.6695
 8326TIP3   OH246392   4.679   5.611  15.109 -0.1162  0.2214 -0.1444
 8326TIP3    H146393   4.772   5.599  15.130 -0.6734 -0.2466  2.3718
 8326TIP3    H246394   4.673   5.702  15.079  1.0777  0.3949  0.1033
 8327TIP3   OH246395   5.900   0.355  15.245 -0.0882 -0.2761  0.4840
 8327TIP3    H146396   5.983   0.311  15.268 -0.2935 -0.0217  1.7958
 8327TIP3    H246397   5.907   0.371  15.151  0.6319 -1.7855  0.2454
 8328TIP3   OH246398   4.772   2.174  16.239  0.6729 -0.0747 -0.3989
 8328TIP3    H146399   4.696   2.155  16.293  0.1904  0.1150 -1.0075
 8328TIP3    H246400   4.832   2.101  16.256  0.9750  0.4960  1.1717
 8329TIP3   OH246401   3.179   5.882  15.240  0.2568 -0.4460 -0.0760
 8329TIP3    H146402   3.211   5.833  15.164  0.0984  0.3621 -0.6771
 8329TIP3    H246403   3.154   5.967  15.205 -0.1108 -0.1647  0.8366
 8330TIP3   OH246404   1.459   5.619   4.383  0.3386 -0.0431 -0.1378
 8330TIP3    H146405   1.521   5.644   4.451  0.7767  1.5670 -1.0981
 8330TIP3    H246406   1.374   5.648   4.417  0.6176  1.1941 -0.4619
 8331TIP3   OH246407   5.161   5.509   0.347 -0.0880  0.4120 -0.0767
 8331TIP3    H146408   5.232   5.573   0.348  0.7799 -0.4829 -1.4426
 8331TIP3    H246409   5.200   5.430   0.310 -1.2405 -0.8086  1.1737
 8332TIP3   OH246410   2.400   6.293  14.713 -0.3587 -0.6372 -0.0280
 8332TIP3    H146411   2.383   6.358  14.782 -0.3266  0.2784 -0.8671
 8332TIP3    H246412   2.345   6.321  14.640  0.7161 -0.7355 -0.8953
 8333TIP3   OH246413   1.115   2.506   4.188  0.4233  0.4694 -0.5050
 8333TIP3    H146414   1.127   2.561   4.266 -1.4715 -0.0995  0.2646
 8333TIP3    H246415   1.204   2.489   4.157  1.5376 -1.3344  3.0129
 8334TIP3   OH246416   4.410   3.517   1.715 -0.6809  0.3570 -0.0811
 8334TIP3    H146417   4.359   3.598   1.713 -0.5793  0.4310  0.2589
 8334TIP3    H246418   4.379   3.470   1.792  0.0671  0.6016  0.3773
 8335TIP3   OH246419   2.768   4.458   4.907  0.6086  0.5392  0.2804
 8335TIP3    H146420   2.727   4.373   4.925 -0.5693  1.2331  0.9836
 8335TIP3    H246421   2.700   4.522   4.929  2.2414  1.7583  1.9919
 8336TIP3   OH246422   5.124   5.509  14.609  0.0295 -0.5293  0.2623
 8336TIP3    H146423   5.173   5.576  14.658  1.4299 -1.9401  0.8708
 8336TIP3    H246424   5.058   5.478  14.671 -1.1374  0.7739 -0.2755
 8337TIP3   OH246425   0.074   3.462  16.321  0.4920 -0.3513  0.6329
 8337TIP3    H146426   0.134   3.518  16.371  0.4694 -0.1037  0.3884
 8337TIP3    H246427   0.062   3.509  16.238  0.6115 -0.8119  0.3540
 8338TIP3   OH246428   0.310   5.999  14.650  0.1949  0.0012  0.0551
 8338TIP3    H146429   0.232   5.975  14.700  1.1615 -1.4939  0.8944
 8338TIP3    H246430   0.276   6.053  14.578 -1.4201  0.7526  1.3117
 8339TIP3   OH246431   2.054   1.314  12.934  0.1516 -0.5964  0.0487
 8339TIP3    H146432   2.029   1.315  12.841 -3.0720 -2.4819  0.7174
 8339TIP3    H246433   2.044   1.222  12.960  2.0270 -0.3014  2.0670
 8340TIP3   OH246434   1.814   2.417   6.393  0.2041 -0.6307  0.6636
 8340TIP3    H146435   1.754   2.361   6.345  0.1902 -0.5136  0.5448
 8340TIP3    H246436   1.791   2.403   6.485 -2.2120  1.8112  0.5749
 8341TIP3   OH246437   2.550   6.229  11.603 -0.6136  0.2016  0.1190
 8341TIP3    H146438   2.641   6.260  11.610  0.1487 -1.8679  0.0496
 8341TIP3    H246439   2.520   6.262  11.519  0.1587  0.7082  0.0309
 8342TIP3   OH246440   0.589   4.357   3.138  0.3595 -0.2434  0.1255
 8342TIP3    H146441   0.530   4.309   3.079  0.7475 -1.2261  0.5187
 8342TIP3    H246442   0.547   4.443   3.149  0.1178 -0.1402 -1.3245
 8343TIP3   OH246443   5.341   4.539   3.803  0.0179 -0.4366 -0.3550
 8343TIP3    H146444   5.353   4.444   3.805 -0.9136 -0.5772  2.0267
 8343TIP3    H246445   5.259   4.553   3.850  0.5872  1.6149  0.1037
 8344TIP3   OH246446   6.095   1.667  14.595  0.2442 -0.1717 -0.1480
 8344TIP3    H146447   6.189   1.672  14.582  0.1857 -0.2080 -0.5836
 8344TIP3    H246448   6.084   1.659  14.690  0.6574  0.3873 -0.0533
 8345TIP3   OH246449   3.073   5.738  12.462  0.7612  0.0859  0.2157
 8345TIP3    H146450   3.069   5.677  12.536 -2.6748 -1.1955 -0.8265
 8345TIP3    H246451   3.004   5.802  12.480  0.5822  0.3691 -1.3404
 8346TIP3   OH246452   3.553   1.612  12.068 -0.1645  0.1129 -0.2124
 8346TIP3    H146453   3.483   1.590  12.007 -0.1637 -1.0604  0.1983
 8346TIP3    H246454   3.508   1.654  12.141 -0.5573 -1.3170  0.3949
 8347TIP3   OH246455   6.509   0.073   2.126  0.3783 -0.5871 -0.1700
 8347TIP3    H146456   6.526  -0.016   2.095  0.3298 -0.6286 -0.0763
 8347TIP3    H246457   6.413   0.079   2.131  0.3745 -0.4711 -0.3499
 8348TIP3   OH246458   3.002   1.155   3.039  0.1024 -0.0671  0.8371
 8348TIP3    H146459   3.000   1.228   2.977  0.2272  0.3683  1.3381
 8348TIP3    H246460   2.909   1.138   3.057  0.0888  0.8118  1.6844
 8349TIP3   OH246461   4.805   3.253   1.811  0.4760 -0.3282 -0.2743
 8349TIP3    H146462   4.793   3.158   1.814  0.2556 -0.3384 -1.1882
 8349TIP3    H246463   4.863   3.268   1.736  0.8072  0.2360  0.0850
 8350TIP3   OH246464   5.715   1.305  13.046  0.2857 -0.5968  0.4818
 8350TIP3    H146465   5.726   1.313  12.952  1.0671 -0.7215  0.5549
 8350TIP3    H246466   5.712   1.211  13.063  2.4007 -0.6528  0.7980
 8351TIP3   OH246467   5.550   3.912   5.655 -0.5231  0.0515  0.7045
 8351TIP3    H146468   5.487   3.954   5.712 -0.6559  0.7480  0.0601
 8351TIP3    H246469   5.621   3.976   5.645 -0.5800  0.0105 -0.0390
 8352TIP3   OH246470   0.573   0.499  16.113 -0.9977  0.3077 -0.0894
 8352TIP3    H146471   0.639   0.490  16.182  0.0482  1.8647 -0.8389
 8352TIP3    H246472   0.610   0.453  16.038 -1.2914  0.2088 -0.1753
 8353TIP3   OH246473   4.593   6.558   5.423  0.0990  0.4844  0.3653
 8353TIP3    H146474   4.623   6.512   5.502 -3.9858 -0.5068  1.5958
 8353TIP3    H246475   4.589   6.489   5.356 -0.6268  0.3000  0.5903
 8354TIP3   OH246476   3.470   3.724   0.983  0.5637  0.0078  0.1883
 8354TIP3    H146477   3.511   3.760   0.904 -3.3163  0.8530 -1.7028
 8354TIP3    H246478   3.427   3.644   0.953 -1.9027  0.8940  1.0485
 8355TIP3   OH246479   4.663   4.473   4.542 -0.8983 -0.2854 -0.1563
 8355TIP3    H146480   4.665   4.420   4.622  0.0289  0.0797  0.0713
 8355TIP3    H246481   4.702   4.557   4.567 -1.0448  0.0045 -0.8736
 8356TIP3   OH246482   1.390   1.287   5.080 -0.2997 -0.6407  0.1648
 8356TIP3    H146483   1.480   1.269   5.108 -0.3250  0.5916  1.1574
 8356TIP3    H246484   1.398   1.309   4.987  0.3632 -1.0191  0.1262
 8357TIP3   OH246485   2.701   6.240  14.977  0.8607  0.4287  0.3345
 8357TIP3    H146486   2.753   6.281  15.046 -0.2125  2.2757  0.1133
 8357TIP3    H246487   2.670   6.158  15.016 -1.1071  2.1570  2.7638
 8358TIP3   OH246488   0.775   0.720  11.132 -0.0216  0.6275 -0.2734
 8358TIP3    H146489   0.787   0.746  11.223 -0.3420  0.7824 -0.2697
 8358TIP3    H246490   0.829   0.782  11.082  3.4867 -1.9736  0.0152
 8359TIP3   OH246491   3.204   1.373  15.957  0.3934 -0.0094 -0.7775
 8359TIP3    H146492   3.263   1.437  15.998  0.9477 -1.0637  0.1177
 8359TIP3    H246493   3.127   1.372  16.013  0.2627  0.0810 -0.9551
 8360TIP3   OH246494   5.619   3.515  13.613 -0.0668 -0.1499  0.4835
 8360TIP3    H146495   5.552   3.487  13.675 -0.0592  0.1895  0.6463
 8360TIP3    H246496   5.573   3.521  13.529  0.2983 -2.3773  0.0399
 8361TIP3   OH246497   3.178   4.917   0.201 -0.4162 -0.8057  0.3459
 8361TIP3    H146498   3.254   4.968   0.229  1.4601 -2.4106 -1.4999
 8361TIP3    H246499   3.148   4.960   0.120 -1.2130 -0.4495  0.8177
 8362TIP3   OH246500   3.080   6.346  15.306  0.3522  0.1335 -0.3619
 8362TIP3    H146501   3.144   6.298  15.254  1.5263  1.4878 -0.2344
 8362TIP3    H246502   3.130   6.417  15.346 -0.1469 -1.4566  3.6102
 8363TIP3   OH246503   0.932   6.625   5.742 -0.1661 -0.3721  0.0419
 8363TIP3    H146504   0.930   6.601   5.835  0.3629  0.4450  0.2736
 8363TIP3    H246505   0.853   6.678   5.728  0.7333  1.1511  0.5077
 8364TIP3   OH246506   5.072   2.206   3.452  0.0608  0.5311  0.0264
 8364TIP3    H146507   4.998   2.255   3.417  0.3785  0.5544 -0.6324
 8364TIP3    H246508   5.148   2.240   3.405  0.1119 -1.6530 -1.6678
 8365TIP3   OH246509   5.460   6.702   2.027 -0.6392  0.2117 -0.6064
 8365TIP3    H146510   5.376   6.738   2.055 -0.8164 -0.7205  0.1153
 8365TIP3    H246511   5.487   6.757   1.954 -1.3751  1.1689 -0.1704
 8366TIP3   OH246512   6.624   5.444   2.447  0.2146  0.4615 -0.6147
 8366TIP3    H146513   6.560   5.373   2.440  0.0145  0.6781 -1.0444
 8366TIP3    H246514   6.600   5.492   2.525  1.2121 -0.7858  0.5126
 8367TIP3   OH246515   3.982   1.472   6.363  0.2118 -0.0698 -0.0204
 8367TIP3    H146516   3.968   1.487   6.457 -1.8908 -3.5269  0.4058
 8367TIP3    H246517   4.078   1.472   6.353  0.4772  1.8261  1.7568
 8368TIP3   OH246518   3.835   6.746   2.205 -0.0951  0.3356  0.2166
 8368TIP3    H146519   3.862   6.655   2.197 -0.2919  0.3091 -0.1660
 8368TIP3    H246520   3.802   6.769   2.118 -1.8598  0.2006  0.8188
 8369TIP3   OH246521   1.528   3.154   2.979 -0.5409  0.3442 -0.0035
 8369TIP3    H146522   1.510   3.076   3.032  1.1286 -0.5079 -0.6243
 8369TIP3    H246523   1.538   3.224   3.043  1.6493 -0.7112  0.9015
 8370TIP3   OH246524   3.953   2.938  13.325 -0.3364  0.5424  0.7484
 8370TIP3    H146525   3.857   2.946  13.319 -0.5999 -1.8626  0.9853
 8370TIP3    H246526   3.968   2.885  13.403  1.1976  0.6764  0.5752
 8371TIP3   OH246527   2.671   4.225   5.391 -0.6870  0.3750  0.1281
 8371TIP3    H146528   2.681   4.317   5.416 -2.2736  0.8828 -0.9378
 8371TIP3    H246529   2.578   4.207   5.404 -0.6618 -0.6600 -1.0163
 8372TIP3   OH246530   4.579   0.817   0.166  0.4496 -0.5826 -0.8354
 8372TIP3    H146531   4.535   0.809   0.082 -1.4101  1.1972 -0.1114
 8372TIP3    H246532   4.512   0.793   0.231  1.0693  0.4575  0.2353
 8373TIP3   OH246533   1.476   6.422  16.154  0.1919 -0.6756  0.3463
 8373TIP3    H146534   1.427   6.469  16.086  0.4146 -1.3137 -0.2631
 8373TIP3    H246535   1.444   6.459  16.236  0.7537  0.9289 -0.1261
 8374TIP3   OH246536   5.681   1.049   4.179 -0.5129  0.0729 -0.6705
 8374TIP3    H146537   5.755   1.014   4.130  0.1038  1.7070 -0.9842
 8374TIP3    H246538   5.709   1.137   4.205 -1.5839 -0.0194  0.9353
 8375TIP3   OH246539   2.638   2.672  11.522  0.3657 -0.1540 -0.7518
 8375TIP3    H146540   2.667   2.633  11.604 -1.1375  0.4131  0.0935
 8375TIP3    H246541   2.652   2.766  11.534 -2.2665  0.2258 -0.0384
 8376TIP3   OH246542   6.056   3.625   3.321  0.3295 -0.2193 -0.0758
 8376TIP3    H146543   6.012   3.545   3.295 -0.8633 -0.7372  3.0437
 8376TIP3    H246544   5.986   3.687   3.338  1.0384  0.4414  0.5657
 8377TIP3   OH246545   1.451   2.891  12.848 -0.2292  1.0231  0.2914
 8377TIP3    H146546   1.541   2.861  12.845 -0.1911  1.1943 -0.8460
 8377TIP3    H246547   1.423   2.892  12.756 -1.6694  0.1259  0.6910
 8378TIP3   OH246548   6.009   1.061  13.242 -0.6599 -0.0287  0.3067
 8378TIP3    H146549   6.038   1.150  13.261 -0.5634 -0.2991  1.4843
 8378TIP3    H246550   6.073   1.005  13.286 -0.1818 -0.7152 -1.1673
 8379TIP3   OH246551   0.061   5.799   0.383 -0.3739  0.5578 -0.3637
 8379TIP3    H146552   0.118   5.808   0.459  1.1229 -1.2678 -1.2069
 8379TIP3    H246553   0.052   5.888   0.348  0.7118  1.0846  0.6657
 8380TIP3   OH246554   1.608   2.857  13.395  0.2377 -0.3040  0.0370
 8380TIP3    H146555   1.624   2.843  13.488  0.1566  0.5698  0.1882
 8380TIP3    H246556   1.525   2.813  13.378  0.4544 -0.8154  0.2811
 8381TIP3   OH246557   5.357   2.589  13.654  0.1065 -0.1449  0.3854
 8381TIP3    H146558   5.436   2.600  13.706  0.8224 -0.8493 -0.5024
 8381TIP3    H246559   5.311   2.673  13.661  0.8539  0.2218  1.0411
 8382TIP3   OH246560   0.804   4.132   4.768 -0.2467 -0.5739  1.1463
 8382TIP3    H146561   0.856   4.188   4.826 -0.2697  1.0699 -0.3403
 8382TIP3    H246562   0.720   4.177   4.759 -0.7460 -1.5175  0.8999
 8383TIP3   OH246563   4.306   0.900   3.096 -0.7029 -0.4663  0.1213
 8383TIP3    H146564   4.382   0.912   3.152 -0.3646 -0.2885 -0.3649
 8383TIP3    H246565   4.280   0.809   3.109 -0.5383 -0.4687  0.4470
 8384TIP3   OH246566   5.781   0.440  14.302 -0.8266 -0.4243 -0.8716
 8384TIP3    H146567   5.744   0.467  14.386  0.5647 -0.1150 -0.3303
 8384TIP3    H246568   5.804   0.522  14.259  2.3850 -0.5257  0.3030
 8385TIP3   OH246569   5.544   6.412   3.660  0.5249  0.7346  0.1547
 8385TIP3    H146570   5.565   6.445   3.573 -1.1448 -0.7475 -0.9071
 8385TIP3    H246571   5.592   6.329   3.666 -1.0967 -0.2900 -0.3432
 8386TIP3   OH246572   5.499   3.527  11.159 -0.1922  0.3129 -0.6298
 8386TIP3    H146573   5.505   3.446  11.108  0.4721  0.6431 -1.0927
 8386TIP3    H246574   5.405   3.543  11.166 -0.3338 -0.4782 -0.5596
 8387TIP3   OH246575   3.309   5.961  16.442 -0.3409 -0.2973  0.1954
 8387TIP3    H146576   3.328   6.006  16.359 -1.1893  1.4090  0.8584
 8387TIP3    H246577   3.236   5.903  16.422  1.1828 -1.9364 -0.8316
 8388TIP3   OH246578   0.091   5.028   3.045  0.2929 -0.0571 -0.1237
 8388TIP3    H146579   0.186   5.031   3.051  0.3100 -0.7295  0.1119
 8388TIP3    H246580   0.073   4.954   2.987 -0.0985 -0.9891  1.1218
 8389TIP3   OH246581   0.551   3.150  14.825  0.3169 -0.6071 -0.4079
 8389TIP3    H146582   0.485   3.220  14.824 -0.2332 -1.0761  1.0446
 8389TIP3    H246583   0.572   3.138  14.917  2.7903 -0.1970 -0.8476
 8390TIP3   OH246584   1.202   3.190  16.621  0.0485  0.1959 -0.3180
 8390TIP3    H146585   1.226   3.118  16.680 -1.4927  0.1777  0.3366
 8390TIP3    H246586   1.221   3.156  16.534  1.2119 -0.2408  0.0743
 8391TIP3   OH246587   0.069   4.853  13.836  0.6552  0.4080 -0.3868
 8391TIP3    H146588   0.140   4.808  13.789  0.0458 -1.6778  0.5576
 8391TIP3    H246589   0.113   4.909  13.900  1.5048 -1.4078  0.6839
 8392TIP3   OH246590   1.389   1.018  16.137 -0.3577 -0.0477  0.3414
 8392TIP3    H146591   1.354   0.928  16.139 -0.5199  0.0312  1.3555
 8392TIP3    H246592   1.448   1.023  16.212 -1.0882  0.9790  0.8765
 8393TIP3   OH246593   0.930   0.979  12.398  0.3355 -0.2245 -0.1754
 8393TIP3    H146594   0.911   1.032  12.321 -2.5971 -0.6229  0.1822
 8393TIP3    H246595   0.846   0.970  12.443  1.8127 -0.5337  2.7615
 8394TIP3   OH246596   0.599   4.228   3.888  0.2941 -0.4404  0.5054
 8394TIP3    H146597   0.583   4.253   3.797  0.4077 -0.6235  0.4347
 8394TIP3    H246598   0.511   4.219   3.926  0.1853 -1.9854 -0.0297
 8395TIP3   OH246599   4.241   4.534   1.924 -0.2039  0.1406  0.2485
 8395TIP3    H146600   4.252   4.441   1.908 -1.3287  0.4136 -3.0663
 8395TIP3    H246601   4.185   4.540   2.002  0.5607 -1.8789  0.9934
 8396TIP3   OH246602   5.986   1.497   4.414 -0.0267 -0.5754 -0.7690
 8396TIP3    H146603   5.953   1.494   4.503 -0.0144  3.2866 -0.4442
 8396TIP3    H246604   6.074   1.534   4.422 -0.0629 -0.0395 -2.3439
 8397TIP3   OH246605   3.623   6.259  15.805 -0.0863 -0.0367  0.1356
 8397TIP3    H146606   3.649   6.170  15.783  1.0945  0.6008 -1.2790
 8397TIP3    H246607   3.543   6.274  15.755  0.8137  0.3128 -1.2892
 8398TIP3   OH246608   1.819   5.119   3.486 -0.2724  0.0957 -0.2427
 8398TIP3    H146609   1.833   5.072   3.568 -1.2752  0.2119  0.0155
 8398TIP3    H246610   1.845   5.058   3.417 -0.9362 -0.6034  0.1135
 8399TIP3   OH246611   5.166   2.301   4.512  1.2201  0.3611  0.0580
 8399TIP3    H146612   5.162   2.396   4.505  0.8738  0.4495  1.3144
 8399TIP3    H246613   5.258   2.282   4.529  1.0111  0.6207  1.5892
 8400TIP3   OH246614   3.606   1.118  17.161  0.2215  0.1443  0.0088
 8400TIP3    H146615   3.541   1.047  17.157 -1.2936  1.5175 -2.4648
 8400TIP3    H246616   3.572   1.178  17.227  0.1537 -0.1647  0.2597
 8401TIP3   OH246617   1.772   6.732   3.786  0.1702 -0.5122  0.1299
 8401TIP3    H146618   1.860   6.754   3.816 -0.3970  1.1929  0.6352
 8401TIP3    H246619   1.787   6.671   3.713  1.8088  0.5650 -0.4899
 8402TIP3   OH246620   0.261   4.252  14.858  0.2921 -0.5801  0.0915
 8402TIP3    H146621   0.290   4.190  14.924 -0.5138  1.1170  2.1709
 8402TIP3    H246622   0.167   4.237  14.850  0.6028 -1.7504 -1.8203
 8403TIP3   OH246623   5.207   6.170  12.740 -0.1385 -0.1651  0.5367
 8403TIP3    H146624   5.230   6.214  12.822 -1.7070  1.0989  0.3474
 8403TIP3    H246625   5.112   6.171  12.738 -0.1639 -1.3973 -0.6842
 8404TIP3   OH246626   0.329   4.637  16.080  0.3302  0.2231 -0.2294
 8404TIP3    H146627   0.352   4.629  15.988  0.4850 -1.1165 -0.1078
 8404TIP3    H246628   0.384   4.571  16.124  0.8214  1.3455  0.9258
 8405TIP3   OH246629   1.458   2.019  12.497  0.6123  0.5748  0.2399
 8405TIP3    H146630   1.474   2.073  12.419  0.8738  2.3795  1.4922
 8405TIP3    H246631   1.529   1.956  12.496 -0.4914 -0.7774 -2.0372
 8406TIP3   OH246632   3.271   3.566  11.882  0.1705 -0.6152  0.0868
 8406TIP3    H146633   3.355   3.552  11.927  1.3608 -2.9371 -2.5782
 8406TIP3    H246634   3.270   3.660  11.862  1.4201 -0.2782  1.4649
 8407TIP3   OH246635   6.588   0.537   5.670  0.1684 -0.0730 -0.1920
 8407TIP3    H146636   6.638   0.601   5.619  2.0932 -1.4239 -0.0863
 8407TIP3    H246637   6.615   0.551   5.760 -1.7834  1.0165  0.2758
 8408TIP3   OH246638   3.093   4.568  11.355 -0.6162 -0.0670  0.4128
 8408TIP3    H146639   3.157   4.531  11.416 -0.6770 -0.7815  0.0479
 8408TIP3    H246640   3.137   4.644  11.316  0.2081 -0.8579 -0.2260
 8409TIP3   OH246641   4.271   3.081   5.741  0.6799 -0.2644  0.1750
 8409TIP3    H146642   4.333   3.010   5.761 -0.5369 -1.3582  0.2305
 8409TIP3    H246643   4.325   3.151   5.705  1.7125 -1.9329 -1.6930
 8410TIP3   OH246644   0.160   1.263   2.413  0.2161 -0.2922  0.5850
 8410TIP3    H146645   0.220   1.216   2.471  2.7341  2.7363  0.7495
 8410TIP3    H246646   0.094   1.300   2.472  0.5056 -0.3982  0.9757
 8411TIP3   OH246647   4.842   1.138  10.954  0.2581 -0.2553 -0.1794
 8411TIP3    H146648   4.911   1.091  11.001 -0.7759 -2.4904 -0.7887
 8411TIP3    H246649   4.880   1.158  10.869  0.4625 -0.6887 -0.1933
 8412TIP3   OH246650   3.315   1.990  16.194 -0.0583  0.2913 -0.3110
 8412TIP3    H146651   3.395   2.026  16.154  0.7664 -1.7819 -0.6401
 8412TIP3    H246652   3.347   1.925  16.256 -1.4579  0.9557  1.1592
 8413TIP3   OH246653   2.392   6.635   0.999  0.0543  0.3468  0.1659
 8413TIP3    H146654   2.469   6.691   0.993 -0.3417  0.7421 -2.5941
 8413TIP3    H246655   2.428   6.546   0.999  0.6115  0.4625  3.1218
 8414TIP3   OH246656   0.726   3.876   4.836 -0.4271 -0.1893  0.3754
 8414TIP3    H146657   0.734   3.970   4.820  1.2774 -0.0233  1.9252
 8414TIP3    H246658   0.713   3.868   4.930 -0.6594 -1.5087  0.2535
 8415TIP3   OH246659   4.500   1.043  13.297 -0.3705 -0.7124  0.4548
 8415TIP3    H146660   4.564   1.077  13.236 -0.5066 -0.1516  0.6227
 8415TIP3    H246661   4.540   0.963  13.332  0.1026 -0.5310  0.3308
 8416TIP3   OH246662   3.279   1.732   1.789  0.3940 -0.5111  0.2042
 8416TIP3    H146663   3.208   1.669   1.794 -0.9802  0.9330 -0.2428
 8416TIP3    H246664   3.260   1.784   1.711  2.0876 -0.2363 -0.0670
 8417TIP3   OH246665   5.623   3.820  14.208  0.6307  0.3746 -0.0628
 8417TIP3    H146666   5.566   3.864  14.272 -1.6719 -1.2673 -0.8570
 8417TIP3    H246667   5.696   3.787  14.260  0.4591  1.8035  1.1620
 8418TIP3   OH246668   1.331   3.687   5.914  0.1741  0.0279  0.3829
 8418TIP3    H146669   1.255   3.631   5.896  0.5806 -1.6369  3.3224
 8418TIP3    H246670   1.404   3.626   5.926  2.2743  1.5802 -2.8619
 8419TIP3   OH246671   3.678   3.722  13.142  0.1116  0.5769 -0.0568
 8419TIP3    H146672   3.651   3.800  13.092  1.5511  0.4200 -1.1377
 8419TIP3    H246673   3.753   3.688  13.094 -0.5763 -1.5842  0.3253
 8420TIP3   OH246674   2.008   6.622  11.624  0.3242  0.1943  0.1481
 8420TIP3    H146675   2.034   6.547  11.677  0.8107  0.5481  0.4140
 8420TIP3    H246676   1.916   6.606  11.604 -0.3614  0.8851  2.5035
 8421TIP3   OH246677   2.725   5.447  11.560 -0.4613 -0.1469  0.0178
 8421TIP3    H146678   2.673   5.413  11.488  1.2135 -2.4455 -0.2256
 8421TIP3    H246679   2.726   5.542  11.547 -2.2943 -0.2840 -1.4666
 8422TIP3   OH246680   1.936   0.957   1.794  0.0936 -0.1724 -0.4282
 8422TIP3    H146681   1.995   0.989   1.862  1.0237  0.1484 -1.3606
 8422TIP3    H246682   1.964   0.868   1.777 -1.1035 -0.7841  0.6329
 8423TIP3   OH246683   3.882   2.318  17.073 -0.4010  0.5892  0.3519
 8423TIP3    H146684   3.812   2.275  17.025  0.6856 -0.4773 -0.3213
 8423TIP3    H246685   3.863   2.300  17.165 -1.2541  0.7215  0.2084
 8424TIP3   OH246686   1.160   3.115   2.344 -0.3965  0.1475  0.0494
 8424TIP3    H146687   1.088   3.067   2.304 -0.3456  1.0198 -1.1463
 8424TIP3    H246688   1.236   3.059   2.334 -0.3579  0.4019 -1.2432
 8425TIP3   OH246689   0.647   3.047   3.545  0.0449  0.6018  0.2309
 8425TIP3    H146690   0.582   2.977   3.547  0.4552  0.2116  0.0609
 8425TIP3    H246691   0.686   3.041   3.458 -0.4025  1.4965 -0.0523
 8426TIP3   OH246692   0.959   5.188  14.573 -0.3150  0.0699  0.8077
 8426TIP3    H146693   0.974   5.270  14.527  1.9358  0.5267  2.2031
 8426TIP3    H246694   0.974   5.120  14.507  0.8875  0.7445  0.3600
 8427TIP3   OH246695   2.718   1.073  13.971 -0.3609 -0.6597 -0.4169
 8427TIP3    H146696   2.642   1.014  13.970  0.2360 -1.4700 -2.2668
 8427TIP3    H246697   2.696   1.142  13.909 -0.1573 -0.0939  0.1286
 8428TIP3   OH246698   0.133   3.081   3.108  0.2086  0.2191 -0.3364
 8428TIP3    H146699   0.164   3.039   3.028  0.9371  0.8511 -0.3987
 8428TIP3    H246700   0.169   3.170   3.104 -1.3530  0.9027 -0.2574
 8429TIP3   OH246701   0.213   6.713   4.370 -0.1119 -0.4372  0.4756
 8429TIP3    H146702   0.227   6.802   4.403 -1.2168 -0.1712  0.2474
 8429TIP3    H246703   0.244   6.716   4.279  0.3755 -0.4382  0.6405
 8430TIP3   OH246704   1.946   4.332   3.443  0.7293  0.2593 -0.7507
 8430TIP3    H146705   1.911   4.334   3.532 -1.2524 -0.1717 -1.4626
 8430TIP3    H246706   1.917   4.248   3.407  1.6101  0.3637 -1.7630
 8431TIP3   OH246707   0.683   1.402  13.694 -0.0725  0.4816 -0.0290
 8431TIP3    H146708   0.628   1.459  13.641 -0.7618  0.3664  0.5490
 8431TIP3    H246709   0.622   1.353  13.749  0.2114 -2.9452 -2.4694
 8432TIP3   OH246710   4.447   5.695  16.838  0.4225 -0.4481 -0.6709
 8432TIP3    H146711   4.410   5.682  16.925  0.3090  1.5584 -0.3695
 8432TIP3    H246712   4.413   5.621  16.787 -0.5130 -0.9955  0.6729
 8433TIP3   OH246713   3.456   2.168  15.277 -0.2514  0.3629  0.2817
 8433TIP3    H146714   3.496   2.229  15.340 -0.9638  1.1826 -0.0288
 8433TIP3    H246715   3.526   2.148  15.215  0.0403  0.7336  0.4847
 8434TIP3   OH246716   5.839   5.838  15.053  0.4124 -0.4733 -0.2099
 8434TIP3    H146717   5.791   5.887  15.119 -4.2505 -1.2916 -2.5969
 8434TIP3    H246718   5.900   5.901  15.015  0.4540  1.0540  2.1997
 8435TIP3   OH246719   6.294   4.548   3.993 -0.1040 -0.5759  0.6698
 8435TIP3    H146720   6.242   4.627   3.976 -0.4597 -0.4541  2.1420
 8435TIP3    H246721   6.363   4.578   4.053  2.6659 -0.3985 -2.3371
 8436TIP3   OH246722   6.536   0.195  11.523 -0.3203 -0.1493  0.1224
 8436TIP3    H146723   6.477   0.260  11.560 -3.1782 -1.1199 -2.3498
 8436TIP3    H246724   6.582   0.240  11.453 -2.3195 -0.6614 -1.6083
 8437TIP3   OH246725   6.046   6.571   4.694  0.3156 -0.2719  0.2079
 8437TIP3    H146726   6.109   6.530   4.753  0.2321 -1.3606 -0.4360
 8437TIP3    H246727   5.969   6.588   4.749  0.4871 -0.6503  0.5674
 8438TIP3   OH246728   4.308   1.859  14.776 -0.2058 -0.6783  0.0136
 8438TIP3    H146729   4.391   1.836  14.732  0.0553 -1.7129  1.0206
 8438TIP3    H246730   4.315   1.954  14.790  0.3475 -0.5769 -0.8336
 8439TIP3   OH246731   1.474   6.646  17.247 -0.1908 -0.2802  0.1840
 8439TIP3    H146732   1.554   6.622  17.201 -0.4714 -0.9531  0.0323
 8439TIP3    H246733   1.433   6.712  17.191 -0.0727 -0.4180 -0.0651
 8440TIP3   OH246734   3.876   6.387  16.462 -0.0409  0.0527  0.1009
 8440TIP3    H146735   3.797   6.344  16.496 -0.4517  2.1927  2.1674
 8440TIP3    H246736   3.946   6.323  16.474 -1.0466 -1.0023  0.5339
 8441TIP3   OH246737   2.209   6.156   1.100  0.4624  0.2973 -0.5452
 8441TIP3    H146738   2.204   6.221   1.029 -1.7671  0.6546 -0.1243
 8441TIP3    H246739   2.122   6.155   1.138  0.7986 -2.0429  0.3141
 8442TIP3   OH246740   1.953   0.572  12.845 -0.5358  0.1554 -0.2908
 8442TIP3    H146741   1.890   0.505  12.818  1.4930 -1.5524 -1.0706
 8442TIP3    H246742   1.988   0.607  12.763  0.5278  0.0661  0.1065
 8443TIP3   OH246743   2.923   3.330  15.201 -0.2336  0.2547 -0.4264
 8443TIP3    H146744   2.986   3.393  15.234 -0.7701  0.7791 -0.3764
 8443TIP3    H246745   2.939   3.326  15.107 -0.6040  0.9438 -0.5266
 8444TIP3   OH246746   0.956   2.872  15.211  0.5242  0.2407 -0.0874
 8444TIP3    H146747   1.040   2.852  15.253  0.2541 -0.2438  0.2326
 8444TIP3    H246748   0.936   2.794  15.159  0.3594  0.4289 -0.3084
 8445TIP3   OH246749   5.933   5.487   0.335  0.3667  0.7218  0.2120
 8445TIP3    H146750   5.986   5.433   0.394  0.5109  0.7448  0.1014
 8445TIP3    H246751   5.960   5.461   0.247  1.6014  2.1099  0.1483
 8446TIP3   OH246752   0.321   6.322  16.157  0.2234 -0.0426 -0.4176
 8446TIP3    H146753   0.411   6.303  16.184  0.2791 -0.2767 -0.7670
 8446TIP3    H246754   0.327   6.333  16.062  0.0276  0.7532 -0.3446
 8447TIP3   OH246755   2.503   2.115  14.161  0.3517  0.0422 -0.5194
 8447TIP3    H146756   2.558   2.079  14.230 -1.3988  0.1793  1.0268
 8447TIP3    H246757   2.471   2.198  14.196 -1.8905 -0.6548 -0.7452
 8448TIP3   OH246758   3.194   5.151   1.549  0.1598  0.0949 -0.9793
 8448TIP3    H146759   3.198   5.233   1.598  0.1050  0.0360 -0.8756
 8448TIP3    H246760   3.101   5.131   1.542  0.2045 -0.5219 -0.0506
 8449TIP3   OH246761   5.426   5.110   4.403  0.2054  0.2915 -0.2069
 8449TIP3    H146762   5.374   5.076   4.329  0.0519  2.0096 -0.9238
 8449TIP3    H246763   5.402   5.053   4.476 -0.5060 -0.7417 -1.1956
 8450TIP3   OH246764   1.384   1.537   0.585  0.6529  0.0769  0.3065
 8450TIP3    H146765   1.478   1.548   0.603  0.8521  0.4222 -0.8621
 8450TIP3    H246766   1.345   1.619   0.615  0.9167  0.4680 -0.3926
 8451TIP3   OH246767   2.304   5.248  15.785  0.0029 -0.0592 -0.6054
 8451TIP3    H146768   2.317   5.171  15.729 -0.9862 -0.6799 -0.0163
 8451TIP3    H246769   2.211   5.270  15.774 -0.0748  0.1339  0.3671
 8452TIP3   OH246770   6.529   2.836   2.354  0.0013  0.8086  0.1644
 8452TIP3    H146771   6.596   2.830   2.285 -1.6092  1.1019 -1.5037
 8452TIP3    H246772   6.503   2.745   2.369 -0.4620  0.8230 -0.4934
 8453TIP3   OH246773   2.251   5.312  11.147 -0.0739  0.2351  0.1851
 8453TIP3    H146774   2.203   5.379  11.194  0.5775 -0.0395  1.2709
 8453TIP3    H246775   2.300   5.360  11.080 -3.8211  0.3060 -2.8390
 8454TIP3   OH246776   0.449   0.371   2.346 -0.1340 -0.2678 -0.4041
 8454TIP3    H146777   0.526   0.320   2.371  0.6646  0.8790 -0.4621
 8454TIP3    H246778   0.484   0.448   2.301 -1.2558  0.7611  0.4005
 8455TIP3   OH246779   4.962   2.604  14.902 -0.1133 -0.1455 -0.7474
 8455TIP3    H146780   4.999   2.687  14.934 -0.8272 -0.1390  0.1131
 8455TIP3    H246781   4.903   2.577  14.972  0.3940 -1.5821 -0.8540
 8456TIP3   OH246782   4.258   1.741  11.721 -0.7534 -0.0326  0.4518
 8456TIP3    H146783   4.316   1.808  11.685 -0.2508 -0.0561  1.2021
 8456TIP3    H246784   4.317   1.675  11.758 -1.2467 -0.0415  1.2464
 8457TIP3   OH246785   2.070   6.037   1.306  0.4660  0.4405  0.0312
 8457TIP3    H146786   2.163   6.017   1.292  0.0537 -0.7446 -1.1498
 8457TIP3    H246787   2.046   5.989   1.384  0.2324 -1.3786 -1.1135
 8458TIP3   OH246788   6.253   4.009   5.848 -0.4789  0.2013 -0.3878
 8458TIP3    H146789   6.186   3.963   5.899  0.1150 -1.3365 -0.9573
 8458TIP3    H246790   6.248   3.970   5.761  1.0761  0.1488 -0.4754
 8459TIP3   OH246791   4.220   5.999  16.588  0.0901  0.2733 -0.1524
 8459TIP3    H146792   4.169   5.970  16.664  0.0423 -0.8439 -0.5786
 8459TIP3    H246793   4.308   6.014  16.622 -0.3090  1.3695  0.4242
 8460TIP3   OH246794   3.027   3.713   2.664  0.5984 -0.2694 -0.5902
 8460TIP3    H146795   2.943   3.689   2.625  0.4193 -0.0348 -0.3446
 8460TIP3    H246796   3.077   3.631   2.664  1.1509 -0.0069 -2.6679
 8461TIP3   OH246797   3.841   4.022   0.478 -0.1122 -0.1648  0.0071
 8461TIP3    H146798   3.934   3.999   0.469 -0.5305 -1.8362 -0.4303
 8461TIP3    H246799   3.827   4.028   0.572  0.3181 -0.4887  0.0968
 8462TIP3   OH246800   4.355   0.119   1.253 -0.1177  0.0698  0.0067
 8462TIP3    H146801   4.315   0.206   1.255 -0.3591 -0.0008 -0.9456
 8462TIP3    H246802   4.289   0.061   1.291  0.3868  0.4124  1.4544
 8463TIP3   OH246803   4.458   5.398   0.071 -0.4837 -0.6133 -0.2060
 8463TIP3    H146804   4.547   5.426   0.094 -1.0748 -0.1204  1.5865
 8463TIP3    H246805   4.472   5.333   0.002  1.0910  1.6151 -2.1630
 8464TIP3   OH246806   1.577   1.105  13.246  0.0667  0.2569 -0.5112
 8464TIP3    H146807   1.522   1.170  13.202 -3.0820 -1.4654  0.5114
 8464TIP3    H246808   1.587   1.139  13.335  1.5562  1.0276 -0.9530
 8465TIP3   OH246809   0.426   6.549  11.117 -0.0448 -0.1170 -0.0064
 8465TIP3    H146810   0.374   6.491  11.061  0.7880  0.1466 -1.1055
 8465TIP3    H246811   0.511   6.555  11.072 -0.4175  2.7697 -0.5198
 8466TIP3   OH246812   6.314   6.075   6.073 -0.0763  0.1410  0.2237
 8466TIP3    H146813   6.246   6.104   6.135 -1.9942 -1.1626 -1.1448
 8466TIP3    H246814   6.334   5.986   6.100 -0.9318 -0.4414 -0.9688
 8467TIP3   OH246815   5.654   1.391   0.875 -0.1116 -0.7162 -0.1667
 8467TIP3    H146816   5.742   1.352   0.870 -0.1577 -0.8865  0.3039
 8467TIP3    H246817   5.595   1.321   0.849 -0.2595 -1.2383  1.4851
 8468TIP3   OH246818   4.872   5.636  16.290  0.2956  0.1858 -0.7751
 8468TIP3    H146819   4.939   5.604  16.351 -1.2992  1.8312  2.0175
 8468TIP3    H246820   4.799   5.574  16.300 -0.8936  1.7724  0.9198
 8469TIP3   OH246821   0.503   5.203   3.219 -0.0736  0.2449  0.2351
 8469TIP3    H146822   0.577   5.153   3.253 -1.4275 -2.1141 -0.0605
 8469TIP3    H246823   0.540   5.260   3.152  1.7471  0.6822  1.5418
 8470TIP3   OH246824   2.089   2.735  11.144 -0.1826  0.2452 -0.4316
 8470TIP3    H146825   2.135   2.670  11.091 -0.9425  0.5959 -1.5716
 8470TIP3    H246826   2.070   2.690  11.226 -0.6304 -0.9592 -1.1655
 8471TIP3   OH246827   2.485   3.517  13.352  0.4617  0.1879  0.3016
 8471TIP3    H146828   2.391   3.523  13.363  0.3721  0.9599 -0.7356
 8471TIP3    H246829   2.497   3.497  13.259  1.2992 -0.7291  0.5903
 8472TIP3   OH246830   1.371   3.321  11.182  1.0171  0.2881 -0.0716
 8472TIP3    H146831   1.316   3.250  11.151 -2.7712  2.1177  1.7877
 8472TIP3    H246832   1.370   3.385  11.110 -0.2027  0.7101  0.2921
 8473TIP3   OH246833   2.502   3.549   1.045 -0.0649 -0.0129  0.5270
 8473TIP3    H146834   2.537   3.612   0.982 -1.1125  1.3430  1.2598
 8473TIP3    H246835   2.579   3.517   1.092  0.3330  2.3751  1.6316
 8474TIP3   OH246836   3.622   0.563   4.652 -0.0727 -0.0825 -0.4093
 8474TIP3    H146837   3.684   0.504   4.609 -0.0472  0.7689 -1.5742
 8474TIP3    H246838   3.655   0.571   4.742  1.0836 -0.2081 -0.8056
 8475TIP3   OH246839   2.936   2.506  16.368 -0.1002  0.4785 -0.1560
 8475TIP3    H146840   2.967   2.587  16.409  2.9593  0.8138 -2.7639
 8475TIP3    H246841   3.005   2.442  16.386 -0.6821 -0.4899 -1.2436
 8476TIP3   OH246842   5.895   2.833   5.286  0.4311 -0.1948 -0.2697
 8476TIP3    H146843   5.970   2.853   5.341 -0.5383  0.2577  0.9292
 8476TIP3    H246844   5.862   2.749   5.318  0.1752 -0.1879 -0.5074
 8477TIP3   OH246845   3.081   2.322  13.138 -0.1640 -0.5094 -0.2587
 8477TIP3    H146846   3.059   2.243  13.088  0.1254  0.3313 -1.7946
 8477TIP3    H246847   2.999   2.371  13.143 -0.0869 -0.3677 -0.3552
 8478TIP3   OH246848   2.640   0.260   0.082 -0.3931  0.2216 -0.2418
 8478TIP3    H146849   2.583   0.287   0.009  1.4665 -0.6165 -2.0967
 8478TIP3    H246850   2.710   0.326   0.083  0.8004 -0.9991 -0.7175
 8479TIP3   OH246851   4.564   2.779  14.641  0.0860  0.0976 -0.2478
 8479TIP3    H146852   4.579   2.872  14.656 -0.6162  0.0473  0.9302
 8479TIP3    H246853   4.652   2.742  14.630  0.6369  0.4496  2.2713
 8480TIP3   OH246854   0.812   0.394   0.810  0.1649 -0.3584 -0.7035
 8480TIP3    H146855   0.802   0.321   0.749  1.2313 -1.9478  0.9024
 8480TIP3    H246856   0.896   0.433   0.787  1.4516 -2.0617  0.6955
 8481TIP3   OH246857   1.452   4.981  14.404 -0.0239  0.0904 -0.0883
 8481TIP3    H146858   1.483   4.906  14.353  0.1521 -0.8162  1.3054
 8481TIP3    H246859   1.359   4.988  14.380  0.0299 -0.3665 -0.4579
 8482TIP3   OH246860   3.830   4.414  13.228 -0.4231  0.0482  0.2414
 8482TIP3    H146861   3.762   4.382  13.288 -0.1894  0.0710  0.5188
 8482TIP3    H246862   3.900   4.443  13.285 -1.5592  3.3399  0.1431
 8483TIP3   OH246863   3.511   4.406   5.834 -0.1571  0.2372  0.2834
 8483TIP3    H146864   3.473   4.350   5.767  2.1048 -1.8536  0.6115
 8483TIP3    H246865   3.561   4.347   5.891 -0.4080  2.1785  2.7022
 8484TIP3   OH246866   5.464   0.375  10.952  0.1499  0.0747  0.3081
 8484TIP3    H146867   5.519   0.440  10.908  2.0803 -2.2210 -0.9863
 8484TIP3    H246868   5.522   0.335  11.017 -0.4956 -1.2766  0.0884
 8485TIP3   OH246869   5.407   2.201   4.350 -0.0344 -0.3600  0.1415
 8485TIP3    H146870   5.499   2.225   4.355  0.1067 -0.5609 -1.1595
 8485TIP3    H246871   5.406   2.106   4.363 -0.2098 -0.1952  1.4730
 8486TIP3   OH246872   3.807   1.395   5.256 -0.3200 -0.0890  0.0117
 8486TIP3    H146873   3.832   1.304   5.236 -0.7648 -0.1129 -0.4690
 8486TIP3    H246874   3.888   1.444   5.247  0.3444 -0.7044  2.1497
 8487TIP3   OH246875   4.452   5.960  16.745  0.4492  0.8613  0.0881
 8487TIP3    H146876   4.436   5.871  16.776  1.1533  0.0852 -1.6480
 8487TIP3    H246877   4.545   5.975  16.762  0.7785  0.5288 -1.2802
 8488TIP3   OH246878   3.918   1.676  13.957 -0.5496  0.4073  0.3009
 8488TIP3    H146879   3.854   1.669  13.886 -0.8948  0.7207  0.5770
 8488TIP3    H246880   3.939   1.585  13.979 -2.4130  0.2236  1.5557
 8489TIP3   OH246881   3.322   3.578   4.401  0.6189 -1.0707  0.2961
 8489TIP3    H146882   3.355   3.663   4.373 -1.2784  0.3569  2.0698
 8489TIP3    H246883   3.343   3.519   4.329  2.0594  0.8587 -0.9647
 8490TIP3   OH246884   4.906   4.740  10.821  0.2980  0.7374  0.9871
 8490TIP3    H146885   4.887   4.736  10.727  0.2274 -0.9955  1.0522
 8490TIP3    H246886   4.841   4.802  10.855 -1.0892 -0.2443  0.2128
 8491TIP3   OH246887   2.191   2.792  17.335  0.3969 -0.1006  0.2449
 8491TIP3    H146888   2.224   2.707  17.364  1.5770  0.0940 -0.4874
 8491TIP3    H246889   2.264   2.832  17.288  0.0148  1.5050  0.9295
 8492TIP3   OH246890   2.199   1.660   0.086 -0.3207  0.1683 -0.2715
 8492TIP3    H146891   2.293   1.654   0.105 -0.3826 -0.2473 -0.0927
 8492TIP3    H246892   2.156   1.618   0.160 -0.6941  1.1752  0.0949
 8493TIP3   OH246893   3.226   4.136  10.794  0.1359 -0.1827  0.4253
 8493TIP3    H146894   3.139   4.144  10.754 -0.5811 -0.1127  1.9376
 8493TIP3    H246895   3.274   4.211  10.760 -1.2094  1.2292  1.4538
 8494TIP3   OH246896   5.840   0.680   1.201 -0.1723 -0.4527 -0.0303
 8494TIP3    H146897   5.903   0.608   1.206 -0.2720 -0.8111 -2.4359
 8494TIP3    H246898   5.843   0.722   1.287  2.2118 -1.4008  0.4156
 8495TIP3   OH246899   4.264   3.677   0.411 -0.0917 -0.0341  0.3139
 8495TIP3    H146900   4.337   3.616   0.407 -0.3275 -0.3358  0.5594
 8495TIP3    H246901   4.297   3.757   0.371  0.7623  0.2331  1.5146
 8496TIP3   OH246902   1.681   2.605  14.612 -0.1284  0.0062  0.0668
 8496TIP3    H146903   1.667   2.511  14.612  0.9638 -0.1672  0.1564
 8496TIP3    H246904   1.746   2.621  14.681 -1.8040  1.0824  1.4604
 8497TIP3   OH246905   0.940   6.529  12.060 -0.4093 -0.0721  0.5926
 8497TIP3    H146906   0.862   6.583  12.071 -0.1873  0.3197  0.2704
 8497TIP3    H246907   0.907   6.441  12.046 -0.8068  0.1537  0.0882
 8498TIP3   OH246908   6.077   5.315  13.435  0.4949 -0.3121  0.0844
 8498TIP3    H146909   6.032   5.231  13.423  0.2922 -0.3263  0.9150
 8498TIP3    H246910   6.157   5.292  13.482  0.6372 -0.0924 -0.0511
 8499TIP3   OH246911   1.767   3.364   5.410 -0.8052  0.1638 -0.1926
 8499TIP3    H146912   1.803   3.397   5.493 -1.2704 -0.2406  0.1718
 8499TIP3    H246913   1.809   3.419   5.343  2.2471 -1.7178  0.0097
 8500TIP3   OH246914   0.006   5.369   3.770  0.0705  0.0510 -0.4688
 8500TIP3    H146915  -0.006   5.357   3.864  2.1186  0.7651 -0.0571
 8500TIP3    H246916  -0.039   5.295   3.730  0.5738 -1.2020  1.1761
 8501TIP3   OH246917   5.407   4.539   4.240  0.6917 -0.4844 -0.0057
 8501TIP3    H146918   5.448   4.493   4.314 -1.0989 -0.4246  1.0761
 8501TIP3    H246919   5.313   4.528   4.254  0.2526  1.5575 -0.9820
 8502TIP3   OH246920   2.012   0.328  15.763  0.5264  0.7234  0.2619
 8502TIP3    H146921   1.925   0.319  15.804  0.3911  3.8458  0.9653
 8502TIP3    H246922   1.996   0.315  15.670 -0.3601 -0.3714  0.5423
 8503TIP3   OH246923   1.335   5.124  11.812 -0.2058 -0.2290  0.1873
 8503TIP3    H146924   1.351   5.174  11.732 -0.4091  1.7134  1.2951
 8503TIP3    H246925   1.240   5.113  11.815 -0.4045  1.2937  0.9912
 8504TIP3   OH246926   3.053   4.617  12.693 -0.0634 -0.0795 -0.0043
 8504TIP3    H146927   3.145   4.610  12.719  0.2646  3.2775  0.1329
 8504TIP3    H246928   3.045   4.559  12.618  2.1065 -0.6334  0.1381
 8505TIP3   OH246929   3.470   1.830  15.120  0.4589 -0.0486  0.4293
 8505TIP3    H146930   3.411   1.762  15.153 -0.5340 -0.0343 -1.2256
 8505TIP3    H246931   3.418   1.911  15.124  0.5147  0.0499 -0.5868
 8506TIP3   OH246932   5.760   0.453  12.036  0.6219  0.0471 -0.1515
 8506TIP3    H146933   5.761   0.543  12.005 -0.3072 -0.0213 -0.3848
 8506TIP3    H246934   5.724   0.459  12.125  0.4558 -0.1079 -0.2091
 8507TIP3   OH246935   0.862   5.269   2.948  0.4315  0.1689 -0.0859
 8507TIP3    H146936   0.774   5.249   2.915  0.0666  1.9235 -0.2508
 8507TIP3    H246937   0.916   5.277   2.870  0.1953  1.4523 -0.1385
 8508TIP3   OH246938   0.414   2.016   0.695 -0.0783 -0.0605 -0.3739
 8508TIP3    H146939   0.466   2.047   0.769  0.0065 -0.4666 -0.2627
 8508TIP3    H246940   0.334   2.069   0.698  0.3220  0.5691 -0.5470
 8509TIP3   OH246941   5.738   3.319   2.312 -0.2159  0.0677 -0.2928
 8509TIP3    H146942   5.715   3.338   2.221  1.7265  0.3103 -0.7701
 8509TIP3    H246943   5.820   3.367   2.327 -0.1016 -0.5619  1.3565
 8510TIP3   OH246944   0.857   1.586   3.324 -0.0353 -0.2539  0.0294
 8510TIP3    H146945   0.907   1.516   3.368 -2.0357 -2.7888 -1.4859
 8510TIP3    H246946   0.770   1.549   3.312 -1.1097  2.4462 -1.1778
 8511TIP3   OH246947   2.790   1.343  16.801 -0.2105 -0.0551  0.2712
 8511TIP3    H146948   2.814   1.275  16.738  0.4758  0.4520 -0.0353
 8511TIP3    H246949   2.721   1.393  16.757 -0.0738  0.0004  0.1176
 8512TIP3   OH246950   2.902   3.239   3.702  0.2913 -0.6022 -0.5485
 8512TIP3    H146951   2.838   3.168   3.716  0.4062 -0.6579 -0.3135
 8512TIP3    H246952   2.949   3.246   3.784 -0.2776  0.3146 -0.2913
 8513TIP3   OH246953   6.494   4.454   6.436 -0.6189 -0.1853 -0.2203
 8513TIP3    H146954   6.574   4.403   6.449 -0.6053 -1.2355 -3.4393
 8513TIP3    H246955   6.423   4.394   6.461 -0.4930  0.0550  0.7644
 8514TIP3   OH246956   2.842   4.986   5.486 -0.3452 -0.4121  0.3800
 8514TIP3    H146957   2.873   5.046   5.418  1.0818 -2.2774 -0.7299
 8514TIP3    H246958   2.747   4.993   5.483 -0.2282  1.9876  0.5310
 8515TIP3   OH246959   1.478   3.646   3.786 -0.2435 -0.2659 -0.4393
 8515TIP3    H146960   1.391   3.617   3.814 -0.0896  0.2753  0.6330
 8515TIP3    H246961   1.461   3.727   3.738 -0.1758  1.0772  1.6908
 8516TIP3   OH246962   5.976   1.950  17.287 -0.5778 -0.1193 -0.2564
 8516TIP3    H146963   5.981   1.988  17.374  0.2404 -0.5069 -0.1217
 8516TIP3    H246964   5.954   2.023  17.229  0.3583  0.4431  0.0794
 8517TIP3   OH246965   1.804   6.530  11.438 -0.6126  0.0961 -0.0716
 8517TIP3    H146966   1.730   6.559  11.492 -0.1666  1.0504  0.0470
 8517TIP3    H246967   1.764   6.492  11.360 -1.2358  0.1873  0.1984
 8518TIP3   OH246968   3.741   2.423  15.208 -0.0766  0.0102  0.0828
 8518TIP3    H146969   3.737   2.372  15.290  0.6174  1.3043  0.9580
 8518TIP3    H246970   3.677   2.381  15.151  0.6374 -1.9822  0.6673
 8519TIP3   OH246971   6.409   2.510   6.154 -0.0547 -0.6136  0.2284
 8519TIP3    H146972   6.451   2.587   6.117  0.1819 -0.9556 -0.2197
 8519TIP3    H246973   6.420   2.520   6.249  2.2042 -1.3430  0.0863
 8520TIP3   OH246974   5.930   0.146   1.092 -0.4125  0.1038  0.1426
 8520TIP3    H146975   6.025   0.155   1.087 -0.1491 -1.5998  1.1084
 8520TIP3    H246976   5.896   0.227   1.054  1.4017  0.3816 -1.0180
 8521TIP3   OH246977   4.897   1.940  13.290  0.5141  0.1173  0.3186
 8521TIP3    H146978   4.969   1.878  13.300 -0.3977 -0.8828  0.9560
 8521TIP3    H246979   4.867   1.957  13.380 -0.2830  0.2059  0.0457
 8522TIP3   OH246980   1.201   6.360   3.079  0.1696  0.5118 -0.1956
 8522TIP3    H146981   1.259   6.316   3.017 -1.3095 -1.1282 -0.4885
 8522TIP3    H246982   1.222   6.322   3.164 -1.2211 -0.9989 -0.4719
 8523TIP3   OH246983   1.797   0.888  11.842  0.0612  0.2589  0.1415
 8523TIP3    H146984   1.838   0.805  11.816 -0.4272  0.5793 -1.7955
 8523TIP3    H246985   1.860   0.928  11.901  2.2054  0.2914 -1.9858
 8524TIP3   OH246986   3.706   0.350  13.443 -0.2821 -0.2981 -0.1266
 8524TIP3    H146987   3.722   0.255  13.443 -1.2889 -0.4705 -0.1190
 8524TIP3    H246988   3.720   0.376  13.351 -1.9353 -0.8024 -0.5512
 8525TIP3   OH246989   5.036   5.135  16.186  0.2801  0.0867 -0.3506
 8525TIP3    H146990   5.075   5.186  16.114 -1.6417  0.5973 -1.0914
 8525TIP3    H246991   4.990   5.064  16.143 -0.9935  0.4614  0.3620
 8526TIP3   OH246992   4.726   0.861   4.254  0.1756  0.4646 -0.5380
 8526TIP3    H146993   4.690   0.815   4.330  1.8710  2.5242  1.6572
 8526TIP3    H246994   4.655   0.919   4.226  0.1439  1.0994  0.7559
 8527TIP3   OH246995   2.709   4.638   2.485  0.6113  0.3001  0.1434
 8527TIP3    H146996   2.802   4.647   2.468  0.9645  0.2346  1.8317
 8527TIP3    H246997   2.690   4.707   2.550 -1.2909  2.6500 -2.6295
 8528TIP3   OH246998   6.269   3.156   3.127  0.4160  0.0468 -0.0510
 8528TIP3    H146999   6.363   3.158   3.140  0.4612 -0.1594 -0.3442
 8528TIP3    H247000   6.232   3.187   3.210  0.7546  0.6773 -0.1297
 8529TIP3   OH247001   5.329   5.386  15.076  0.6388 -0.0192 -0.2258
 8529TIP3    H147002   5.351   5.304  15.119 -0.3920 -0.2781 -0.1552
 8529TIP3    H247003   5.367   5.378  14.988  3.4634  0.8551  0.8100
 8530TIP3   OH247004   2.525   5.336  13.089 -0.5323  0.0139  0.1182
 8530TIP3    H147005   2.560   5.418  13.054 -0.9619 -0.2870 -1.0564
 8530TIP3    H247006   2.463   5.363  13.157  1.2845  0.5778  1.6744
 8531TIP3   OH247007   1.290   1.887  11.670  0.4443  0.2980 -0.8352
 8531TIP3    H147008   1.283   1.824  11.599  1.1291  0.9033 -1.4638
 8531TIP3    H247009   1.383   1.908  11.675  0.2160  1.3475 -0.7274
 8532TIP3   OH247010   2.765   1.587  16.250 -0.2985  0.1915 -0.3839
 8532TIP3    H147011   2.682   1.564  16.291  0.4351 -2.2030 -0.1072
 8532TIP3    H247012   2.785   1.514  16.192  1.8433  0.4656 -0.0924
 8533TIP3   OH247013   6.223   6.155  16.077  0.2068 -0.1974  0.2240
 8533TIP3    H147014   6.132   6.146  16.105  0.0419 -0.2798 -0.3326
 8533TIP3    H247015   6.250   6.067  16.054 -0.2870  0.1332 -1.7772
 8534TIP3   OH247016   5.540   2.087   0.857  0.7186  0.6143  0.2664
 8534TIP3    H147017   5.528   2.109   0.764  1.9151 -0.4500 -0.1857
 8534TIP3    H247018   5.556   2.171   0.900 -0.2313  1.1645 -0.4199
 8535TIP3   OH247019   5.283   1.524   0.655  0.3486  0.1050 -0.2120
 8535TIP3    H147020   5.330   1.441   0.645  1.3387  0.8138 -1.9514
 8535TIP3    H247021   5.348   1.584   0.692 -0.2169  0.2705  0.5606
 8536TIP3   OH247022   6.313   5.020  16.675 -0.2189  0.1600 -0.6051
 8536TIP3    H147023   6.297   5.114  16.666  2.0343  0.9093  1.8655
 8536TIP3    H247024   6.407   5.013  16.685 -0.1164 -2.6253 -2.4072
 8537TIP3   OH247025   0.187   5.368  15.658  0.1031  0.0376  0.0219
 8537TIP3    H147026   0.165   5.296  15.717  0.0460  0.1853  0.1822
 8537TIP3    H247027   0.281   5.377  15.665  0.0547  0.2834  0.3545
 8538TIP3   OH247028   5.918   5.765  10.865  0.1992 -0.2458  0.0264
 8538TIP3    H147029   5.827   5.784  10.843  0.1370 -1.0153 -0.4166
 8538TIP3    H247030   5.914   5.725  10.952  0.1588  0.1076  0.1883
 8539TIP3   OH247031   3.606   3.504   3.986 -0.0083  0.5679  0.2921
 8539TIP3    H147032   3.681   3.460   3.946 -0.1062 -0.0768  0.8130
 8539TIP3    H247033   3.561   3.547   3.912  0.5081  0.4250 -0.1088
 8540TIP3   OH247034   0.447   0.390   3.181  0.1144  0.3453 -0.5723
 8540TIP3    H147035   0.406   0.470   3.214  0.5016  1.4573 -2.6202
 8540TIP3    H247036   0.449   0.402   3.086  3.6625 -0.3442 -0.7272
 8541TIP3   OH247037   3.015   4.239   0.394 -0.2221  0.5797 -0.2038
 8541TIP3    H147038   3.078   4.251   0.323  1.2441  2.4201  1.2937
 8541TIP3    H247039   3.068   4.208   0.467 -1.7307 -1.4634  0.0937
 8542TIP3   OH247040   3.690   0.245   2.013 -0.1420 -0.3331 -0.9830
 8542TIP3    H147041   3.602   0.237   2.049  0.4822 -0.0994  0.7013
 8542TIP3    H247042   3.703   0.164   1.963 -0.0357 -2.1550  1.7895
 8543TIP3   OH247043   1.578   5.745   4.622  0.0856 -0.1699  0.2632
 8543TIP3    H147044   1.650   5.727   4.682 -0.4284  0.4091  1.0790
 8543TIP3    H247045   1.534   5.820   4.660  1.6636  2.4281 -2.5049
 8544TIP3   OH247046   4.102   6.319  15.772 -0.4764  0.1455  0.2152
 8544TIP3    H147047   4.020   6.357  15.803  0.3046  1.6031  0.5513
 8544TIP3    H247048   4.146   6.290  15.852 -0.2991  0.1143  0.1049
 8545TIP3   OH247049   6.444   4.389   6.108  0.5015  0.2395  0.0024
 8545TIP3    H147050   6.420   4.301   6.078 -0.8819  0.6555 -0.1953
 8545TIP3    H247051   6.517   4.375   6.169  0.3559 -1.0312 -0.0881
 8546TIP3   OH247052   2.446   4.202  15.583 -0.0344  0.0979 -0.6069
 8546TIP3    H147053   2.513   4.239  15.524  0.4129  0.2670  0.0023
 8546TIP3    H247054   2.487   4.125  15.621  1.0578  1.9065  2.1897
 8547TIP3   OH247055   6.490   1.927   0.272 -0.3449  0.3385  0.1982
 8547TIP3    H147056   6.547   1.983   0.324  0.2747 -0.7704  0.7419
 8547TIP3    H247057   6.547   1.888   0.206 -0.7618  0.3171 -0.1551
 8548TIP3   OH247058   3.842   1.887  11.885  0.3201 -0.1719 -0.0191
 8548TIP3    H147059   3.893   1.828  11.828 -1.4511 -0.6877 -1.1456
 8548TIP3    H247060   3.868   1.975  11.858  0.5574 -0.4279 -0.6441
 8549TIP3   OH247061   3.651   2.233   6.513  0.8225 -0.0309 -0.2299
 8549TIP3    H147062   3.746   2.219   6.505  1.1599  1.2288  1.2246
 8549TIP3    H247063   3.613   2.147   6.495  2.1638 -0.3785 -1.7091
 8550TIP3   OH247064   0.898   4.284  11.396  0.0100 -0.5406 -0.4050
 8550TIP3    H147065   0.910   4.366  11.445  1.4712 -0.5281 -0.7461
 8550TIP3    H247066   0.969   4.284  11.332 -1.0108 -1.2550 -1.5759
 8551TIP3   OH247067   5.917   4.843   4.569 -0.5942  0.0390  0.0466
 8551TIP3    H147068   5.856   4.908   4.605 -0.8121  0.9603 -1.8707
 8551TIP3    H247069   5.865   4.796   4.504 -0.1212 -1.3675  0.6405
 8552TIP3   OH247070   5.645   3.766  16.337  0.4996 -0.2776 -0.4715
 8552TIP3    H147071   5.663   3.769  16.431  1.4972 -0.3161 -0.6446
 8552TIP3    H247072   5.719   3.717  16.301  0.6348  0.5655 -1.3855
 8553TIP3   OH247073   0.404   2.310   3.838 -0.0434 -0.0815 -0.3700
 8553TIP3    H147074   0.480   2.261   3.806  0.1073 -0.7646  0.9624
 8553TIP3    H247075   0.433   2.401   3.839  0.8181 -0.3503  0.2547
 8554TIP3   OH247076   1.675   4.049  10.789 -0.2858 -0.6322  0.3985
 8554TIP3    H147077   1.642   4.139  10.797  2.2751  0.5870 -1.2318
 8554TIP3    H247078   1.666   4.028  10.696  0.1575 -1.6218  0.5657
 8555TIP3   OH247079   4.892   4.688  11.700  0.4687 -0.5290 -1.0340
 8555TIP3    H147080   4.853   4.628  11.636 -1.1565  1.7391 -2.3357
 8555TIP3    H247081   4.852   4.773  11.680  2.2335  0.9006  1.0561
 8556TIP3   OH247082   4.186   0.894   1.085  0.2726 -0.3456  0.2298
 8556TIP3    H147083   4.280   0.891   1.069  0.0368  1.7765 -2.3406
 8556TIP3    H247084   4.147   0.874   1.000 -1.5523  0.6540  0.7814
 8557TIP3   OH247085   6.460   5.769   1.233  0.0769  0.1259 -0.4037
 8557TIP3    H147086   6.467   5.746   1.326  0.0406  4.1348  0.7883
 8557TIP3    H247087   6.366   5.772   1.216  0.0818 -2.1431 -1.1185
 8558TIP3   OH247088   2.089   1.542   0.295 -0.2602  0.1077 -0.6541
 8558TIP3    H147089   2.153   1.471   0.295 -2.1060 -1.6538  0.1173
 8558TIP3    H247090   2.069   1.557   0.387  0.9779  2.5641 -0.6985
 8559TIP3   OH247091   1.692   2.772   2.400  0.1423  0.8332  0.2644
 8559TIP3    H147092   1.697   2.709   2.472 -0.1663 -0.2822 -0.6650
 8559TIP3    H247093   1.759   2.837   2.421  0.7360 -0.0018  1.0549
 8560TIP3   OH247094   3.757   3.021   4.273 -0.1469  0.0407  0.3316
 8560TIP3    H147095   3.798   3.058   4.351 -0.5217  1.6762 -0.2147
 8560TIP3    H247096   3.816   3.042   4.201 -0.0051 -1.0999  0.0843
 8561TIP3   OH247097   6.350   0.038  15.769 -0.1333 -0.2597  0.4427
 8561TIP3    H147098   6.405  -0.011  15.830 -0.0106 -0.8268 -0.1142
 8561TIP3    H247099   6.271  -0.017  15.759 -1.5133  1.2231  2.3793
 8562TIP3   OH247100   2.702   4.671   2.000 -0.3160  0.9299 -0.8930
 8562TIP3    H147101   2.798   4.672   1.998 -0.3353  1.5300 -1.6617
 8562TIP3    H247102   2.679   4.736   2.066 -0.1951  0.8464 -0.7675
 8563TIP3   OH247103   4.518   2.008   6.347 -0.4369  0.3302 -0.0853
 8563TIP3    H147104   4.609   1.980   6.360 -0.7350 -1.9680 -2.1706
 8563TIP3    H247105   4.482   2.013   6.435  1.1282 -0.8977  0.6922
 8564TIP3   OH247106   3.495   5.828   5.411  0.2884 -0.0244  0.0164
 8564TIP3    H147107   3.560   5.836   5.481  0.8934 -0.4380 -0.4879
 8564TIP3    H247108   3.423   5.885   5.438 -0.0903 -1.1889  1.6560
 8565TIP3   OH247109   1.147   4.528  11.529  0.1790  0.4509 -0.6403
 8565TIP3    H147110   1.120   4.526  11.437 -1.2183  0.1498 -0.2395
 8565TIP3    H247111   1.144   4.621  11.552  0.5196  0.5262 -0.8861
 8566TIP3   OH247112   0.627   1.514  12.555 -0.1133 -0.6599 -0.1623
 8566TIP3    H147113   0.694   1.462  12.601 -0.4828 -1.8868 -0.9624
 8566TIP3    H247114   0.544   1.471  12.578 -0.1594 -2.9436 -3.8723
 8567TIP3   OH247115   2.503   5.803   0.831 -0.0271  0.2371  0.0478
 8567TIP3    H147116   2.585   5.756   0.820 -0.0613  0.2559 -0.2889
 8567TIP3    H247117   2.513   5.851   0.914 -0.0005 -0.3678  0.3957
 8568TIP3   OH247118   0.848   4.903   3.761  0.4112 -0.5177  0.4714
 8568TIP3    H147119   0.771   4.852   3.734  0.6020 -1.2816  1.3043
 8568TIP3    H247120   0.880   4.942   3.681 -0.5996 -0.5399  0.0410
 8569TIP3   OH247121   2.796   0.451  11.927  0.4086  0.7258 -0.2128
 8569TIP3    H147122   2.862   0.384  11.945 -1.5700 -1.2081  0.3703
 8569TIP3    H247123   2.777   0.489  12.013 -1.4294 -0.9942  0.2188
 8570TIP3   OH247124   3.579   0.640  13.215 -0.3041  0.0421 -0.0909
 8570TIP3    H147125   3.648   0.706  13.224 -0.3221  0.1883 -0.9388
 8570TIP3    H247126   3.626   0.558  13.204 -0.2092  0.2992 -1.9360
 8571TIP3   OH247127   2.275   1.060  16.284  0.5959 -0.7615  0.0699
 8571TIP3    H147128   2.319   0.979  16.259 -0.4639 -1.1640 -0.5359
 8571TIP3    H247129   2.252   1.048  16.376  0.0932 -1.3128 -0.1260
 8572TIP3   OH247130   5.649   3.807   0.964 -0.2739 -0.3605  0.1689
 8572TIP3    H147131   5.619   3.720   0.989  0.2520 -0.8127 -0.7216
 8572TIP3    H247132   5.742   3.808   0.986 -0.3647  0.1374  0.5681
 8573TIP3   OH247133   3.333   0.780  15.413  0.2642 -0.5366 -0.1683
 8573TIP3    H147134   3.347   0.874  15.411  0.6046 -0.5206  1.5833
 8573TIP3    H247135   3.396   0.744  15.351 -1.0266  0.4701 -2.1622
 8574TIP3   OH247136   5.004   2.761   1.219 -0.4014 -0.2300 -0.0483
 8574TIP3    H147137   5.013   2.778   1.125 -0.1272 -1.3029 -0.2270
 8574TIP3    H247138   5.071   2.696   1.238 -1.1020 -0.7587  0.6917
 8575TIP3   OH247139   0.313   6.737  12.483 -0.6328  0.4665  0.1247
 8575TIP3    H147140   0.263   6.812  12.449  0.3089  1.4101  0.7733
 8575TIP3    H247141   0.266   6.711  12.562 -1.5041 -0.2633 -0.6012
 8576TIP3   OH247142   2.577   2.361   5.893 -0.3927 -0.0998  0.1092
 8576TIP3    H147143   2.563   2.396   5.805 -0.3038  0.7276  0.4111
 8576TIP3    H247144   2.558   2.435   5.951 -0.2707 -0.5830  0.7791
 8577TIP3   OH247145   4.883   2.446  17.244  0.0983  0.0226 -0.4405
 8577TIP3    H147146   4.827   2.422  17.318  1.5386 -0.5251  0.5118
 8577TIP3    H247147   4.941   2.370  17.233 -0.0610  0.1125 -2.1244
 8578TIP3   OH247148   1.840   0.233   3.992  0.1524 -0.3634 -0.0273
 8578TIP3    H147149   1.852   0.237   4.087  1.4608  0.7825 -0.2067
 8578TIP3    H247150   1.849   0.140   3.971 -0.4198 -0.6668  0.9932
 8579TIP3   OH247151   2.584   0.212  15.500 -0.3022 -0.5644  0.0899
 8579TIP3    H147152   2.572   0.249  15.413 -1.1152 -1.2575 -0.1038
 8579TIP3    H247153   2.552   0.122  15.493 -2.6949  0.0590  1.6766
 8580TIP3   OH247154   1.313   4.949  13.874  0.1547 -0.9819  0.4443
 8580TIP3    H147155   1.288   5.001  13.798 -2.4499 -1.8451  0.6135
 8580TIP3    H247156   1.386   4.895  13.843 -0.0199 -0.4066 -1.0399
 8581TIP3   OH247157   0.401   4.596  15.254  0.3848 -0.0733 -0.2586
 8581TIP3    H147158   0.372   4.507  15.273 -0.6716  0.5159  1.0234
 8581TIP3    H247159   0.348   4.622  15.178 -2.5393  0.9311  1.9581
 8582TIP3   OH247160   6.196   4.292   4.006  0.6380 -0.5965  0.0782
 8582TIP3    H147161   6.249   4.372   4.010  1.5482 -1.1728  3.5482
 8582TIP3    H247162   6.122   4.310   4.065  2.2912 -3.0334  3.2278
 8583TIP3   OH247163   6.660   4.215   0.178 -0.5188 -0.3408  0.3100
 8583TIP3    H147164   6.714   4.289   0.205  0.2808 -0.6014 -0.5315
 8583TIP3    H247165   6.665   4.154   0.251 -0.6236  0.1318  0.7217
 8584TIP3   OH247166   3.868   0.947   0.196  0.0040 -0.6795 -0.5859
 8584TIP3    H147167   3.888   0.871   0.141  2.1519  0.1708 -1.0868
 8584TIP3    H247168   3.936   1.011   0.175  1.1279 -0.3637  3.1787
 8585TIP3   OH247169   1.329   1.613   2.878 -0.4804  0.1418 -0.0437
 8585TIP3    H147170   1.401   1.558   2.848  0.0530  1.3764 -1.1285
 8585TIP3    H247171   1.352   1.636   2.968  0.1715  0.0282 -0.1778
 8586TIP3   OH247172   0.809   1.197  13.511  0.2168  0.0926 -0.2929
 8586TIP3    H147173   0.773   1.239  13.589  1.0337  0.0437  0.1199
 8586TIP3    H247174   0.765   1.239  13.438  1.2978  1.9799  0.0767
 8587TIP3   OH247175   6.654   1.907  13.374  0.3421 -0.0341  0.2771
 8587TIP3    H147176   6.677   1.879  13.285  0.5375  0.4740  0.1646
 8587TIP3    H247177   6.704   1.987  13.387 -0.6174  0.5610  0.3956
 8588TIP3   OH247178   1.191   5.856  11.258 -0.1378  0.5591 -0.0821
 8588TIP3    H147179   1.243   5.827  11.183  0.4972  1.7145 -0.1211
 8588TIP3    H247180   1.124   5.913  11.220 -1.3336 -0.7633 -0.0068
 8589TIP3   OH247181   1.592   2.203   5.413 -0.3142 -0.1792 -0.7081
 8589TIP3    H147182   1.540   2.123   5.423 -1.2641  0.5741  0.5882
 8589TIP3    H247183   1.530   2.274   5.426  0.8498  0.7564 -0.1530
 8590TIP3   OH247184   3.704   5.868  14.885 -0.3979 -0.1986 -0.1561
 8590TIP3    H147185   3.703   5.773  14.891 -2.7050 -0.4347 -2.4063
 8590TIP3    H247186   3.770   5.887  14.819  1.0817 -0.0887  1.3153
 8591TIP3   OH247187   4.854   2.749   0.396  0.5601  0.2828  0.5315
 8591TIP3    H147188   4.906   2.829   0.388 -0.3900  0.8648 -0.0366
 8591TIP3    H247189   4.782   2.761   0.334  0.4759 -1.0857  0.3291
 8592TIP3   OH247190   5.160   3.046   2.944  0.0740  0.0937 -0.3055
 8592TIP3    H147191   5.121   3.051   3.031  0.5418 -0.4251 -0.0622
 8592TIP3    H247192   5.238   3.102   2.949  0.8065 -0.9291 -0.0026
 8593TIP3   OH247193   2.466   4.036  13.780  0.5922 -0.1244  0.1035
 8593TIP3    H147194   2.425   4.121  13.798 -0.2792 -0.1702 -1.4990
 8593TIP3    H247195   2.554   4.058  13.751  0.2983  0.2654 -0.5197
 8594TIP3   OH247196   0.303   2.646   2.557 -0.2199  0.1317  0.1178
 8594TIP3    H147197   0.296   2.576   2.623  0.0634 -0.6182 -0.6328
 8594TIP3    H247198   0.377   2.699   2.587  0.9300 -1.1108 -0.3945
 8595TIP3   OH247199   1.287   0.104  16.375  0.5646 -0.6765  0.0261
 8595TIP3    H147200   1.215   0.089  16.437  0.3622  0.7576  0.1801
 8595TIP3    H247201   1.366   0.103  16.428  0.2763  1.9999  0.6178
 8596TIP3   OH247202   4.730   4.377   5.366 -0.2326 -0.2900  0.5056
 8596TIP3    H147203   4.824   4.371   5.382 -0.4274  0.3391  2.0692
 8596TIP3    H247204   4.723   4.417   5.279  0.9588  0.8983  0.9229
 8597TIP3   OH247205   3.128   1.589   0.741  0.4351  0.2425 -0.1303
 8597TIP3    H147206   3.084   1.550   0.665  1.4362  2.2294 -1.8392
 8597TIP3    H247207   3.194   1.525   0.767  1.0851  0.1151 -1.9483
 8598TIP3   OH247208   0.122   2.389   2.815  0.3117  0.0632  0.7124
 8598TIP3    H147209   0.095   2.335   2.889 -1.0611 -2.9041 -1.7633
 8598TIP3    H247210   0.045   2.394   2.759  1.1989  2.4814 -0.4627
 8599TIP3   OH247211   0.396   4.504  12.340  0.4207 -0.2249  0.0122
 8599TIP3    H147212   0.428   4.435  12.282  0.2490  1.0140 -1.6089
 8599TIP3    H247213   0.373   4.576  12.282 -0.8792  0.6513  1.5280
 8600TIP3   OH247214   4.515   1.941   4.130 -0.8202  0.0084 -0.2492
 8600TIP3    H147215   4.420   1.936   4.123 -1.0753  2.3322  0.6548
 8600TIP3    H247216   4.531   2.012   4.192  1.5125 -0.7194  0.0948
 8601TIP3   OH247217   4.936   3.301   3.058  0.2810  0.8766  0.5801
 8601TIP3    H147218   4.872   3.339   2.998 -0.9095 -1.1032  0.4706
 8601TIP3    H247219   4.894   3.306   3.144  0.2926  0.2408  0.6288
 8602TIP3   OH247220   3.755   5.616   2.930 -0.3670 -0.2020  0.3883
 8602TIP3    H147221   3.755   5.521   2.937  0.7716 -0.1219  2.1474
 8602TIP3    H247222   3.811   5.645   3.002 -0.9199  1.8190  0.0595
 8603TIP3   OH247223   1.998   4.894   4.349  0.1312  0.0937  0.4578
 8603TIP3    H147224   1.998   4.801   4.329  1.7495  0.4067 -1.2059
 8603TIP3    H247225   2.043   4.900   4.434  1.4873 -0.5388 -0.1848
 8604TIP3   OH247226   1.119   4.867  16.783  0.1782  0.0568  0.9496
 8604TIP3    H147227   1.207   4.902  16.785  0.7223 -1.1954  0.2043
 8604TIP3    H247228   1.073   4.913  16.853  0.7807  2.3077 -0.0506
 8605TIP3   OH247229   0.990   4.572  16.201  0.2510  0.8157 -0.0086
 8605TIP3    H147230   1.037   4.573  16.118 -0.8771 -4.4321 -1.0608
 8605TIP3    H247231   0.903   4.608  16.181  0.4704  0.9587 -0.7024
 8606TIP3   OH247232   4.341   4.457   1.076  0.0532 -0.0062 -0.3336
 8606TIP3    H147233   4.395   4.536   1.085  2.6517 -1.6518 -0.4962
 8606TIP3    H247234   4.321   4.431   1.166 -1.0220  0.9185 -0.2829
 8607TIP3   OH247235   6.535   2.556  13.511  0.1195  0.0234 -0.0187
 8607TIP3    H147236   6.617   2.594  13.544 -0.2235 -0.1228  1.0235
 8607TIP3    H247237   6.561   2.471  13.476  0.5329  0.2936 -0.3885
 8608TIP3   OH247238   3.334   2.470  11.221  0.0480  0.2834  1.0338
 8608TIP3    H147239   3.352   2.512  11.305  1.4457  1.7866  0.0311
 8608TIP3    H247240   3.307   2.541  11.163 -0.6415 -0.6864  0.1151
 8609TIP3   OH247241   4.195   3.817  16.124 -0.3762 -0.7615 -0.1651
 8609TIP3    H147242   4.162   3.863  16.201  0.1919 -0.0236 -0.3555
 8609TIP3    H247243   4.132   3.746  16.110 -1.7816  0.5111 -0.4507
 8610TIP3   OH247244   4.263   5.788   4.886  0.1037 -0.7848  0.2606
 8610TIP3    H147245   4.302   5.834   4.961 -2.2328 -0.1849  1.1827
 8610TIP3    H247246   4.233   5.704   4.922 -0.2482 -0.8656 -0.2126
 8611TIP3   OH247247   5.749   2.590  11.552  0.0459 -0.1694  0.1962
 8611TIP3    H147248   5.792   2.551  11.628  0.1888 -1.0450 -0.3083
 8611TIP3    H247249   5.721   2.515  11.500 -2.2286  0.3736  0.5484
 8612TIP3   OH247250   1.711   2.727  10.566  0.1923  0.3605 -0.2259
 8612TIP3    H147251   1.621   2.694  10.558  0.5856 -0.9566  0.5516
 8612TIP3    H247252   1.707   2.815  10.529 -2.3211  1.9812  3.3540
 8613TIP3   OH247253   3.533   4.528  15.035  0.6556  0.3881 -0.1434
 8613TIP3    H147254   3.591   4.478  14.978  2.0464  1.0933  0.6210
 8613TIP3    H247255   3.504   4.602  14.981 -1.1729 -0.9936 -1.1787
 8614TIP3   OH247256   1.939   4.754   0.754  0.2481 -0.0773 -0.2951
 8614TIP3    H147257   1.943   4.730   0.847 -1.5598  0.2963 -0.0850
 8614TIP3    H247258   1.941   4.670   0.708 -1.1057 -0.4167  0.2080
 8615TIP3   OH247259   6.641   4.337   0.722  0.0596  0.1229 -0.1230
 8615TIP3    H147260   6.688   4.350   0.639  2.5588  0.9534  1.3267
 8615TIP3    H247261   6.701   4.285   0.775 -0.9294  0.7362  1.6643
 8616TIP3   OH247262   1.647   6.436   6.481 -0.1200 -0.4135 -0.4091
 8616TIP3    H147263   1.727   6.384   6.488  0.9361  1.0860 -0.9486
 8616TIP3    H247264   1.649   6.493   6.558  0.7553  1.4862 -1.7625
 8617TIP3   OH247265   6.295   4.626  13.161  0.0212 -0.3194 -0.0165
 8617TIP3    H147266   6.239   4.643  13.086 -0.1638 -1.5238 -0.1630
 8617TIP3    H247267   6.323   4.713  13.190  0.0108  0.1716 -1.4020
 8618TIP3   OH247268   3.027   1.996  13.273  0.0318  0.7570  0.5376
 8618TIP3    H147269   3.023   2.059  13.202 -1.1618  0.5285  0.3922
 8618TIP3    H247270   2.955   2.020  13.331  1.0704  1.0376  1.7696
 8619TIP3   OH247271   1.515   5.445   4.978 -0.3170  0.2530 -0.1770
 8619TIP3    H147272   1.523   5.360   5.020 -0.5191  0.5997  0.5726
 8619TIP3    H247273   1.584   5.446   4.912  0.8673  0.2106  1.0238
 8620TIP3   OH247274   1.936   6.613   5.098  0.1369  0.2962  0.5013
 8620TIP3    H147275   1.959   6.608   5.191 -2.0376  0.0070  1.0924
 8620TIP3    H247276   1.855   6.561   5.092  0.7880 -0.5453 -1.7612
 8621TIP3   OH247277   3.497   1.804   1.438 -0.0607 -0.2180  0.0490
 8621TIP3    H147278   3.545   1.872   1.391 -0.6790 -0.7371 -1.3937
 8621TIP3    H247279   3.412   1.843   1.456 -0.0205 -0.2185  0.2429
 8622TIP3   OH247280   3.530   1.150   6.979 -0.1687 -0.3413  0.4389
 8622TIP3    H147281   3.483   1.210   6.921  0.4786  1.1365  1.3867
 8622TIP3    H247282   3.620   1.153   6.949 -0.2932 -1.7101 -0.1698
 8623TIP3   OH247283   6.365   2.500   3.113  0.1105 -0.5996 -0.0725
 8623TIP3    H147284   6.410   2.584   3.114  1.5654 -1.3532  0.5005
 8623TIP3    H247285   6.424   2.441   3.066 -1.8884 -0.8218 -2.4947
 8624TIP3   OH247286   0.501   4.535  13.589 -0.4237 -0.4991  0.1415
 8624TIP3    H147287   0.552   4.531  13.670 -0.2030  0.1297  0.0365
 8624TIP3    H247288   0.412   4.556  13.617 -0.1836  0.5309  0.1689
 8625TIP3   OH247289   4.575   1.399   0.201 -0.0580  0.1569  0.6065
 8625TIP3    H147290   4.627   1.476   0.177  1.1070 -0.7930 -0.0022
 8625TIP3    H247291   4.623   1.359   0.274  1.4892 -2.0832 -1.4963
 8626TIP3   OH247292   1.891   3.178   0.961 -0.0829 -0.5553  0.5362
 8626TIP3    H147293   1.957   3.190   1.029  0.1230 -0.2960  0.2946
 8626TIP3    H247294   1.865   3.267   0.938  2.3327 -0.4070 -2.1486
 8627TIP3   OH247295   1.575   2.697   4.093 -0.1344 -0.1763 -0.2552
 8627TIP3    H147296   1.513   2.668   4.160 -0.8200 -0.9534 -1.1884
 8627TIP3    H247297   1.524   2.752   4.034  0.8281  1.8078  0.6897
 8628TIP3   OH247298   0.168   5.774   3.498 -0.0305  0.0578  0.1254
 8628TIP3    H147299   0.173   5.842   3.564 -1.8340 -1.6780  2.2022
 8628TIP3    H247300   0.260   5.756   3.474  0.4864  3.3982 -0.8759
 8629TIP3   OH247301   4.167   6.210   6.170 -0.0303  0.0520 -0.0960
 8629TIP3    H147302   4.095   6.225   6.110 -0.6034  2.1016  0.9979
 8629TIP3    H247303   4.223   6.147   6.125 -1.7462 -0.4992 -1.5928
 8630TIP3   OH247304   2.404   5.674  11.190  0.1270  0.2492  0.1480
 8630TIP3    H147305   2.405   5.666  11.094 -1.2198  0.4135  0.0907
 8630TIP3    H247306   2.472   5.615  11.220 -1.0623 -1.7182 -0.8210
 8631TIP3   OH247307   2.223   2.233  17.326 -0.4549  0.0885 -0.4900
 8631TIP3    H147308   2.194   2.237  17.234 -2.7465  0.8413  0.1789
 8631TIP3    H247309   2.142   2.240  17.376  0.9074  1.9653  1.6251
 8632TIP3   OH247310   6.138   5.893   5.204  0.8804  0.0491  0.1413
 8632TIP3    H147311   6.171   5.977   5.173 -1.2127  0.8657  0.0224
 8632TIP3    H247312   6.188   5.828   5.155  0.9234  1.2562 -1.4682
 8633TIP3   OH247313   3.548   3.247  13.121 -0.1589  0.2090  0.2957
 8633TIP3    H147314   3.632   3.202  13.125 -0.4110 -0.3139 -0.1793
 8633TIP3    H247315   3.542   3.296  13.203  1.2137  1.3273 -0.2184
 8634TIP3   OH247316   3.050   1.442   0.226  0.2639  0.3103  0.3478
 8634TIP3    H147317   3.000   1.419   0.148 -0.1919 -0.2546  0.8016
 8634TIP3    H247318   3.135   1.399   0.213  0.1294  0.0762  0.2405
 8635TIP3   OH247319   0.959   5.332   3.346  0.6777 -0.4063 -0.2871
 8635TIP3    H147320   1.007   5.301   3.422  0.0558 -0.5042  0.0773
 8635TIP3    H247321   0.891   5.265   3.332 -1.6784  1.4654  1.4537
 8636TIP3   OH247322   3.976   2.886   3.684  0.7965  0.0666  0.3290
 8636TIP3    H147323   3.934   2.864   3.768  1.9835  2.0250  1.5152
 8636TIP3    H247324   3.907   2.926   3.632  0.8216  2.1843  1.8104
 8637TIP3   OH247325   5.444   1.738   5.046 -0.2089 -0.2943  0.6494
 8637TIP3    H147326   5.439   1.657   4.996 -1.9871 -0.7335  1.4276
 8637TIP3    H247327   5.508   1.792   5.000 -0.7357 -1.2251 -1.2611
 8638TIP3   OH247328   1.108   6.704   3.341  0.7731  0.2595 -0.5172
 8638TIP3    H147329   1.124   6.664   3.256 -0.3808  0.7264 -0.9620
 8638TIP3    H247330   1.058   6.639   3.390  0.3180  0.5004 -0.6580
 8639TIP3   OH247331   3.735   4.328   5.090  0.1936  0.5854 -0.1092
 8639TIP3    H147332   3.805   4.337   5.026  2.0723 -1.6854  1.4039
 8639TIP3    H247333   3.659   4.302   5.039  1.7833 -1.8308 -1.4650
 8640TIP3   OH247334   5.472   6.480   1.457  0.2257  0.1249  0.1044
 8640TIP3    H147335   5.482   6.561   1.408 -0.9806  0.5559  0.5494
 8640TIP3    H247336   5.404   6.498   1.521  0.4628 -1.0119  0.7133
 8641TIP3   OH247337   1.576   4.563  12.237 -0.3641 -0.4235 -0.4804
 8641TIP3    H147338   1.537   4.568  12.150 -2.4576  0.6554  0.4380
 8641TIP3    H247339   1.501   4.559  12.297  0.9950 -0.3782  1.3166
 8642TIP3   OH247340   1.617   3.132  12.929 -0.1069 -0.3657 -0.3606
 8642TIP3    H147341   1.631   3.122  13.023 -1.8305  0.4993  0.0436
 8642TIP3    H247342   1.575   3.050  12.902  0.8297 -0.8080 -0.4805
 8643TIP3   OH247343   4.042   0.416   2.732  0.7356 -0.2442  0.1333
 8643TIP3    H147344   4.035   0.505   2.698  1.4287 -0.0630  0.4446
 8643TIP3    H247345   4.044   0.360   2.654 -1.3201 -0.1281 -0.0354
 8644TIP3   OH247346   5.197   1.459   0.250 -0.7360 -0.0211 -0.0911
 8644TIP3    H147347   5.285   1.472   0.285 -0.1994  1.6278 -1.9109
 8644TIP3    H247348   5.210   1.420   0.163 -1.7230  1.2078 -0.8234
 8645TIP3   OH247349   0.025   0.916   5.578  0.7024  0.8787  0.3613
 8645TIP3    H147350   0.002   0.926   5.671  0.9616  1.1168  0.4035
 8645TIP3    H247351   0.034   1.006   5.547  0.6700  0.7973  0.1172
 8646TIP3   OH247352   5.434   6.078  11.138  0.1679 -0.1837  0.2920
 8646TIP3    H147353   5.369   6.016  11.173  0.8729 -1.3115 -0.3392
 8646TIP3    H247354   5.442   6.054  11.046 -0.1732  1.4350 -0.1864
 8647TIP3   OH247355   4.078   4.766   3.646 -0.0038  0.2458  0.4446
 8647TIP3    H147356   4.125   4.811   3.716 -0.7549  1.0428  0.4586
 8647TIP3    H247357   3.988   4.799   3.652 -0.2009 -0.0557 -0.5766
 8648TIP3   OH247358   1.178   6.261  12.680 -0.2147  0.0822 -0.1812
 8648TIP3    H147359   1.191   6.294  12.591 -0.2509 -0.7064 -0.4868
 8648TIP3    H247360   1.259   6.214  12.700  0.2169  1.1314  0.6065
 8649TIP3   OH247361   2.495   4.675  10.631 -0.1451  0.3784 -0.3418
 8649TIP3    H147362   2.553   4.607  10.597  0.4597  0.6352  0.1424
 8649TIP3    H247363   2.424   4.681  10.568  0.2167 -0.1399 -0.8033
 8650TIP3   OH247364   2.827   1.551  13.131  0.1686  0.1232 -0.1228
 8650TIP3    H147365   2.752   1.549  13.190  2.0652 -2.8348  2.4973
 8650TIP3    H247366   2.880   1.624  13.163 -0.9369  1.4794 -1.2490
 8651TIP3   OH247367   4.931   3.718   4.357  0.0762 -0.5014  0.6658
 8651TIP3    H147368   4.865   3.786   4.364  1.0560  0.4379  1.1079
 8651TIP3    H247369   4.922   3.685   4.268 -1.3538 -0.8053  0.8927
 8652TIP3   OH247370   1.258   1.294   5.958 -0.2498 -0.2371 -0.1404
 8652TIP3    H147371   1.320   1.231   5.994  0.4586  1.2958  1.4490
 8652TIP3    H247372   1.310   1.373   5.943 -1.9714  1.6335  2.7094
 8653TIP3   OH247373   0.527   5.982  14.807  1.1061 -0.1510  0.3909
 8653TIP3    H147374   0.459   6.003  14.743  0.9991 -0.4543  0.3997
 8653TIP3    H247375   0.610   6.002  14.763  1.0215 -0.0835  0.2641
 8654TIP3   OH247376   4.581   4.920   3.372  0.1427  0.8365  0.1343
 8654TIP3    H147377   4.618   4.892   3.456  0.0442 -1.2500 -0.4855
 8654TIP3    H247378   4.608   5.012   3.365  1.2587  0.7009  1.8388
 8655TIP3   OH247379   6.166   3.626   0.605 -0.5247  0.1430  0.1349
 8655TIP3    H147380   6.150   3.532   0.601  0.7914 -0.0551 -1.1373
 8655TIP3    H247381   6.188   3.651   0.516  0.9942  1.2947  0.7807
 8656TIP3   OH247382   4.327   1.625  15.751  0.0787  0.1276 -0.1838
 8656TIP3    H147383   4.369   1.660  15.672 -0.6877  0.1960 -0.5622
 8656TIP3    H247384   4.249   1.581  15.719  0.3247 -0.7765  0.4365
 8657TIP3   OH247385   4.301   3.788  16.952 -0.1586  0.2480  0.7941
 8657TIP3    H147386   4.326   3.794  17.044  0.2008 -2.1269  0.9071
 8657TIP3    H247387   4.373   3.741  16.910  0.1836  2.1679 -0.9574
 8658TIP3   OH247388   5.152   1.093   4.229  0.2780  0.1275 -0.3382
 8658TIP3    H147389   5.215   1.140   4.174  1.4511  1.2930  1.8884
 8658TIP3    H247390   5.206   1.042   4.288 -0.8516  0.8548  1.3908
 8659TIP3   OH247391   0.775   5.277  15.241 -0.0266 -0.5609  0.3832
 8659TIP3    H147392   0.823   5.312  15.166  0.5792  1.1518  1.4985
 8659TIP3    H247393   0.700   5.232  15.203  0.7895 -0.5952 -1.2771
 8660TIP3   OH247394   4.734   3.059  12.477 -0.1755  0.4323 -0.1514
 8660TIP3    H147395   4.673   3.121  12.436 -0.2026 -0.6766 -1.9009
 8660TIP3    H247396   4.761   3.001  12.406 -0.1547 -1.5763  1.3956
 8661TIP3   OH247397   2.678   1.367  17.086  0.0339  0.2311  0.5450
 8661TIP3    H147398   2.699   1.421  17.009 -1.0592 -0.5626 -0.3292
 8661TIP3    H247399   2.662   1.280  17.051  1.0216 -0.5290  1.8636
 8662TIP3   OH247400   3.160   1.345  15.688  0.6181  0.6526 -0.3056
 8662TIP3    H147401   3.140   1.435  15.661  1.8338  0.8688 -0.5572
 8662TIP3    H247402   3.153   1.346  15.783 -0.4175  0.7374 -0.3756
 8663TIP3   OH247403   1.560   1.916  16.409 -0.4016  0.8590  1.2686
 8663TIP3    H147404   1.552   1.823  16.432 -0.8491  0.2121 -1.2092
 8663TIP3    H247405   1.654   1.932  16.408 -0.3199  0.4285  1.6874
 8664TIP3   OH247406   5.315   0.816   5.194 -0.0502 -0.7009 -0.1321
 8664TIP3    H147407   5.264   0.847   5.120  0.0633  1.4786  0.6355
 8664TIP3    H247408   5.406   0.821   5.164  0.0366  0.7097  0.2741
 8665TIP3   OH247409   2.230   5.154  14.621 -0.5995  0.0092 -0.0815
 8665TIP3    H147410   2.174   5.224  14.588 -0.7366  1.3513  2.6748
 8665TIP3    H247411   2.314   5.196  14.637  0.9680 -1.7089 -3.0235
 8666TIP3   OH247412   2.419   2.585  11.906 -0.0558 -0.3691  0.0684
 8666TIP3    H147413   2.389   2.600  11.816  0.2087 -0.2058  0.0062
 8666TIP3    H247414   2.345   2.611  11.961 -0.2525 -0.5587 -0.1036
 8667TIP3   OH247415   1.968   4.719   4.047 -0.1439 -0.6487 -0.2832
 8667TIP3    H147416   1.900   4.663   4.010  0.0532 -0.1188 -1.5034
 8667TIP3    H247417   1.996   4.674   4.126 -4.0921  0.6151  2.0891
 8668TIP3   OH247418   6.210   5.507   4.150  0.0347  0.1697 -0.0887
 8668TIP3    H147419   6.162   5.503   4.067 -1.8129 -1.9630  0.9551
 8668TIP3    H247420   6.144   5.530   4.215  1.1112  0.2971  0.9967
 8669TIP3   OH247421   2.247   6.239  14.446  0.2517  0.1563  0.7529
 8669TIP3    H147422   2.223   6.205  14.360  0.1845 -1.9071  1.5422
 8669TIP3    H247423   2.184   6.199  14.506  1.7155 -0.2998  2.0442
 8670TIP3   OH247424   2.947   0.652   3.516 -0.9149 -0.2261  0.2156
 8670TIP3    H147425   2.856   0.680   3.508 -1.4764 -0.9184  3.0203
 8670TIP3    H247426   2.942   0.556   3.523  0.2047 -0.4158 -1.0355
 8671TIP3   OH247427   6.606   1.712   1.244 -0.1991 -0.8963  0.2766
 8671TIP3    H147428   6.669   1.713   1.172 -1.1197 -2.1883 -0.5915
 8671TIP3    H247429   6.560   1.629   1.234 -2.5826  0.3371  0.4179
 8672TIP3   OH247430   5.600   0.938  15.745 -0.1518 -0.1363  0.2439
 8672TIP3    H147431   5.620   0.866  15.684 -0.1211 -1.7379  2.0578
 8672TIP3    H247432   5.526   0.906  15.796 -0.5020  1.3885  0.7433
 8673TIP3   OH247433   2.778   5.982   4.784 -0.3743 -0.4165  0.3929
 8673TIP3    H147434   2.759   6.065   4.827  1.5244  0.6974 -0.7845
 8673TIP3    H247435   2.857   5.950   4.827  0.6325 -0.0821 -1.1370
 8674TIP3   OH247436   4.324   4.779   3.474 -0.2668  0.1142  0.3941
 8674TIP3    H147437   4.261   4.752   3.541  1.2666  0.0431  1.8451
 8674TIP3    H247438   4.304   4.723   3.399  0.2377 -2.3280  1.9741
 8675TIP3   OH247439   4.628   5.492  16.271 -0.2759  0.3890 -0.0367
 8675TIP3    H147440   4.582   5.532  16.197 -1.3432  0.5287  0.6763
 8675TIP3    H247441   4.611   5.399  16.263 -1.2479  0.4959  0.5676
 8676TIP3   OH247442   5.842   0.585   1.998  0.1605 -0.2902  0.2307
 8676TIP3    H147443   5.932   0.569   1.972  1.2830  1.0979  2.8625
 8676TIP3    H247444   5.846   0.596   2.093 -2.9288 -1.0150  0.5456
 8677TIP3   OH247445   1.386   6.551  16.813  0.0982  0.3696  0.5377
 8677TIP3    H147446   1.353   6.471  16.852  0.9796 -0.7406 -0.8927
 8677TIP3    H247447   1.317   6.580  16.754  0.2702 -0.0348  0.1331
 8678TIP3   OH247448   5.331   6.160  17.314 -0.1980  0.3354 -0.4282
 8678TIP3    H147449   5.265   6.220  17.349  0.6524  1.4871 -0.7162
 8678TIP3    H247450   5.294   6.073  17.325 -0.6104  0.7506  1.9852
 8679TIP3   OH247451   0.254   0.047   2.615 -0.1871 -0.4839 -0.1665
 8679TIP3    H147452   0.196   0.004   2.678 -0.6781  3.9060  2.8210
 8679TIP3    H247453   0.196   0.090   2.553 -0.0557  0.7743  0.5463
 8680TIP3   OH247454   2.610   1.849   3.051  0.1917 -0.0011  0.2575
 8680TIP3    H147455   2.592   1.938   3.019  1.1488 -0.6127 -2.2144
 8680TIP3    H247456   2.694   1.826   3.010  0.3136 -1.7924  1.4294
 8681TIP3   OH247457   2.378   3.443   3.783  0.3637  0.3357  0.0222
 8681TIP3    H147458   2.453   3.386   3.800  0.9149  1.5220  1.8667
 8681TIP3    H247459   2.370   3.497   3.861 -3.2002 -0.5491  0.4748
 8682TIP3   OH247460   1.709   1.009   0.842 -0.1874  0.3553  0.5673
 8682TIP3    H147461   1.657   1.089   0.848 -1.7925 -0.4910 -1.1271
 8682TIP3    H247462   1.650   0.945   0.803  0.6815 -2.0319  2.9256
 8683TIP3   OH247463   2.917   4.725  12.983  0.2262 -0.2896 -0.0441
 8683TIP3    H147464   2.964   4.796  13.028  0.3426 -0.5323  0.2269
 8683TIP3    H247465   2.970   4.706  12.906 -0.2004  0.4224 -0.5278
 8684TIP3   OH247466   2.884   2.472   0.176  0.1820 -0.1781  0.3081
 8684TIP3    H147467   2.848   2.511   0.255  1.1067 -0.0461  0.6737
 8684TIP3    H247468   2.918   2.546   0.126 -1.8498 -0.0414 -1.0367
 8685TIP3   OH247469   5.176   2.176   2.110 -0.0237 -0.1726  0.1047
 8685TIP3    H147470   5.215   2.230   2.041  0.6419 -0.2421  0.4171
 8685TIP3    H247471   5.248   2.162   2.172 -0.8734  0.7190  1.3085
 8686TIP3   OH247472   5.023   1.690  13.612 -0.1570 -0.4726  0.4036
 8686TIP3    H147473   5.091   1.664  13.674  0.1947 -0.9354 -0.1745
 8686TIP3    H247474   5.043   1.643  13.532 -0.5964  0.1424 -0.0822
 8687TIP3   OH247475   0.930   2.570  13.656 -0.1479 -0.5698 -0.2975
 8687TIP3    H147476   0.873   2.554  13.731  0.6218 -0.4633  0.3154
 8687TIP3    H247477   0.877   2.624  13.597 -0.7147 -0.5548  0.2143
 8688TIP3   OH247478   2.444   2.888   2.478  0.0452  0.3301  0.5192
 8688TIP3    H147479   2.376   2.868   2.414 -0.9577  2.1338  0.9460
 8688TIP3    H247480   2.472   2.803   2.511 -1.6387 -0.4886 -0.0610
 8689TIP3   OH247481   4.736   6.569  13.778 -0.9329  0.1704  0.0115
 8689TIP3    H147482   4.647   6.535  13.774 -0.4216 -1.2148 -0.2704
 8689TIP3    H247483   4.745   6.622  13.698 -1.1380 -0.6592 -0.5818
 8690TIP3   OH247484   5.104   0.718   4.732 -0.5111  0.2068 -0.6578
 8690TIP3    H147485   5.020   0.740   4.773 -0.6171 -1.5845  0.1834
 8690TIP3    H247486   5.083   0.708   4.639 -1.4103 -0.9815 -0.3448
 8691TIP3   OH247487   3.726   1.510   4.024  0.5991 -0.3014 -0.0575
 8691TIP3    H147488   3.764   1.545   4.105 -0.6104 -0.0735  0.4294
 8691TIP3    H247489   3.657   1.572   4.001  0.0159 -1.1058 -0.5089
 8692TIP3   OH247490   1.880   6.657   4.786 -0.1069  0.3802 -0.4804
 8692TIP3    H147491   1.803   6.672   4.730  0.6242 -0.7479 -1.8799
 8692TIP3    H247492   1.953   6.691   4.735  0.7604 -1.9145 -0.8997
 8693TIP3   OH247493   2.286   0.567  15.970  0.4958 -0.1157  0.4984
 8693TIP3    H147494   2.349   0.634  15.944  0.2813  0.2892  0.9983
 8693TIP3    H247495   2.222   0.566  15.899 -0.2678  1.2162  1.1153
 8694TIP3   OH247496   6.621   2.447  13.967  0.1357 -0.5254  0.5926
 8694TIP3    H147497   6.541   2.403  13.997  1.5132 -2.8377  1.1676
 8694TIP3    H247498   6.632   2.520  14.028 -0.9857 -0.8081  1.1702
 8695TIP3   OH247499   6.719   4.097  13.948 -0.9065  0.7992  0.1671
 8695TIP3    H147500   6.667   4.154  13.891 -0.1403  0.8371 -0.5366
 8695TIP3    H247501   6.665   4.019  13.961 -1.1171  0.8106 -0.5908
 8696TIP3   OH247502   4.067   3.893  16.751  0.5257  0.0080  1.1011
 8696TIP3    H147503   3.994   3.955  16.756  0.0513 -0.6267  3.1912
 8696TIP3    H247504   4.145   3.948  16.749  0.1318  0.7583  3.1705
 8697TIP3   OH247505   0.052   1.493  15.051 -0.5199  0.3884 -1.1687
 8697TIP3    H147506   0.063   1.410  15.005 -1.0130 -0.7000  0.5532
 8697TIP3    H247507  -0.033   1.526  15.021 -1.3991 -0.9005 -0.2421
 8698TIP3   OH247508   6.231   3.401  13.465  0.3574  0.1917 -0.2978
 8698TIP3    H147509   6.217   3.450  13.384  0.5557 -0.5110 -0.7735
 8698TIP3    H247510   6.151   3.351  13.477  0.3585  0.2371 -0.0966
 8699TIP3   OH247511   6.422   0.157   1.564 -0.0723 -0.0387  0.2925
 8699TIP3    H147512   6.405   0.063   1.576 -0.5103  0.0796  0.6156
 8699TIP3    H247513   6.357   0.185   1.501 -0.5939  0.2539  0.9500
 8700TIP3   OH247514   1.997   5.623  13.134 -0.1361  0.3422 -0.3001
 8700TIP3    H147515   2.012   5.718  13.140 -0.3708  0.3750 -0.2083
 8700TIP3    H247516   2.080   5.588  13.104  0.1004  0.5297  0.1159
 8701TIP3   OH247517   5.287   4.471   6.010  0.0688  0.4297  0.1577
 8701TIP3    H147518   5.249   4.428   6.087 -0.9751  1.7996  0.4684
 8701TIP3    H247519   5.211   4.506   5.963  0.6950 -0.4255 -1.5381
 8702TIP3   OH247520   6.532   2.161  12.004 -0.2684  0.2671  0.4591
 8702TIP3    H147521   6.454   2.151  12.059 -1.3051 -2.2845 -1.2782
 8702TIP3    H247522   6.604   2.127  12.058 -1.1018 -1.3408  0.6045
 8703TIP3   OH247523   4.384   1.740  12.456 -0.0933  0.1155 -0.4880
 8703TIP3    H147524   4.348   1.683  12.388 -1.8631 -0.1530  0.6007
 8703TIP3    H247525   4.360   1.697  12.539  1.6923  0.6070  0.3385
 8704TIP3   OH247526   0.217   6.003  13.097  0.2522 -0.5095  0.3921
 8704TIP3    H147527   0.159   5.982  13.170  1.3269 -2.0482  0.8758
 8704TIP3    H247528   0.159   6.032  13.027 -0.9339 -0.3770  1.3989
 8705TIP3   OH247529   1.604   3.164  15.611 -0.0406  0.1405 -0.2282
 8705TIP3    H147530   1.692   3.130  15.627  0.0301  0.4844  0.1340
 8705TIP3    H247531   1.559   3.093  15.566  0.4163 -0.0477 -0.3947
 8706TIP3   OH247532   5.693   2.649   2.109  0.5095 -0.2354  0.0575
 8706TIP3    H147533   5.746   2.644   2.030  0.8539 -3.1081  0.3589
 8706TIP3    H247534   5.667   2.558   2.127 -1.5098  0.5984  1.9509
 8707TIP3   OH247535   1.510   5.674  17.065  0.2788 -0.5994 -0.0494
 8707TIP3    H147536   1.528   5.622  17.144 -0.7855 -0.6430  0.1814
 8707TIP3    H247537   1.594   5.715  17.044  0.7801 -1.2341  0.6289
 8708TIP3   OH247538   2.795   2.919  11.088  0.5551  0.0203  0.0140
 8708TIP3    H147539   2.877   2.927  11.039  0.1547  0.6502 -0.5713
 8708TIP3    H247540   2.815   2.958  11.173  0.7862  0.4434 -0.2285
 8709TIP3   OH247541   5.477   5.469   2.349 -0.2268  0.4570  0.1392
 8709TIP3    H147542   5.544   5.406   2.322 -0.3005  0.8728 -1.0497
 8709TIP3    H247543   5.521   5.524   2.413  0.3646  0.2927 -0.1190
 8710TIP3   OH247544   0.767   2.286   3.058 -0.2192  0.1962  0.1937
 8710TIP3    H147545   0.846   2.261   3.106 -0.6771 -3.1521 -0.5665
 8710TIP3    H247546   0.791   2.367   3.013  2.0355  0.4082  1.6284
 8711TIP3   OH247547   1.465   3.111  10.472  0.7442 -0.5027  0.1645
 8711TIP3    H147548   1.543   3.163  10.451 -0.5841  0.9958 -1.3226
 8711TIP3    H247549   1.450   3.127  10.565  2.2275 -0.8914  0.5015
 8712TIP3   OH247550   2.630   0.817   3.154  0.0973  0.4642 -0.1172
 8712TIP3    H147551   2.666   0.762   3.084  1.6135  0.9851  0.2230
 8712TIP3    H247552   2.608   0.900   3.110  1.6787  1.0318  0.1200
 8713TIP3   OH247553   6.229   0.268  16.939  0.3098  0.6951  0.3514
 8713TIP3    H147554   6.229   0.174  16.960 -0.6526  0.1010 -2.0383
 8713TIP3    H247555   6.242   0.272  16.845  3.7511  3.1510  0.7272
 8714TIP3   OH247556   1.966   2.711   3.374 -0.0355  0.1243  0.0913
 8714TIP3    H147557   1.965   2.649   3.301  1.5792  1.1478 -0.8516
 8714TIP3    H247558   2.027   2.673   3.437 -1.7776 -0.9965  1.2136
 8715TIP3   OH247559   0.394   0.982   2.322 -0.3899 -0.2013  0.2678
 8715TIP3    H147560   0.301   0.987   2.298 -0.6192 -0.1661  1.1530
 8715TIP3    H247561   0.398   0.913   2.388  0.3402 -0.7398 -0.3131
 8716TIP3   OH247562   4.085   5.698  11.370  0.0985  0.0504 -0.3684
 8716TIP3    H147563   4.012   5.638  11.387  1.1672 -0.5582  2.4586
 8716TIP3    H247564   4.127   5.711  11.455  1.9799  2.1544 -1.5059
 8717TIP3   OH247565   6.123   5.315   1.570  0.2175 -0.1722 -0.6011
 8717TIP3    H147566   6.098   5.262   1.646  1.6490 -0.6357 -0.4053
 8717TIP3    H247567   6.152   5.398   1.607  1.8241 -0.7338 -0.5054
 8718TIP3   OH247568   4.536   4.692   1.111  0.3342 -0.0806  0.5972
 8718TIP3    H147569   4.613   4.739   1.143 -0.7962  1.4000  1.2775
 8718TIP3    H247570   4.468   4.713   1.175 -0.9506 -0.3688 -0.6430
 8719TIP3   OH247571   1.892   3.639   6.126  0.3709 -0.1222 -0.4399
 8719TIP3    H147572   1.831   3.567   6.143 -1.3485  1.3586  0.0045
 8719TIP3    H247573   1.936   3.614   6.046 -0.9167 -1.2277 -0.8505
 8720TIP3   OH247574   2.350   6.040  12.065 -0.3017  0.1299  0.3941
 8720TIP3    H147575   2.395   6.079  11.991 -0.9836  0.5618  0.1960
 8720TIP3    H247576   2.293   5.973  12.027 -1.1122  0.7667  0.4397
 8721TIP3   OH247577   3.355   2.956  16.076 -0.1049 -0.1498 -0.3949
 8721TIP3    H147578   3.268   2.932  16.044 -1.2452  1.6619  1.1472
 8721TIP3    H247579   3.375   2.890  16.142 -0.3112 -0.5511 -0.7283
 8722TIP3   OH247580   6.303   0.878   4.281 -0.1947 -0.0125  0.2158
 8722TIP3    H147581   6.355   0.938   4.333  2.4631 -0.7687 -1.3862
 8722TIP3    H247582   6.347   0.793   4.289 -0.9622 -0.6357 -1.4722
 8723TIP3   OH247583   6.369   2.590  15.194 -0.6237  0.2485  0.4125
 8723TIP3    H147584   6.344   2.671  15.239  0.2421 -0.1566  1.6693
 8723TIP3    H247585   6.411   2.619  15.113 -1.1725  1.0221  0.3946
 8724TIP3   OH247586   2.382   2.952  14.920 -0.1071 -0.2248 -0.2164
 8724TIP3    H147587   2.329   3.029  14.897 -0.2070 -0.6662 -1.5566
 8724TIP3    H247588   2.375   2.946  15.016 -0.5707  1.0856 -0.1474
 8725TIP3   OH247589   5.043   4.049   3.648  0.4814 -0.2544 -0.5269
 8725TIP3    H147590   4.959   4.022   3.684  0.2433  0.6150 -0.3913
 8725TIP3    H247591   5.086   3.968   3.622 -0.4636 -0.7017 -0.7349
 8726TIP3   OH247592   6.546   3.478   2.890  0.2378  0.0179  0.3734
 8726TIP3    H147593   6.495   3.418   2.835  0.6919 -0.7812  0.8011
 8726TIP3    H247594   6.588   3.421   2.955 -0.9459  0.9952  2.0809
 8727TIP3   OH247595   0.305   1.083   6.301 -0.0961  0.3011 -0.2749
 8727TIP3    H147596   0.293   1.176   6.279  0.4522  0.5007  0.2311
 8727TIP3    H247597   0.216   1.051   6.318 -0.4374  0.3718 -1.7889
 8728TIP3   OH247598   3.427   2.073  17.316 -0.2673 -0.1226  0.7111
 8728TIP3    H147599   3.375   1.997  17.294 -0.2354 -0.3902  1.5061
 8728TIP3    H247600   3.391   2.144  17.264 -0.4158 -0.6409  0.1055
 8729TIP3   OH247601   0.157   4.409   3.636  0.3480 -0.4413 -0.5128
 8729TIP3    H147602   0.147   4.332   3.581 -0.9851  0.2023 -1.2184
 8729TIP3    H247603   0.165   4.482   3.575  0.0379  0.1527  0.1378
 8730TIP3   OH247604   0.960   1.363   6.591 -0.1942  0.3329  0.3649
 8730TIP3    H147605   0.873   1.364   6.550 -0.6461 -1.1997  1.1853
 8730TIP3    H247606   0.963   1.444   6.642 -0.4592  1.2100 -0.9563
 8731TIP3   OH247607   2.142   5.115  12.793 -0.2156  0.2402  0.4575
 8731TIP3    H147608   2.108   5.175  12.860  0.7016  1.4327 -0.1203
 8731TIP3    H247609   2.236   5.132  12.791 -0.1073 -0.4299 -0.5013
 8732TIP3   OH247610   6.712   1.512   1.788 -0.3301 -0.5656  0.3611
 8732TIP3    H147611   6.770   1.580   1.755 -0.6614 -0.7090 -0.5481
 8732TIP3    H247612   6.742   1.431   1.746 -3.0034 -0.2112 -2.6653
 8733TIP3   OH247613   4.293   6.417   3.481 -0.2646 -0.2309  0.1423
 8733TIP3    H147614   4.298   6.511   3.493 -0.1206  0.0099 -1.5876
 8733TIP3    H247615   4.373   6.383   3.521  0.0549  0.4655  0.1048
 8734TIP3   OH247616   1.992   4.253  12.851 -0.0093 -0.3694 -0.4962
 8734TIP3    H147617   2.023   4.247  12.760 -0.5896 -0.1227 -0.7144
 8734TIP3    H247618   2.072   4.267  12.903  0.3551 -0.7555 -0.9380
 8735TIP3   OH247619   5.213   3.899  15.525 -0.0333 -0.1052 -0.0728
 8735TIP3    H147620   5.137   3.942  15.565  0.8034  0.9944  0.3841
 8735TIP3    H247621   5.177   3.853  15.450 -0.9254  1.7399 -0.8446
 8736TIP3   OH247622   5.411   1.717   0.049 -0.2059 -0.4879 -0.3044
 8736TIP3    H147623   5.375   1.630   0.031 -0.6420 -0.2695 -0.5159
 8736TIP3    H247624   5.369   1.774  -0.016  0.2621 -0.1631 -0.3228
 8737TIP3   OH247625   3.136   3.564   1.479  0.0271 -0.1447 -0.1838
 8737TIP3    H147626   3.155   3.533   1.568 -0.8790 -0.7293 -0.1779
 8737TIP3    H247627   3.067   3.505   1.448 -0.3428  0.6628 -0.9224
 8738TIP3   OH247628   3.574   1.746  16.962  0.7100  0.5720  0.2091
 8738TIP3    H147629   3.583   1.678  16.895 -0.1695  0.7211 -0.0771
 8738TIP3    H247630   3.663   1.765  16.990  1.0446  0.1202 -0.5326
 8739TIP3   OH247631   3.780   3.480   1.904 -0.4598 -0.1716 -0.3461
 8739TIP3    H147632   3.833   3.525   1.838  0.0707 -1.4883 -0.8417
 8739TIP3    H247633   3.741   3.406   1.858  0.1600 -1.2932  0.8832
 8740TIP3   OH247634   3.224   3.217  13.376  0.3854 -0.1617 -0.0749
 8740TIP3    H147635   3.301   3.273  13.386  0.4318  0.1845 -2.0805
 8740TIP3    H247636   3.251   3.132  13.413  2.1133 -0.3492 -1.6308
 8741TIP3   OH247637   4.884   0.877   4.752 -0.4589 -0.0464 -0.0221
 8741TIP3    H147638   4.796   0.844   4.766  0.4632 -2.0792  1.4117
 8741TIP3    H247639   4.896   0.874   4.657 -0.7418 -3.2025 -0.0554
 8742TIP3   OH247640   3.852   6.497   6.519 -0.1401  0.6065 -0.1749
 8742TIP3    H147641   3.913   6.477   6.448  1.3905 -2.1371  1.7285
 8742TIP3    H247642   3.768   6.514   6.475  0.6671 -1.1554 -2.6096
 8743TIP3   OH247643   4.842   3.968   1.587 -0.3116 -0.0662  0.4949
 8743TIP3    H147644   4.902   4.037   1.559  0.3078 -0.9307 -0.3767
 8743TIP3    H247645   4.834   3.911   1.511 -0.4430 -1.2123  1.3439
 8744TIP3   OH247646   5.926   1.667  16.252  0.1265  1.0884 -0.1632
 8744TIP3    H147647   5.848   1.685  16.305 -0.9463  1.6950 -1.8668
 8744TIP3    H247648   5.997   1.663  16.316 -1.2041  1.0187  1.3983
 8745TIP3   OH247649   6.692   0.675  13.636  0.0325 -0.2669  0.2270
 8745TIP3    H147650   6.755   0.603  13.646  2.7609  1.3654 -2.9645
 8745TIP3    H247651   6.689   0.716  13.722  2.4753 -1.1523  0.8390
 8746TIP3   OH247652   0.095   2.113  13.998 -0.0049 -0.0950 -0.1716
 8746TIP3    H147653   0.187   2.084  13.998  0.4128  1.0749  1.8037
 8746TIP3    H247654   0.092   2.182  13.932 -0.0941 -1.7766 -2.0293
 8747TIP3   OH247655   0.760   2.552   5.950 -0.4139 -0.2780 -0.1139
 8747TIP3    H147656   0.716   2.611   5.889  0.3357 -0.4241 -0.8224
 8747TIP3    H247657   0.810   2.609   6.008  0.6398 -0.2083 -1.0588
 8748TIP3   OH247658   0.085   3.083  13.196 -0.1859  0.0756  0.2376
 8748TIP3    H147659   0.061   3.116  13.109  2.1824  0.2219 -0.4294
 8748TIP3    H247660   0.086   3.160  13.252 -1.1403  0.0665  0.2922
 8749TIP3   OH247661   1.348   0.184   4.786 -0.0677 -0.1159  0.3077
 8749TIP3    H147662   1.419   0.133   4.823 -1.3828 -2.7176 -0.4822
 8749TIP3    H247663   1.303   0.221   4.862  0.9187 -0.1362  0.9152
 8750TIP3   OH247664   4.003   6.353   4.015  0.3764 -0.2809 -0.0617
 8750TIP3    H147665   4.026   6.432   3.966  2.5514 -1.1183 -0.4766
 8750TIP3    H247666   3.958   6.297   3.952  2.0366 -0.8271 -0.8057
 8751TIP3   OH247667   3.196   5.207  12.949 -0.0704  0.4263 -0.7352
 8751TIP3    H147668   3.207   5.293  12.907 -0.5051  0.3505 -1.0139
 8751TIP3    H247669   3.283   5.168  12.945  0.2148  0.9972 -0.2851
 8752TIP3   OH247670   4.750   5.003  10.859 -0.3810 -0.4683  0.0200
 8752TIP3    H147671   4.723   4.992  10.768 -1.5877 -0.7336  0.3991
 8752TIP3    H247672   4.669   5.012  10.908  0.2626  0.1393  1.0264
 8753TIP3   OH247673   4.102   2.424   2.012  0.1494 -0.0659 -0.3555
 8753TIP3    H147674   4.121   2.351   1.952  0.9176  0.0336 -0.2398
 8753TIP3    H247675   4.012   2.408   2.040  0.2583 -0.9006 -0.4391
 8754TIP3   OH247676   4.587   3.103  15.990 -0.1955  0.1735 -0.3323
 8754TIP3    H147677   4.621   3.102  15.901  2.7820 -0.8443  0.7147
 8754TIP3    H247678   4.562   3.013  16.008  0.5959  0.0716  0.3156
 8755TIP3   OH247679   4.288   1.750  15.178  1.0006 -0.4323  0.0353
 8755TIP3    H147680   4.293   1.664  15.219  1.1810 -0.3194  0.2544
 8755TIP3    H247681   4.370   1.794  15.203  0.4337  0.2055  0.8590
 8756TIP3   OH247682   2.670   2.301  16.002 -0.4593 -0.1555 -0.0956
 8756TIP3    H147683   2.588   2.323  16.047 -0.4744  1.9830 -1.0692
 8756TIP3    H247684   2.737   2.351  16.048 -0.1339  0.2705 -1.0098
 8757TIP3   OH247685   1.057   2.117   2.109  0.4090  0.0017 -0.8771
 8757TIP3    H147686   1.020   2.072   2.033  0.5433 -0.9652 -0.3930
 8757TIP3    H247687   1.131   2.062   2.136  0.2734  0.2433  0.0304
 8758TIP3   OH247688   6.290   4.127  11.053  0.1848  0.4343 -0.7246
 8758TIP3    H147689   6.339   4.141  10.972  3.9895  0.4631  1.3346
 8758TIP3    H247690   6.254   4.039  11.044 -0.3321  0.7932 -2.7565
 8759TIP3   OH247691   0.010   3.493   3.668 -0.3813 -0.0187 -0.5706
 8759TIP3    H147692   0.079   3.452   3.720 -0.7573  0.9145  0.6916
 8759TIP3    H247693   0.018   3.451   3.582  1.7974  0.1079 -0.4881
 8760TIP3   OH247694   6.040   1.835  15.893  1.0135 -0.7311  0.2648
 8760TIP3    H147695   6.078   1.902  15.949 -0.3340 -0.3235  0.7258
 8760TIP3    H247696   6.081   1.848  15.808  0.3579  1.0721  0.1831
 8761TIP3   OH247697   5.535   3.098   2.021 -0.4241  0.0892 -0.3128
 8761TIP3    H147698   5.553   3.191   2.029 -1.4026  0.1170  2.2503
 8761TIP3    H247699   5.443   3.089   2.045  0.0017 -1.6651  0.8392
 8762TIP3   OH247700   1.118   2.059   4.289  0.1775  0.1682  0.2589
 8762TIP3    H147701   1.103   2.154   4.293  0.7378  0.2302  2.4265
 8762TIP3    H247702   1.042   2.025   4.243  0.0779  1.6797 -0.7882
 8763TIP3   OH247703   4.189   0.415  10.826  0.3876 -0.1589 -0.1352
 8763TIP3    H147704   4.257   0.359  10.791  0.8981  0.0501  0.4938
 8763TIP3    H247705   4.107   0.378  10.794  0.8048 -0.2787 -1.0876
 8764TIP3   OH247706   5.451   1.885   1.046 -0.2681  0.1272 -0.2189
 8764TIP3    H147707   5.471   1.791   1.051 -0.6167  0.1006  1.1923
 8764TIP3    H247708   5.537   1.927   1.046 -0.1048 -0.1462  1.2591
 8765TIP3   OH247709   2.159   3.092   5.421 -0.2204 -0.4688  0.1088
 8765TIP3    H147710   2.135   3.011   5.467 -1.2341  0.5467  1.4825
 8765TIP3    H247711   2.125   3.162   5.478  1.1012  0.9356 -0.7667
 8766TIP3   OH247712   1.678   0.607   3.939  0.2787  0.1640  0.1365
 8766TIP3    H147713   1.727   0.648   4.010 -0.6229  1.8113 -0.1513
 8766TIP3    H247714   1.642   0.680   3.889 -1.1670 -0.9872 -0.5705
 8767TIP3   OH247715   5.207   5.341  12.107 -0.6276  0.4805 -0.1661
 8767TIP3    H147716   5.183   5.419  12.158  0.5251  0.5495  0.2960
 8767TIP3    H247717   5.294   5.361  12.072  0.0051 -0.8725  0.5530
 8768TIP3   OH247718   5.252   0.226   3.043 -0.1355 -0.1952  0.0478
 8768TIP3    H147719   5.316   0.262   3.105 -1.1532 -0.5833  1.3788
 8768TIP3    H247720   5.224   0.144   3.083 -0.8107 -0.4701 -0.9543
 8769TIP3   OH247721   4.345   6.147  14.593  0.4632  0.0322 -0.2482
 8769TIP3    H147722   4.250   6.134  14.594  0.4468  0.1739  0.5682
 8769TIP3    H247723   4.359   6.213  14.525  0.3210 -2.3984 -2.7903
 8770TIP3   OH247724   4.550   1.710   5.501 -0.5831 -0.4188  1.1496
 8770TIP3    H147725   4.487   1.776   5.530 -1.2736  0.1222 -1.3956
 8770TIP3    H247726   4.496   1.634   5.478 -0.1785 -0.4454  0.2632
 8771TIP3   OH247727   2.644   3.736  16.389 -0.0863 -0.0545 -0.3911
 8771TIP3    H147728   2.558   3.762  16.356  0.4672 -0.1677 -1.9973
 8771TIP3    H247729   2.668   3.806  16.451 -1.2120  0.0949 -0.0971
 8772TIP3   OH247730   5.215   2.726  12.159  0.2860  0.1660 -0.5462
 8772TIP3    H147731   5.264   2.707  12.079 -1.2300 -0.5415 -1.3496
 8772TIP3    H247732   5.230   2.820  12.174  0.9056  0.2245 -1.4378
 8773TIP3   OH247733   2.339   1.221  11.829  0.2298 -0.3898  0.7656
 8773TIP3    H147734   2.295   1.306  11.824  1.5823  0.3206  0.2814
 8773TIP3    H247735   2.269   1.157  11.822 -0.9392  0.6679  2.1020
 8774TIP3   OH247736   2.978   6.756  17.084  0.3834  0.0113 -0.6499
 8774TIP3    H147737   2.896   6.712  17.065  0.9122 -0.0631 -2.9902
 8774TIP3    H247738   2.956   6.817  17.155 -1.4441 -0.6639 -0.5817
 8775TIP3   OH247739   2.065   1.514  10.953  0.3244 -0.0704  0.2939
 8775TIP3    H147740   2.042   1.606  10.942 -0.2181 -0.3510 -1.1055
 8775TIP3    H247741   2.118   1.493  10.877  1.9205 -0.4914  1.4895
 8776TIP3   OH247742   4.930   4.685  13.425 -0.3415  0.0234 -0.2329
 8776TIP3    H147743   4.931   4.644  13.339  0.3569  0.7587 -0.5845
 8776TIP3    H247744   5.021   4.708  13.442 -0.4807 -0.0632  0.6843
 8777TIP3   OH247745   6.297   4.284   6.520  0.5538 -0.5655 -0.2616
 8777TIP3    H147746   6.213   4.256   6.484  1.0820 -1.0599 -1.1208
 8777TIP3    H247747   6.276   4.313   6.609 -0.2659 -2.2926  0.1535
 8778TIP3   OH247748   5.221   1.729  16.489 -0.3995 -0.0049 -0.9129
 8778TIP3    H147749   5.282   1.771  16.429  0.3467  1.4167  0.7665
 8778TIP3    H247750   5.252   1.638  16.495  0.8316  0.3965 -1.0127
 8779TIP3   OH247751   2.926   0.047   6.124 -0.1968 -0.4593  0.3546
 8779TIP3    H147752   3.018   0.027   6.144 -0.3293 -1.0754  0.3589
 8779TIP3    H247753   2.890   0.078   6.207  0.4640  1.5864 -0.0586
 8780TIP3   OH247754   4.278   2.062   0.652 -0.0385 -0.1317 -0.7004
 8780TIP3    H147755   4.244   1.990   0.599  0.5342  0.9097 -2.5524
 8780TIP3    H247756   4.227   2.057   0.734  0.0537 -2.6467 -0.7216
 8781TIP3   OH247757   0.828   2.304   4.905 -0.0708 -0.0475 -0.3864
 8781TIP3    H147758   0.838   2.215   4.872  1.0339 -0.5336  1.1386
 8781TIP3    H247759   0.734   2.320   4.905 -0.2346 -0.9112 -1.3904
 8782TIP3   OH247760   3.511   2.196  16.363 -0.4509 -0.2173  0.1462
 8782TIP3    H147761   3.547   2.215  16.276 -0.6408  0.6677  0.2554
 8782TIP3    H247762   3.557   2.256  16.421 -0.0137 -1.1009  0.7372
 8783TIP3   OH247763   0.770   1.643  15.652  0.5427 -0.3785 -0.2313
 8783TIP3    H147764   0.693   1.592  15.675 -0.0668  0.5530 -0.1428
 8783TIP3    H247765   0.844   1.587  15.675 -0.0674 -0.5521  1.4524
 8784TIP3   OH247766   5.054   0.548   3.909  0.8755  0.4712 -0.3151
 8784TIP3    H147767   5.149   0.545   3.916  0.7424 -0.3914  2.2091
 8784TIP3    H247768   5.025   0.586   3.992 -1.0383 -2.6200  0.6298
 8785TIP3   OH247769   2.196   6.234  15.538 -0.0990 -0.2467 -0.3757
 8785TIP3    H147770   2.154   6.164  15.587  0.8884 -0.3753  0.3160
 8785TIP3    H247771   2.274   6.194  15.501  0.3113  0.4019 -0.2264
 8786TIP3   OH247772   4.563   1.870  15.263 -0.0002  0.0948  0.0068
 8786TIP3    H147773   4.648   1.828  15.274 -0.5454 -1.0969 -0.1624
 8786TIP3    H247774   4.568   1.913  15.178 -0.2807 -1.8280 -1.0377
 8787TIP3   OH247775   0.834   4.450  16.739 -0.3553  0.0700  0.0601
 8787TIP3    H147776   0.889   4.504  16.682  0.5518 -0.3203  0.5485
 8787TIP3    H247777   0.797   4.512  16.802 -0.6378  0.3650 -0.3895
 8788TIP3   OH247778   4.516   3.779  10.788  0.5573 -0.4850  0.5646
 8788TIP3    H147779   4.483   3.754  10.874  1.0733 -0.4085  0.7900
 8788TIP3    H247780   4.441   3.819  10.744 -0.1524 -1.9562  0.3757
 8789TIP3   OH247781   2.378   6.553  13.970  0.1228  0.0941 -0.1724
 8789TIP3    H147782   2.374   6.504  14.053  0.9648  0.0905 -0.1258
 8789TIP3    H247783   2.460   6.526  13.930 -0.1913  0.2383 -0.9345
 8790TIP3   OH247784   5.867   3.259  14.973  0.0158 -0.4723 -0.0630
 8790TIP3    H147785   5.837   3.223  14.890 -0.5226 -0.1744 -0.0036
 8790TIP3    H247786   5.902   3.184  15.021 -0.7536 -0.8471 -0.0861
 8791TIP3   OH247787   3.537   1.837  12.600 -0.5131  0.4107  0.6269
 8791TIP3    H147788   3.476   1.793  12.659 -1.2192 -1.6674 -1.4820
 8791TIP3    H247789   3.483   1.897  12.549 -0.3575  0.3829  0.4271
 8792TIP3   OH247790   3.459   4.534   2.314 -0.1675 -0.0489  0.1165
 8792TIP3    H147791   3.529   4.600   2.318  0.4303 -0.7330  1.2210
 8792TIP3    H247792   3.439   4.514   2.405 -3.4835  1.8323 -0.0459
 8793TIP3   OH247793   4.385   5.839   2.631 -0.3903  0.1445 -0.4540
 8793TIP3    H147794   4.428   5.891   2.699 -2.1108 -0.1362  0.9273
 8793TIP3    H247795   4.300   5.881   2.619 -1.0541 -1.2020 -0.6980
 8794TIP3   OH247796   6.178   1.230   1.664 -0.3691  0.1185 -0.5219
 8794TIP3    H147797   6.256   1.276   1.692 -1.0053  1.5335 -0.9987
 8794TIP3    H247798   6.181   1.147   1.712  1.9409 -0.3403 -1.3327
 8795TIP3   OH247799   5.692   6.328  17.234 -0.5214 -0.6323  0.5462
 8795TIP3    H147800   5.598   6.340  17.220 -0.1929  3.2777  0.6650
 8795TIP3    H247801   5.714   6.389  17.304  2.1177 -1.5109  0.5960
 8796TIP3   OH247802   1.643   5.072   0.952 -0.1364  0.5910 -0.3233
 8796TIP3    H147803   1.611   4.989   0.988  0.5997  0.5366  0.2300
 8796TIP3    H247804   1.675   5.120   1.028  1.8204  0.3149 -0.9345
 8797TIP3   OH247805   2.723   0.796   0.801  0.0586  0.1317  0.7643
 8797TIP3    H147806   2.723   0.701   0.793  1.6463 -0.0642  2.3171
 8797TIP3    H247807   2.662   0.814   0.872 -2.4927  0.5787 -1.4187
 8798TIP3   OH247808   1.327   5.527  15.377 -0.2532  0.0982  0.0829
 8798TIP3    H147809   1.249   5.549  15.325  1.7286  0.7614 -2.9316
 8798TIP3    H247810   1.349   5.438  15.350 -1.1602 -0.9811  2.6672
 8799TIP3   OH247811   2.989   1.684   2.278 -0.0915 -0.6451  0.1127
 8799TIP3    H147812   2.932   1.619   2.318 -0.8285  0.0412  0.2110
 8799TIP3    H247813   3.074   1.670   2.319 -0.9990  0.5714  2.6224
 8800TIP3   OH247814   1.035   5.678   3.235 -0.3520 -0.2886 -0.2569
 8800TIP3    H147815   1.121   5.694   3.196  0.9669 -0.9900  2.1558
 8800TIP3    H247816   1.007   5.594   3.199  0.3863 -0.4814 -0.3981
 8801TIP3   OH247817   1.373   4.458   3.686 -0.1066  0.7546  0.0581
 8801TIP3    H147818   1.351   4.442   3.594 -1.9568  1.1089  0.3910
 8801TIP3    H247819   1.408   4.547   3.688 -1.0275  1.1365 -0.1876
 8802TIP3   OH247820   5.302   1.325  13.606  0.1933  0.0680  0.3402
 8802TIP3    H147821   5.211   1.309  13.583  0.5644  0.2950 -1.4705
 8802TIP3    H247822   5.337   1.239  13.627 -0.3983 -0.0285  0.9869
 8803TIP3   OH247823   6.251   1.595  14.035  0.3286  0.2599 -0.2911
 8803TIP3    H147824   6.314   1.589  13.963  0.1852  1.4834 -0.5467
 8803TIP3    H247825   6.263   1.514  14.085  1.5893  0.1434 -0.7509
 8804TIP3   OH247826   6.528   0.134  17.242 -0.1101 -0.1448  0.1631
 8804TIP3    H147827   6.447   0.159  17.285 -0.5012 -0.8559 -0.1420
 8804TIP3    H247828   6.508   0.051  17.199  0.6814 -0.1636 -0.1943
 8805TIP3   OH247829   3.624   2.157  14.581  0.4550 -0.5910  0.3214
 8805TIP3    H147830   3.681   2.094  14.625  0.4794 -0.1303  0.9524
 8805TIP3    H247831   3.550   2.168  14.641  0.0714 -0.6055 -0.1445
 8806TIP3   OH247832   0.985   4.916   5.290 -0.4876 -0.1223  0.1034
 8806TIP3    H147833   1.021   4.991   5.242 -2.5417  1.6510  1.1633
 8806TIP3    H247834   0.890   4.923   5.276 -0.7789 -2.1646  0.7938
 8807TIP3   OH247835   1.693   5.628  14.182  0.2758 -0.6787  0.0986
 8807TIP3    H147836   1.656   5.712  14.206 -1.6890 -0.5036 -3.0001
 8807TIP3    H247837   1.645   5.564  14.234  0.0372 -0.0323  0.6686
 8808TIP3   OH247838   0.781   3.876   0.108  0.3809 -0.3352  0.2086
 8808TIP3    H147839   0.847   3.940   0.080 -1.3183  0.7007 -1.6952
 8808TIP3    H247840   0.803   3.796   0.061  1.0308 -0.3987  0.6129
 8809TIP3   OH247841   1.941   5.232  11.137 -0.1704 -0.1717 -0.1504
 8809TIP3    H147842   2.016   5.280  11.103 -1.0141  1.4410  0.1566
 8809TIP3    H247843   1.915   5.173  11.066  0.1006  0.7784 -1.0550
 8810TIP3   OH247844   5.310   6.436  11.451  0.0111 -0.1169 -0.2789
 8810TIP3    H147845   5.399   6.460  11.476  0.0334 -0.8347  0.3908
 8810TIP3    H247846   5.272   6.517  11.417  0.5273  0.5087  0.5861
 8811TIP3   OH247847   6.197   2.883  10.512  0.0444  0.7542 -0.5544
 8811TIP3    H147848   6.268   2.820  10.501 -1.4945 -0.6764 -3.3460
 8811TIP3    H247849   6.200   2.907  10.605  2.5552 -1.1455 -0.0487
 8812TIP3   OH247850   0.960   1.223  14.538  0.1105  0.1885  0.3377
 8812TIP3    H147851   1.053   1.241  14.552 -0.2090  0.8890  1.7335
 8812TIP3    H247852   0.918   1.244  14.621 -1.0269 -2.2747  0.4691
 8813TIP3   OH247853   3.868   5.223   4.751  0.2483 -0.1226  0.2019
 8813TIP3    H147854   3.926   5.297   4.767 -0.0362 -0.0393  0.8780
 8813TIP3    H247855   3.894   5.190   4.665  1.3103 -0.1059  0.5048
 8814TIP3   OH247856   6.260   2.448   5.664  0.4159  0.3715 -0.2481
 8814TIP3    H147857   6.346   2.453   5.706  0.4449 -0.2795 -0.2144
 8814TIP3    H247858   6.230   2.359   5.683 -0.2437  0.5797 -0.2989
 8815TIP3   OH247859   2.555   2.414  11.692 -0.0460  0.3995 -0.1311
 8815TIP3    H147860   2.608   2.366  11.628 -0.3581 -0.1155 -0.0082
 8815TIP3    H247861   2.616   2.435  11.763  0.1893  0.5619 -0.3770
 8816TIP3   OH247862   5.477   5.837   0.962 -0.3478 -0.6321 -0.5290
 8816TIP3    H147863   5.468   5.758   0.909  0.0954 -2.0312  1.3697
 8816TIP3    H247864   5.387   5.859   0.988 -0.5522 -0.0190 -1.6824
 8817TIP3   OH247865   6.410   5.263   2.392 -0.1884  0.0106  0.1101
 8817TIP3    H147866   6.424   5.181   2.438 -0.5471 -0.4651 -0.6129
 8817TIP3    H247867   6.333   5.247   2.337 -0.4384  0.9186  0.1798
 8818TIP3   OH247868   5.112   4.952   4.441 -0.7773 -0.2317 -0.2910
 8818TIP3    H147869   5.129   4.977   4.532  1.0609 -0.2469 -0.5756
 8818TIP3    H247870   5.174   5.005   4.390  0.1555 -2.1747 -1.2794
 8819TIP3   OH247871   5.576   0.608  12.437 -0.5215  0.2846  0.0622
 8819TIP3    H147872   5.655   0.633  12.485 -1.0424  0.8100  0.6626
 8819TIP3    H247873   5.552   0.686  12.387  0.6764 -0.6038 -2.0263
 8820TIP3   OH247874   5.932   3.684  16.231  0.0891  0.3656 -0.1451
 8820TIP3    H147875   6.004   3.660  16.289  1.4842  0.4568 -1.7671
 8820TIP3    H247876   5.900   3.600  16.196 -0.5206  0.3366  0.4552
 8821TIP3   OH247877   4.077   5.398   4.766  0.0092 -0.3553 -0.0374
 8821TIP3    H147878   4.139   5.352   4.710  1.3600 -1.1021  1.9656
 8821TIP3    H247879   4.124   5.475   4.797 -0.5180 -0.2252  0.4709
 8822TIP3   OH247880   4.479   0.636   3.473  0.0591 -0.0672 -0.5946
 8822TIP3    H147881   4.429   0.597   3.545  1.2408 -0.6017 -0.0285
 8822TIP3    H247882   4.530   0.563   3.438  0.7989  0.5523 -0.8385
 8823TIP3   OH247883   3.308   0.601  16.608 -0.2013 -0.2678 -0.4861
 8823TIP3    H147884   3.213   0.596  16.614 -0.3057 -1.3850 -2.2186
 8823TIP3    H247885   3.325   0.674  16.549  0.0466  0.1997  0.1537
 8824TIP3   OH247886   0.180   4.538  11.726 -0.4124  0.0063  0.4418
 8824TIP3    H147887   0.129   4.603  11.775 -0.4533  0.1885  0.1562
 8824TIP3    H247888   0.118   4.467  11.710  0.1556 -1.0456  2.5379
 8825TIP3   OH247889   4.166   5.327   4.220 -0.1544  0.1398  0.0241
 8825TIP3    H147890   4.202   5.246   4.183 -1.0935 -0.7980  1.1188
 8825TIP3    H247891   4.197   5.395   4.160 -1.0501 -1.2407 -2.1173
 8826TIP3   OH247892   5.062   0.486   0.747 -0.2780 -0.3256  0.3955
 8826TIP3    H147893   5.039   0.406   0.793 -0.3460 -0.3950  0.2417
 8826TIP3    H247894   5.133   0.524   0.799 -0.5663 -0.2426  0.7304
 8827TIP3   OH247895   2.483   6.439  16.636  0.1573  0.5356 -0.1145
 8827TIP3    H147896   2.396   6.424  16.673  1.1110 -0.2931  1.9290
 8827TIP3    H247897   2.484   6.532  16.615 -1.2482  0.5369 -0.2865
 8828TIP3   OH247898   2.208   0.985   2.924 -0.0300 -0.0784 -0.1783
 8828TIP3    H147899   2.155   0.978   2.844  0.3360 -0.2030 -0.4109
 8828TIP3    H247900   2.294   0.953   2.898  0.1094 -0.0471  0.2499
 8829TIP3   OH247901   5.618   6.605   4.392  0.3646  0.4382  0.2765
 8829TIP3    H147902   5.601   6.513   4.373  0.1672 -0.0326  2.5394
 8829TIP3    H247903   5.531   6.645   4.397  0.3840  0.4058  0.8771
 8830TIP3   OH247904   6.705   5.446   1.503  0.3784  0.3043 -0.0005
 8830TIP3    H147905   6.753   5.514   1.456  0.2422 -0.1455 -0.8115
 8830TIP3    H247906   6.767   5.415   1.569  1.3532 -0.4978 -1.2451
 8831TIP3   OH247907   1.271   2.065   3.968  0.2079 -0.0047  0.1242
 8831TIP3    H147908   1.206   2.135   3.968 -0.1766 -0.3479  0.6851
 8831TIP3    H247909   1.220   1.985   3.961  0.7457 -0.1922 -2.3231
 8832TIP3   OH247910   5.252   1.394   3.171  0.4358 -0.4680  0.4939
 8832TIP3    H147911   5.235   1.301   3.154 -1.8843  0.1755 -1.2370
 8832TIP3    H247912   5.211   1.439   3.097 -0.0203  2.0298  2.1675
 8833TIP3   OH247913   0.030   6.262   2.530  0.4462  0.6070  0.2391
 8833TIP3    H147914   0.006   6.261   2.623 -1.2864 -2.3771 -0.1183
 8833TIP3    H247915   0.123   6.237   2.529 -0.1527 -2.0129  1.1669
 8834TIP3   OH247916   2.955   3.025   4.514  0.1334  0.4052  0.0537
 8834TIP3    H147917   2.910   3.091   4.567 -0.5316  1.0178 -1.2168
 8834TIP3    H247918   3.007   3.076   4.451  1.1980 -0.2983  0.3386
 8835TIP3   OH247919   4.651   5.007   4.228 -0.0947  0.3832  0.7030
 8835TIP3    H147920   4.659   4.981   4.320 -0.5645 -1.3313  0.2954
 8835TIP3    H247921   4.738   5.041   4.205  0.0293  0.8263  1.7701
 8836TIP3   OH247922   5.255   1.159   2.765  0.7979  0.0574  0.2566
 8836TIP3    H147923   5.328   1.207   2.804  0.7502 -0.3054  0.8040
 8836TIP3    H247924   5.180   1.218   2.772  0.3737 -0.6755  2.3735
 8837TIP3   OH247925   2.330   2.358   4.207  0.6268 -0.8456 -0.3561
 8837TIP3    H147926   2.409   2.392   4.249  0.0020 -0.7034  0.7428
 8837TIP3    H247927   2.287   2.435   4.171  1.3706 -1.0183 -1.6362
 8838TIP3   OH247928   4.500   3.866   2.494  0.2128 -1.0965 -0.0679
 8838TIP3    H147929   4.565   3.908   2.437 -1.9053  1.9496 -0.4619
 8838TIP3    H247930   4.416   3.893   2.459 -1.3152 -3.5872  1.3909
 8839TIP3   OH247931   0.392   1.185   4.925 -0.0674  0.2200  0.2281
 8839TIP3    H147932   0.334   1.146   4.992  0.1314 -0.0720  0.2333
 8839TIP3    H247933   0.456   1.116   4.906 -1.3221 -0.4785 -1.7604
 8840TIP3   OH247934   1.126   3.568   3.557 -0.3365  0.3884 -0.7467
 8840TIP3    H147935   1.138   3.547   3.650 -0.2867 -0.9329 -1.0411
 8840TIP3    H247936   1.057   3.635   3.557  0.5450  1.3475  0.3133
 8841TIP3   OH247937   5.880   4.450  13.553  0.1782  0.3903 -0.0621
 8841TIP3    H147938   5.872   4.546  13.556  1.0571  0.5700 -2.0114
 8841TIP3    H247939   5.940   4.429  13.625 -1.1315  1.1137  1.3015
 8842TIP3   OH247940   4.999   3.774   5.600  0.2084 -0.1055 -0.1387
 8842TIP3    H147941   5.072   3.713   5.613 -0.6787 -0.8666  1.4538
 8842TIP3    H247942   4.926   3.719   5.574  0.2882  0.7160 -2.3041
 8843TIP3   OH247943   5.542   6.504  15.770 -0.0986 -0.5922  0.3677
 8843TIP3    H147944   5.512   6.494  15.861  0.8517 -1.0208  0.6425
 8843TIP3    H247945   5.628   6.544  15.778 -0.3597  0.1372 -0.3952
 8844TIP3   OH247946   4.419   1.430   1.055 -1.0100 -0.2295 -0.0128
 8844TIP3    H147947   4.396   1.440   0.963  1.6818 -0.2183 -0.7427
 8844TIP3    H247948   4.357   1.364   1.088  0.2854 -3.0567 -2.7869
 8845TIP3   OH247949   1.604   2.208  11.543  0.6701 -0.5067  0.6744
 8845TIP3    H147950   1.524   2.158  11.525 -0.2227 -0.2619  3.4768
 8845TIP3    H247951   1.624   2.188  11.635  1.4325  2.6256  1.3049
 8846TIP3   OH247952   5.592   5.326  13.615 -0.0845  0.0529 -0.5318
 8846TIP3    H147953   5.625   5.347  13.703 -0.8743 -2.5856  0.5249
 8846TIP3    H247954   5.653   5.259  13.583 -0.5328  0.0805 -1.4548
 8847TIP3   OH247955   3.750   0.177   1.644 -0.1219 -0.2839  0.3839
 8847TIP3    H147956   3.704   0.136   1.571 -3.0385  0.9718  1.3687
 8847TIP3    H247957   3.818   0.113   1.668  0.2148 -1.2234 -2.6279
 8848TIP3   OH247958   5.637   0.851   1.110 -0.1451  0.3447 -0.1111
 8848TIP3    H147959   5.590   0.878   1.189 -0.5811 -1.0380  0.1367
 8848TIP3    H247960   5.703   0.789   1.141 -0.6534 -0.5988 -0.8726
 8849TIP3   OH247961   4.710   4.487   1.771  0.0648  0.0524 -0.5318
 8849TIP3    H147962   4.689   4.397   1.793  0.0588  0.5728  1.8065
 8849TIP3    H247963   4.626   4.533   1.773  0.2092  0.3281 -0.6402
 8850TIP3   OH247964   2.663   3.423  13.031 -0.5839 -0.2578 -0.6039
 8850TIP3    H147965   2.711   3.464  12.959  2.4614 -1.3442  0.6373
 8850TIP3    H247966   2.657   3.491  13.098  2.0993 -0.8645  0.4031
 8851TIP3   OH247967   6.416   2.766  16.071 -0.1687  0.1104 -0.0044
 8851TIP3    H147968   6.401   2.803  16.158 -1.6300  0.0330 -0.1860
 8851TIP3    H247969   6.496   2.715  16.079  0.8736  1.7920  0.7338
 8852TIP3   OH247970   5.178   1.830   1.057 -0.1172 -0.2251 -0.1417
 8852TIP3    H147971   5.140   1.877   1.131  0.6094  0.4548 -0.1928
 8852TIP3    H247972   5.268   1.859   1.053  0.8438 -2.7859  0.7973
 8853TIP3   OH247973   1.923   2.906   2.467  0.2397  0.3392  0.4277
 8853TIP3    H147974   1.972   2.965   2.525  2.2195  1.2350 -1.9792
 8853TIP3    H247975   1.989   2.844   2.435 -1.3093 -1.6657  0.9503
 8854TIP3   OH247976   1.753   1.199   1.401  0.4493 -0.6031 -0.3068
 8854TIP3    H147977   1.726   1.109   1.417 -0.4463 -0.1955  0.5960
 8854TIP3    H247978   1.848   1.194   1.390  0.2357 -1.8590 -1.9888
 8855TIP3   OH247979   6.247   5.489   4.639  0.2893 -0.3808 -0.0175
 8855TIP3    H147980   6.301   5.428   4.690  2.5584  1.2717 -0.3088
 8855TIP3    H247981   6.227   5.441   4.559  0.8467 -1.2404  0.3428
 8856TIP3   OH247982   0.760   1.882   2.314 -0.0574  0.5021 -0.3567
 8856TIP3    H147983   0.736   1.916   2.228  0.7240  1.9848 -0.0287
 8856TIP3    H247984   0.839   1.830   2.299 -0.3454  0.1460 -0.6411
 8857TIP3   OH247985   5.037   2.838  13.183 -0.6246  0.1588  0.0878
 8857TIP3    H147986   4.951   2.815  13.149  0.0028 -2.1984 -0.0646
 8857TIP3    H247987   5.091   2.850  13.104 -0.7014  1.2585  0.1884
 8858TIP3   OH247988   4.170   3.897   0.920  0.1859  0.1647  0.3401
 8858TIP3    H147989   4.242   3.953   0.893 -0.2667  1.5204  1.7828
 8858TIP3    H247990   4.142   3.852   0.840  1.2563  1.2087 -0.6391
 8859TIP3   OH247991   0.181   4.181   3.494 -0.5598 -0.3359  0.6782
 8859TIP3    H147992   0.268   4.175   3.456 -0.5413 -0.4390  0.7375
 8859TIP3    H247993   0.149   4.091   3.494 -0.4695 -0.3659  1.1253
 8860TIP3   OH247994   3.253   4.824   5.177 -0.0699  0.6710  0.0773
 8860TIP3    H147995   3.347   4.838   5.179  0.1899 -0.8722  0.2410
 8860TIP3    H247996   3.221   4.882   5.108  1.2799 -0.1669 -1.3297
 8861TIP3   OH247997   3.799   6.230   0.207  0.0511  0.7995  0.2568
 8861TIP3    H147998   3.774   6.255   0.118 -1.4709  2.0352  0.9816
 8861TIP3    H247999   3.895   6.230   0.205  0.0571 -0.2519 -1.6327
 8862TIP3   OH248000   2.605   0.094   4.974  0.1816  0.2274 -0.2281
 8862TIP3    H148001   2.673   0.093   5.042 -1.5320  0.6849  1.5919
 8862TIP3    H248002   2.606   0.005   4.938  1.3340  0.0579  0.1863
 8863TIP3   OH248003   1.972   3.639  14.288 -0.6805 -0.2072  0.4872
 8863TIP3    H148004   1.987   3.575  14.218  1.7486 -0.5943  1.2384
 8863TIP3    H248005   2.042   3.704  14.276 -1.7468  1.0970  1.0743
 8864TIP3   OH248006   1.208   0.635   5.504  0.5262  0.3749  0.1860
 8864TIP3    H148007   1.284   0.641   5.446  2.2682  2.4758  2.4589
 8864TIP3    H248008   1.236   0.578   5.575 -0.6328 -0.1073  0.2788
 8865TIP3   OH248009   1.993   1.322   1.689 -0.2962 -0.1673 -0.3312
 8865TIP3    H148010   2.014   1.402   1.642  2.6140 -0.3114  0.5223
 8865TIP3    H248011   2.003   1.252   1.624  0.8736 -0.1161 -0.2334
 8866TIP3   OH248012   0.200   3.370   3.833  0.0943 -0.1968  0.5485
 8866TIP3    H148013   0.214   3.286   3.789 -0.1524 -0.2560  0.5770
 8866TIP3    H248014   0.270   3.426   3.802 -0.7721  0.1484 -0.8800
 8867TIP3   OH248015   2.594   2.325   2.080  0.0067 -0.0571 -0.5282
 8867TIP3    H148016   2.544   2.332   1.999 -1.6526 -0.6903  0.4023
 8867TIP3    H248017   2.651   2.402   2.080 -0.8412  0.5975 -1.6900
 8868TIP3   OH248018   0.349   5.070   4.944  0.1721  0.2083 -0.1473
 8868TIP3    H148019   0.303   4.992   4.974 -1.2858  1.0925  0.0058
 8868TIP3    H248020   0.424   5.079   5.003 -0.9586  0.2268  1.3412
 8869TIP3   OH248021   1.711   1.442  16.558  0.3956 -0.0211  0.9614
 8869TIP3    H148022   1.620   1.468  16.572  0.0921 -1.2929  1.5232
 8869TIP3    H248023   1.758   1.524  16.546 -1.0865  0.5805 -1.1059
 8870TIP3   OH248024   3.439   6.657   4.202  0.2838 -0.5393 -0.0154
 8870TIP3    H148025   3.414   6.580   4.254  1.8743 -1.7849 -0.9941
 8870TIP3    H248026   3.466   6.621   4.118 -1.8201  1.3879 -1.6296
 8871TIP3   OH248027   4.220   4.561   2.354 -0.4913 -0.1985  0.3279
 8871TIP3    H148028   4.158   4.627   2.323 -0.1677 -0.6168 -1.3148
 8871TIP3    H248029   4.245   4.512   2.275  1.7775 -0.1756  0.9599
 8872TIP3   OH248030   5.280   5.369   3.937  0.4533  0.3467  0.2961
 8872TIP3    H148031   5.291   5.275   3.951 -1.3004  0.2648  1.4645
 8872TIP3    H248032   5.211   5.376   3.871 -0.4410  0.7737  1.2367
 8873TIP3   OH248033   2.384   2.766  12.940 -0.1594  0.6466 -0.0958
 8873TIP3    H148034   2.430   2.722  12.868  0.6347 -0.4737  1.0653
 8873TIP3    H248035   2.334   2.696  12.983 -2.1507  1.6433 -0.6713
 8874TIP3   OH248036   2.557   0.106   2.613  0.3226  0.3641 -0.3577
 8874TIP3    H148037   2.630   0.091   2.554 -0.5650 -1.0155 -1.1442
 8874TIP3    H248038   2.567   0.039   2.681  0.9088  1.4606  0.6869
 8875TIP3   OH248039   6.752   1.105   1.313 -0.0245  0.6614  0.5166
 8875TIP3    H148040   6.783   1.065   1.232 -0.0193  1.3603  0.1666
 8875TIP3    H248041   6.820   1.167   1.337 -0.5816  1.3331  0.3969
 8876TIP3   OH248042   5.483   2.718  12.749  0.4967  0.5148  0.7009
 8876TIP3    H148043   5.535   2.731  12.827  2.3409  0.6321 -0.4898
 8876TIP3    H248044   5.503   2.793  12.693  0.5424 -0.3903 -0.5593
 8877TIP3   OH248045   1.944   0.523   3.544 -1.0541  0.1532  0.0184
 8877TIP3    H148046   2.034   0.489   3.546 -0.7317  0.8693 -1.0224
 8877TIP3    H248047   1.910   0.506   3.632  0.4694  0.8434  0.7873
 8878TIP3   OH248048   0.435   2.148  12.342  0.0845  0.9905 -0.3539
 8878TIP3    H148049   0.415   2.100  12.422 -0.9576  0.5993 -0.8286
 8878TIP3    H248050   0.463   2.080  12.280 -2.3826  0.8010 -1.3488
 8879TIP3   OH248051   5.902   4.240   2.838 -0.3714  0.0560  0.4305
 8879TIP3    H148052   5.994   4.261   2.819 -0.0123 -2.5968 -1.2257
 8879TIP3    H248053   5.854   4.274   2.763 -0.1455 -2.0459 -0.7625
 8880TIP3   OH248054   4.531   4.544  11.158 -0.4981 -0.6128  0.4347
 8880TIP3    H148055   4.565   4.632  11.142 -1.0317 -0.4812 -0.0282
 8880TIP3    H248056   4.439   4.559  11.183 -0.4561 -1.0077  0.8398
 8881TIP3   OH248057   0.005   5.133  11.994 -0.2095  0.1984 -0.2877
 8881TIP3    H148058  -0.001   5.089  11.909 -1.0086  0.8246 -0.5630
 8881TIP3    H248059  -0.027   5.068  12.056 -2.2830  0.6855 -0.7997
 8882TIP3   OH248060   1.842   2.581   1.986  0.5314 -0.4576  0.3478
 8882TIP3    H148061   1.871   2.662   1.943  0.5359 -1.3219 -1.3608
 8882TIP3    H248062   1.861   2.512   1.923 -2.1571 -1.4627  0.5251
 8883TIP3   OH248063   6.229   6.714   3.063  0.1945  0.1272 -0.1107
 8883TIP3    H148064   6.177   6.785   3.101  1.5094  0.9814  0.1693
 8883TIP3    H248065   6.235   6.649   3.133  0.3632  0.4937  0.2217
 8884TIP3   OH248066   6.038   5.112   4.310 -0.2953  0.3514 -0.3878
 8884TIP3    H148067   6.003   5.175   4.247 -0.0766  1.4641  0.5690
 8884TIP3    H248068   5.965   5.094   4.370  0.2472  1.3975  0.6256
 8885TIP3   OH248069   5.939   2.716   0.892 -0.2542 -0.1806 -0.7992
 8885TIP3    H148070   6.021   2.671   0.874  1.0639  0.8067  2.1467
 8885TIP3    H248071   5.950   2.802   0.851  0.8531  0.4646  0.7530
 8886TIP3   OH248072   3.018   5.033  16.593  0.8123  0.5005  0.1414
 8886TIP3    H148073   3.066   4.951  16.601 -1.9711 -1.2720 -0.0075
 8886TIP3    H248074   2.942   5.022  16.649 -0.0695  2.6849 -0.5129
 8887TIP3   OH248075   0.281   5.686  12.575  0.4508 -0.0340  0.2775
 8887TIP3    H148076   0.189   5.680  12.550  0.1726  0.5740  1.0965
 8887TIP3    H248077   0.280   5.731  12.660  1.3670 -1.7582  1.2568
 8888TIP3   OH248078   6.412   4.125  12.560 -0.2246  0.1105  0.4758
 8888TIP3    H148079   6.472   4.192  12.590 -0.6924  0.8823 -0.2874
 8888TIP3    H248080   6.325   4.161  12.577 -0.4819 -0.1418 -0.2536
 8889TIP3   OH248081   6.072   4.654  12.583 -0.1109 -0.0164  0.0451
 8889TIP3    H148082   6.095   4.650  12.676 -2.1377 -0.6766  0.5684
 8889TIP3    H248083   6.073   4.747  12.562  2.0773  0.0541  0.2167
 8890TIP3   OH248084   4.701   6.015  16.871  0.0297  0.3828  0.4629
 8890TIP3    H148085   4.756   5.937  16.879 -0.4640 -0.3648 -2.2752
 8890TIP3    H248086   4.749   6.083  16.917  2.5223 -0.5971 -0.4660
 8891TIP3   OH248087   0.526   5.655   0.071 -0.4246 -0.3702 -0.2005
 8891TIP3    H148088   0.517   5.610   0.156  0.2710  0.6640  0.4451
 8891TIP3    H248089   0.458   5.615   0.016  0.1576 -2.2034  0.3206
 8892TIP3   OH248090   6.223   2.507  11.007  0.0058 -0.0101  0.1963
 8892TIP3    H148091   6.317   2.499  10.989  0.5375 -0.5352  2.7831
 8892TIP3    H248092   6.199   2.592  10.971  0.7302 -1.0160 -3.0721
 8893TIP3   OH248093   4.011   4.519  11.559  0.1892  0.0190  0.2665
 8893TIP3    H148094   4.064   4.440  11.557  3.3423  1.9630 -0.2586
 8893TIP3    H248095   3.960   4.516  11.478 -0.0134 -1.6131  0.4367
 8894TIP3   OH248096   2.825   2.097   6.253  0.0102  0.2343 -0.4221
 8894TIP3    H148097   2.809   2.191   6.267  1.4804  0.6933 -1.6344
 8894TIP3    H248098   2.741   2.056   6.275 -0.5658  1.7768  0.4844
 8895TIP3   OH248099   5.381   2.508  12.353  0.6413 -0.3954  0.2625
 8895TIP3    H148100   5.305   2.458  12.323  0.0996  0.1701  0.6747
 8895TIP3    H248101   5.348   2.562  12.425  1.6663 -0.8908  1.1250
 8896TIP3   OH248102   4.747   2.800   1.610 -0.1075 -0.2301 -0.2702
 8896TIP3    H148103   4.655   2.773   1.604 -0.4741  0.5881  1.1150
 8896TIP3    H248104   4.763   2.850   1.529 -2.3001  3.5197  1.3399
 8897TIP3   OH248105   0.181   0.984   1.461  0.3566 -0.0340 -0.1263
 8897TIP3    H148106   0.149   0.965   1.549  1.2395  2.0841  0.7134
 8897TIP3    H248107   0.103   1.014   1.413  0.2921  1.2105  0.7056
 8898TIP3   OH248108   2.897   5.613   1.796  0.1804  0.2482  0.0860
 8898TIP3    H148109   2.932   5.592   1.709 -0.0803  1.6102 -0.3664
 8898TIP3    H248110   2.852   5.532   1.823  1.3115 -0.6067 -0.4906
 8899TIP3   OH248111   3.011   1.720  17.122  0.2695  0.2441 -0.1324
 8899TIP3    H148112   3.086   1.772  17.094  1.7790 -1.0335  1.3445
 8899TIP3    H248113   3.009   1.645  17.063  0.8915 -0.2947  0.5009
 8900TIP3   OH248114   4.408   0.604  10.496  0.2838 -0.1090  0.1441
 8900TIP3    H148115   4.454   0.651  10.427 -0.6579 -0.2958 -0.6261
 8900TIP3    H248116   4.364   0.672  10.547  0.4404 -0.0243  0.1673
 8901TIP3   OH248117   3.080   3.944  16.439 -0.1409  0.3957  0.6380
 8901TIP3    H148118   3.058   3.892  16.517 -1.1345 -0.7254 -0.3332
 8901TIP3    H248119   3.142   3.889  16.390 -0.7122  0.3880 -0.0983
 8902TIP3   OH248120   4.157   2.682   1.569 -0.1353 -0.0859  0.0658
 8902TIP3    H148121   4.073   2.707   1.608  1.0521  1.0394  2.0715
 8902TIP3    H248122   4.191   2.613   1.625  1.6387  1.6034  1.2202
 8903TIP3   OH248123   0.498   4.239   2.904  0.4094 -0.1745 -0.2840
 8903TIP3    H148124   0.478   4.202   2.818 -1.1841  1.4458 -0.6956
 8903TIP3    H248125   0.572   4.297   2.889 -0.0154  0.2873 -0.6503
 8904TIP3   OH248126   5.531   2.893   3.102  0.4482  0.0499  0.0013
 8904TIP3    H148127   5.451   2.940   3.126  1.1088  0.8638  0.6865
 8904TIP3    H248128   5.511   2.855   3.016 -0.8002 -0.0920  0.3242
 8905TIP3   OH248129   2.753   3.059  17.047 -0.0159  0.3542 -0.9606
 8905TIP3    H148130   2.658   3.049  17.059  0.0429  1.6417  1.0623
 8905TIP3    H248131   2.761   3.134  16.988 -0.2766  1.0665 -0.1160
 8906TIP3   OH248132   4.239   4.889   6.309 -0.6542  0.0462  0.3177
 8906TIP3    H148133   4.223   4.817   6.248 -0.2079 -0.3615  0.6857
 8906TIP3    H248134   4.226   4.852   6.396  1.3470 -0.0823  0.6091
 8907TIP3   OH248135   5.528   4.060  13.490  0.3289 -0.6344  0.2458
 8907TIP3    H148136   5.448   4.112  13.480  0.1233 -0.4247  2.4437
 8907TIP3    H248137   5.592   4.122  13.526  1.9742 -0.4479 -2.7513
 8908TIP3   OH248138   1.707   3.422   6.629  0.2951 -0.0193 -0.3899
 8908TIP3    H148139   1.613   3.442   6.625  0.5441  2.6480  2.5973
 8908TIP3    H248140   1.749   3.508   6.625  2.5489 -1.0698 -0.4218
 8909TIP3   OH248141   5.570   1.284   1.464 -0.0263 -0.5130  0.2790
 8909TIP3    H148142   5.506   1.228   1.508  0.2623 -2.7436 -1.9031
 8909TIP3    H248143   5.532   1.300   1.377  1.0225  0.7098  0.0145
 8910TIP3   OH248144   3.755   3.549  16.532 -0.1993 -0.0747  0.1215
 8910TIP3    H148145   3.743   3.572  16.624  0.1327  1.6840 -0.2420
 8910TIP3    H248146   3.824   3.483  16.533  0.0064  0.1360  1.1023
 8911TIP3   OH248147   1.215   1.766  17.052 -0.0848  0.4941  0.1895
 8911TIP3    H148148   1.171   1.719  16.981  0.3653 -1.7329  1.2832
 8911TIP3    H248149   1.308   1.761  17.030 -0.0507  1.1537  0.1753
 8912TIP3   OH248150   3.879   1.668   2.390  0.0567  0.3256  0.0810
 8912TIP3    H148151   3.888   1.657   2.295 -0.9567  2.0382 -0.2535
 8912TIP3    H248152   3.959   1.713   2.417  1.4842 -2.2639  0.5027
 8913TIP3   OH248153   4.886   6.202  14.997 -0.0505 -0.2367 -0.0184
 8913TIP3    H148154   4.876   6.176  15.088 -1.4711 -0.9609 -0.3512
 8913TIP3    H248155   4.800   6.187  14.958 -0.3059  2.6708 -0.8491
 8914TIP3   OH248156   5.330   1.765   4.580 -0.4832  0.5092  0.0004
 8914TIP3    H148157   5.415   1.759   4.625 -0.7767  1.7971  0.7818
 8914TIP3    H248158   5.302   1.674   4.571  0.7066  0.0869  0.2546
 8915TIP3   OH248159   3.302   0.241  16.303  0.2796 -0.2073  0.1310
 8915TIP3    H148160   3.396   0.242  16.286  0.6206  1.1102  1.7414
 8915TIP3    H248161   3.295   0.236  16.399 -1.3026 -0.8026  0.0180
 8916TIP3   OH248162   4.371   5.150   2.262  0.1250 -0.3640 -1.1769
 8916TIP3    H148163   4.315   5.227   2.254  0.4469 -0.0878 -0.8122
 8916TIP3    H248164   4.419   5.147   2.179 -0.2215 -0.4427 -1.3789
 8917TIP3   OH248165   0.934   1.043   2.875 -0.0720 -0.3275 -0.0739
 8917TIP3    H148166   0.855   1.011   2.832  0.2360 -2.1492  0.6044
 8917TIP3    H248167   0.966   1.113   2.819 -2.9606  1.5216  0.4119
 8918TIP3   OH248168   3.644   3.388  16.199 -0.4918 -0.0222  0.3142
 8918TIP3    H148169   3.649   3.481  16.219  1.6688 -0.1659  0.7545
 8918TIP3    H248170   3.651   3.345  16.284 -0.8107 -0.5894  0.0605
 8919TIP3   OH248171   0.721   0.194   5.513  0.0493 -0.1801  0.1689
 8919TIP3    H148172   0.789   0.202   5.580 -0.2613 -0.4430  0.5177
 8919TIP3    H248173   0.670   0.274   5.520 -1.1251 -1.0122  1.5195
 8920TIP3   OH248174   0.988   0.590   4.387  0.3091  0.2080  0.4979
 8920TIP3    H148175   0.965   0.653   4.455 -0.3591  1.0683 -0.4857
 8920TIP3    H248176   0.915   0.527   4.387  0.3479  0.1626  0.6252
 8921TIP3   OH248177   2.434   4.750  16.504 -0.4844 -0.3852 -0.2355
 8921TIP3    H148178   2.369   4.733  16.436  0.4462 -1.2118 -0.9295
 8921TIP3    H248179   2.382   4.780  16.579 -1.5378  0.3168 -1.2128
 8922TIP3   OH248180   3.797   0.944  11.354 -0.5435  0.0600 -0.0290
 8922TIP3    H148181   3.772   0.853  11.367  0.2831 -0.1886 -0.1345
 8922TIP3    H248182   3.737   0.993  11.410 -0.2262 -0.6419  0.9660
 8923TIP3   OH248183   0.747   4.336   6.541  0.4001 -0.9897 -0.0374
 8923TIP3    H148184   0.801   4.264   6.573  0.2427 -1.9392 -1.7656
 8923TIP3    H248185   0.658   4.299   6.538  0.2039 -0.5076 -0.3114
 8924TIP3   OH248186   4.587   0.530   2.356 -0.1372 -0.4520 -0.2783
 8924TIP3    H148187   4.610   0.597   2.420 -3.4343  0.9422 -0.3501
 8924TIP3    H248188   4.615   0.448   2.396 -1.1834  0.4527  2.5993
 8925TIP3   OH248189   2.669   6.019   6.036 -0.0386  0.0239 -0.6159
 8925TIP3    H148190   2.710   5.934   6.052  3.0002  1.7583  1.9025
 8925TIP3    H248191   2.726   6.062   5.973 -1.1479  0.4779 -1.3277
 8926TIP3   OH248192   3.675   6.580   5.801  0.2705 -0.0727  0.0113
 8926TIP3    H148193   3.606   6.642   5.823  0.6234 -0.4102  2.4214
 8926TIP3    H248194   3.738   6.630   5.750 -0.0296  1.2609  0.8966
 8927TIP3   OH248195   0.894   5.389  14.368 -0.6346 -1.2868  0.2454
 8927TIP3    H148196   0.804   5.363  14.351 -1.4944  0.8827  1.1504
 8927TIP3    H248197   0.940   5.371  14.286 -1.9325 -2.1497 -0.3320
 8928TIP3   OH248198   5.474   2.715   3.359  0.4401  0.3796 -0.4098
 8928TIP3    H148199   5.411   2.653   3.322  2.1113  0.4826 -3.7456
 8928TIP3    H248200   5.485   2.782   3.292  1.0854  2.6328  1.7811
 8929TIP3   OH248201   6.161   5.872  13.667 -0.0910  0.2208 -0.0927
 8929TIP3    H148202   6.197   5.784  13.675 -1.5434 -0.3353  0.7468
 8929TIP3    H248203   6.085   5.861  13.609 -0.8310  0.7159  0.7534
 8930TIP3   OH248204   3.782   0.914  15.002  0.4570  0.2498  0.1416
 8930TIP3    H148205   3.855   0.972  15.024  0.3463 -0.1791  1.7518
 8930TIP3    H248206   3.707   0.952  15.048 -0.6147  1.2161 -2.2191
 8931TIP3   OH248207   6.484   6.054  16.492  0.8131 -0.6475  0.3602
 8931TIP3    H148208   6.538   6.104  16.431 -1.5973  0.7569 -0.7923
 8931TIP3    H248209   6.423   6.118  16.528 -0.3665 -2.2019  1.2483
 8932TIP3   OH248210   0.388   1.161  16.424  0.2530  0.0782  0.0776
 8932TIP3    H148211   0.321   1.095  16.442 -1.2260  1.3681 -0.5693
 8932TIP3    H248212   0.387   1.218  16.500 -0.1727  0.7413 -0.4188
 8933TIP3   OH248213   3.629   5.513   0.886 -0.1793  0.2467  0.6610
 8933TIP3    H148214   3.534   5.523   0.883 -0.4836 -2.1097 -0.3241
 8933TIP3    H248215   3.651   5.474   0.802  1.6247  0.3915  1.0313
 8934TIP3   OH248216   1.084   6.110   0.322 -0.2819  0.2152  0.2449
 8934TIP3    H148217   1.011   6.163   0.291 -0.0913  0.6108  0.4663
 8934TIP3    H248218   1.136   6.170   0.377  1.0203  0.3668 -1.0974
 8935TIP3   OH248219   0.008   0.770   1.434 -0.2622  0.3998  0.5789
 8935TIP3    H148220   0.076   0.838   1.444  0.1047  0.1982 -0.4339
 8935TIP3    H248221   0.054   0.696   1.395 -0.8603 -0.1064  0.8239
 8936TIP3   OH248222   2.731   4.968   1.857 -0.0814 -0.0881  0.2302
 8936TIP3    H148223   2.685   5.048   1.884  1.3273  0.2853  1.6347
 8936TIP3    H248224   2.716   4.906   1.929 -0.9587 -1.0380 -0.7372
 8937TIP3   OH248225   1.063   0.751   1.467  0.6997 -0.0591  0.6973
 8937TIP3    H148226   0.969   0.767   1.469  0.7895  0.6441  0.0009
 8937TIP3    H248227   1.073   0.659   1.491 -0.2299 -0.3419  0.0477
 8938TIP3   OH248228   2.602   6.335  15.949 -0.0312 -0.1741 -0.1842
 8938TIP3    H148229   2.661   6.296  15.885 -0.7432  2.5937 -2.7433
 8938TIP3    H248230   2.653   6.339  16.029  1.5087 -2.2309 -0.9667
 8939TIP3   OH248231   3.515   0.259   0.756 -0.6592  0.1427  0.1131
 8939TIP3    H148232   3.457   0.186   0.735 -0.5517 -0.0378  0.4403
 8939TIP3    H248233   3.489   0.286   0.844 -0.8874  0.6829 -0.1133
 8940TIP3   OH248234   0.201   4.435   4.145 -0.3976  0.2573 -0.7876
 8940TIP3    H148235   0.146   4.440   4.223  0.6877 -1.2425  0.1269
 8940TIP3    H248236   0.141   4.414   4.074 -0.9646 -2.3707  0.3489
 8941TIP3   OH248237   6.022   3.063  15.712 -0.0478 -0.2704 -0.3255
 8941TIP3    H148238   5.926   3.063  15.712 -0.0568 -1.0334 -0.4605
 8941TIP3    H248239   6.045   2.973  15.691  0.7245  0.4209 -2.7272
 8942TIP3   OH248240   3.384   4.841  12.078 -0.3002  0.4574  0.3650
 8942TIP3    H148241   3.462   4.793  12.107 -0.7115  0.4080  1.4368
 8942TIP3    H248242   3.359   4.798  11.996 -0.4876 -1.0054  1.1454
 8943TIP3   OH248243   5.295   5.420  16.965 -0.4166 -0.0392  0.3438
 8943TIP3    H148244   5.273   5.442  17.056 -0.5124 -0.1366  0.3452
 8943TIP3    H248245   5.232   5.351  16.942 -0.5803  0.1851  0.1123
 8944TIP3   OH248246   2.304   4.898  12.003 -0.4757  0.3557 -0.5991
 8944TIP3    H148247   2.311   4.896  12.098 -1.7934 -0.2620 -0.4959
 8944TIP3    H248248   2.364   4.830  11.973 -1.1749 -0.5034 -0.1075
 8945TIP3   OH248249   4.188   6.047  17.303  0.0943  0.6215  0.6031
 8945TIP3    H148250   4.140   5.992  17.242  0.9346  0.5688 -0.0254
 8945TIP3    H248251   4.231   5.986  17.363  1.0589  0.5751 -0.1181
 8946TIP3   OH248252   1.616   5.704   3.048 -0.3446 -0.8946  0.5155
 8946TIP3    H148253   1.651   5.630   2.999  0.8250  0.0378 -0.1122
 8946TIP3    H248254   1.684   5.771   3.043 -1.9245  0.7615 -0.1449
 8947TIP3   OH248255   4.001   5.999   4.996  0.0759 -0.3210  0.2871
 8947TIP3    H148256   3.922   6.018   4.945  0.6463 -0.6640 -0.7452
 8947TIP3    H248257   3.987   6.045   5.079 -0.5517  0.8441 -0.4352
 8948TIP3   OH248258   6.736   4.266   3.303 -0.0358 -0.2820 -0.4337
 8948TIP3    H148259   6.779   4.230   3.381 -0.2368  0.8461  0.2307
 8948TIP3    H248260   6.808   4.298   3.249  0.0405  0.9302  0.3346
 8949TIP3   OH248261   4.889   4.918  15.188  0.4832  0.0249 -0.3479
 8949TIP3    H148262   4.827   4.986  15.162 -0.8334 -0.5968  1.0036
 8949TIP3    H248263   4.901   4.931  15.282  0.3822 -1.4701 -0.1081
 8950TIP3   OH248264   5.730   6.375  14.178  0.1631  0.4630  0.7559
 8950TIP3    H148265   5.679   6.454  14.198 -2.9506 -1.6913  2.0600
 8950TIP3    H248266   5.713   6.359  14.085  2.0775  2.0432  0.0543
 8951TIP3   OH248267   1.128   4.545   0.372 -0.2788 -0.0456  0.1454
 8951TIP3    H148268   1.222   4.527   0.371 -0.3987 -0.6934 -0.5769
 8951TIP3    H248269   1.087   4.460   0.390 -0.7492  0.1301 -0.0742
 8952TIP3   OH248270   0.764   4.134  11.956 -0.3795 -0.5108 -0.2310
 8952TIP3    H148271   0.808   4.157  12.038 -0.6782  3.0427 -0.9300
 8952TIP3    H248272   0.812   4.057  11.924  1.8902  0.0139  1.6203
 8953TIP3   OH248273   4.128   1.416   2.391 -0.1327 -0.1646 -0.0521
 8953TIP3    H148274   4.034   1.396   2.397 -0.2023  0.0431 -0.4269
 8953TIP3    H248275   4.133   1.511   2.400 -0.1776  0.0968 -2.3058
 8954TIP3   OH248276   1.224   6.432   2.310 -0.1075 -0.1414 -0.2118
 8954TIP3    H148277   1.252   6.464   2.224  0.0301  0.1162 -0.0711
 8954TIP3    H248278   1.128   6.433   2.306 -0.1041  0.1105 -0.2754
 8955TIP3   OH248279   1.757   4.643  10.726  0.6490  0.0759  1.3653
 8955TIP3    H148280   1.793   4.555  10.714 -0.5976 -0.1461 -1.5544
 8955TIP3    H248281   1.819   4.686  10.785  2.6172 -2.0082  0.9686
 8956TIP3   OH248282   4.629   0.925   3.066  0.1417 -0.5124 -0.1259
 8956TIP3    H148283   4.695   0.856   3.060  0.2157 -0.5829  1.1772
 8956TIP3    H248284   4.576   0.901   3.142  0.3397  1.0050  0.5198
 8957TIP3   OH248285   1.098   4.189   4.418 -0.0016 -0.0212  0.2099
 8957TIP3    H148286   1.047   4.267   4.442 -3.0411 -1.8549  0.3235
 8957TIP3    H248287   1.084   4.180   4.324  0.4329 -0.3500  0.1755
 8958TIP3   OH248288   2.813   2.431  13.120 -0.7112  0.3040 -0.1773
 8958TIP3    H148289   2.737   2.469  13.076 -2.1371 -0.6270  1.3392
 8958TIP3    H248290   2.797   2.336  13.118 -0.2906  0.1686  1.3148
 8959TIP3   OH248291   4.573   0.993   2.827 -0.0151 -0.2588 -0.5495
 8959TIP3    H148292   4.575   1.087   2.847 -1.8722 -0.4015  0.4980
 8959TIP3    H248293   4.579   0.950   2.912  0.5325 -1.1027 -0.9985
 8960TIP3   OH248294   4.549   4.007  14.276  0.6241  0.2773  0.2593
 8960TIP3    H148295   4.601   3.946  14.224  1.3145 -2.0353  3.3632
 8960TIP3    H248296   4.600   4.088  14.277  1.0103  0.1026 -1.8272
 8961TIP3   OH248297   4.907   1.078   1.649  0.2246  0.5775 -0.3814
 8961TIP3    H148298   4.826   1.027   1.647  0.7648 -0.3945  0.8228
 8961TIP3    H248299   4.879   1.169   1.636 -1.1771  0.3731  0.8643
 8962TIP3   OH248300   3.486   4.991   1.252  0.0778  0.2890  0.7824
 8962TIP3    H148301   3.549   5.048   1.297  0.1646 -0.1882  1.2717
 8962TIP3    H248302   3.429   4.958   1.321 -1.1594  1.2475  0.2591
 8963TIP3   OH248303   0.310   0.675   1.340 -0.0035 -0.7759  0.4141
 8963TIP3    H148304   0.359   0.649   1.418 -2.1313 -1.0336  1.7329
 8963TIP3    H248305   0.256   0.599   1.318  2.0624 -1.5504 -2.6955
 8964TIP3   OH248306   2.671   5.470  14.142 -0.0014 -0.6463 -0.3020
 8964TIP3    H148307   2.715   5.437  14.220  0.8894 -0.2525 -0.6167
 8964TIP3    H248308   2.580   5.482  14.168  0.0660 -1.5108  0.3657
 8965TIP3   OH248309   1.982   2.874  15.878 -0.0464  0.0757 -0.2036
 8965TIP3    H148310   1.910   2.918  15.833 -0.2475 -0.3414 -0.2849
 8965TIP3    H248311   2.006   2.934  15.949  0.5998  0.9856 -1.1499
 8966TIP3   OH248312   1.438   1.104  12.070  0.0378  0.3202 -0.2888
 8966TIP3    H148313   1.482   1.180  12.031 -0.4055  0.3385 -0.7623
 8966TIP3    H248314   1.435   1.039  11.999 -1.5158  0.6537 -0.5670
 8967TIP3   OH248315   0.095   1.433  16.977 -0.0027  0.0399  0.2202
 8967TIP3    H148316   0.116   1.418  16.884 -0.2131 -1.8116  0.4420
 8967TIP3    H248317   0.148   1.509  17.001 -0.0668  0.6515 -1.4521
 8968TIP3   OH248318   1.077   3.078  15.091  0.5071  0.2151  0.5874
 8968TIP3    H148319   1.038   3.046  15.010  0.2794  2.1152 -0.1023
 8968TIP3    H248320   1.036   3.025  15.160 -0.5689 -0.2726 -0.3953
 8969TIP3   OH248321   4.730   2.952   5.808  0.7257  0.2411 -0.1140
 8969TIP3    H148322   4.667   2.912   5.868  0.6191 -1.0690 -1.0600
 8969TIP3    H248323   4.691   2.941   5.721  1.6192  0.6746 -0.5888
 8970TIP3   OH248324   6.307   3.419   4.059  0.1549  0.3211 -0.6100
 8970TIP3    H148325   6.243   3.461   4.001 -0.1478  0.4685 -0.1743
 8970TIP3    H248326   6.392   3.438   4.020 -0.1181 -1.1488 -2.0577
 8971TIP3   OH248327   3.172   6.257   4.201 -0.0585  0.3467  0.0995
 8971TIP3    H148328   3.098   6.308   4.168 -1.0798  0.1655  1.9507
 8971TIP3    H248329   3.214   6.313   4.266  1.2117  0.2858 -0.6323
 8972TIP3   OH248330   3.286   0.630  14.460 -0.1729 -0.4011  0.3549
 8972TIP3    H148331   3.334   0.600  14.537 -0.8846 -1.4381  0.4150
 8972TIP3    H248332   3.354   0.652  14.396  0.4164  0.3478  1.2261
 8973TIP3   OH248333   4.867   5.758  12.852 -0.4961 -0.0097 -0.1791
 8973TIP3    H148334   4.788   5.705  12.842 -0.7385 -0.0604  1.6427
 8973TIP3    H248335   4.863   5.821  12.780  0.4792 -3.1777 -3.2861
 8974TIP3   OH248336   6.555   0.066   3.286 -0.1652 -0.1477  0.0575
 8974TIP3    H148337   6.537   0.010   3.210 -0.4245  1.0586 -0.8002
 8974TIP3    H248338   6.650   0.068   3.292 -0.0744  1.1060 -1.3108
 8975TIP3   OH248339   1.483   0.716   1.025 -0.1823  0.4346 -0.1110
 8975TIP3    H148340   1.419   0.645   1.013 -1.7583  1.5932  1.0599
 8975TIP3    H248341   1.500   0.748   0.937  0.1031 -0.9744 -0.6032
 8976TIP3   OH248342   6.633   4.648  14.653  0.1010 -0.4839  1.0109
 8976TIP3    H148343   6.727   4.666  14.655  0.2160 -0.4656 -1.2970
 8976TIP3    H248344   6.593   4.733  14.669  0.4694 -0.3693  1.3605
 8977TIP3   OH248345   4.969   3.512  13.089  0.0775  0.0676 -0.1156
 8977TIP3    H148346   5.005   3.598  13.069 -0.1691  0.1055 -0.3945
 8977TIP3    H248347   4.981   3.462  13.008 -0.5502  0.0965 -0.2309
 8978TIP3   OH248348   2.956   3.694  16.116  0.2416 -0.3139 -0.1842
 8978TIP3    H148349   2.965   3.758  16.046  0.3599  0.6291  0.6712
 8978TIP3    H248350   3.041   3.693  16.159 -0.2320  0.1484  0.7976
 8979TIP3   OH248351   6.419   3.694  12.687  1.0101  0.4061  0.0132
 8979TIP3    H148352   6.387   3.735  12.607  0.8586 -0.0455 -0.1647
 8979TIP3    H248353   6.471   3.619  12.657  0.0323 -0.4363  0.3408
 8980TIP3   OH248354   1.887   2.203   1.638 -0.3025 -0.1961  0.1235
 8980TIP3    H148355   1.869   2.167   1.551 -0.6540 -0.3759  0.2715
 8980TIP3    H248356   1.960   2.150   1.671  1.1324  1.0763 -0.8228
 8981TIP3   OH248357   0.925   4.232  14.465 -0.2314 -0.0560 -0.0070
 8981TIP3    H148358   0.996   4.237  14.529  2.4326 -0.2340 -2.6709
 8981TIP3    H248359   0.927   4.141  14.435  0.5585  0.6390 -2.2562
 8982TIP3   OH248360   4.420   4.307  12.528  0.1010  0.6338 -0.2576
 8982TIP3    H148361   4.384   4.390  12.498 -0.5712  0.2341 -0.5831
 8982TIP3    H248362   4.383   4.242  12.468  1.0079  0.1565 -0.3131
 8983TIP3   OH248363   4.418   2.555   0.065 -0.0649 -0.1871 -0.0555
 8983TIP3    H148364   4.393   2.585  -0.022  2.9610  0.0691 -0.9522
 8983TIP3    H248365   4.401   2.460   0.063 -1.0440 -0.0103 -0.5133
 8984TIP3   OH248366   1.304   6.241  15.930  0.3905  0.0390 -0.2371
 8984TIP3    H148367   1.297   6.335  15.913  0.3993  0.2013  0.5799
 8984TIP3    H248368   1.218   6.205  15.911 -0.1422  0.5193  1.1410
 8985TIP3   OH248369   0.940   6.458   2.516 -0.0923  0.3030 -0.1252
 8985TIP3    H148370   0.846   6.460   2.533  0.0578 -0.2224  0.8695
 8985TIP3    H248371   0.968   6.549   2.522 -0.4864  0.4208 -0.0760
 8986TIP3   OH248372   1.402   2.736   5.197 -0.3465 -0.8852 -0.0460
 8986TIP3    H148373   1.429   2.683   5.272  0.9487  1.1859  1.0545
 8986TIP3    H248374   1.324   2.692   5.162 -1.2061 -1.7634  2.7290
 8987TIP3   OH248375   1.571   0.348  15.684 -0.9241 -0.3292 -0.2786
 8987TIP3    H148376   1.541   0.359  15.775  0.9709  1.2088  0.2194
 8987TIP3    H248377   1.650   0.293  15.692  0.5986  1.6834 -0.6616
 8988TIP3   OH248378   4.443   1.042  16.696  0.9462  0.0970  0.5882
 8988TIP3    H148379   4.363   1.006  16.658  0.3320  2.3235 -0.4114
 8988TIP3    H248380   4.504   1.048  16.623  0.3756  2.7287  0.2330
 8989TIP3   OH248381   5.763   1.274   4.341  0.4351  0.3837  0.3378
 8989TIP3    H148382   5.780   1.335   4.412  0.3203  0.1109  0.6004
 8989TIP3    H248383   5.840   1.280   4.285  0.9780 -0.1579  1.0234
 8990TIP3   OH248384   4.034   6.246   0.599 -0.7666 -0.3191 -0.0177
 8990TIP3    H148385   4.127   6.266   0.607 -0.6520 -1.0713  0.7619
 8990TIP3    H248386   4.027   6.154   0.626 -1.7322 -0.2741 -0.0764
 8991TIP3   OH248387   5.738   2.738   5.643 -0.5947 -0.2814 -0.0115
 8991TIP3    H148388   5.726   2.753   5.736  1.3555  1.1173  0.0594
 8991TIP3    H248389   5.785   2.654   5.638 -2.4610 -1.3885  0.1080
 8992TIP3   OH248390   0.900   0.709   2.416 -0.0637  0.4363  0.1728
 8992TIP3    H148391   0.879   0.780   2.478 -3.3071  0.7517 -1.0558
 8992TIP3    H248392   0.873   0.629   2.462  0.9524  0.2732  0.5005
 8993TIP3   OH248393   3.468   3.979  16.352 -0.6572 -0.0864  0.4838
 8993TIP3    H148394   3.436   3.946  16.267 -0.4266 -1.4473  0.9081
 8993TIP3    H248395   3.495   4.069  16.333 -1.3164 -0.1120 -0.7189
 8994TIP3   OH248396   5.906   1.198  16.815 -0.7282 -0.4645 -0.3509
 8994TIP3    H148397   5.973   1.267  16.806 -2.0200  0.7670 -1.0165
 8994TIP3    H248398   5.929   1.134  16.748  0.6279 -0.8085  0.4169
 8995TIP3   OH248399   2.437   5.245  16.684 -0.4674 -0.4862  0.2518
 8995TIP3    H148400   2.368   5.243  16.750 -0.6175  0.6466  0.1450
 8995TIP3    H248401   2.411   5.315  16.624  1.1574  0.5056  0.6468
 8996TIP3   OH248402   3.851   3.026  17.061  0.0597 -0.2155 -0.4950
 8996TIP3    H148403   3.809   2.985  16.985 -0.6650 -0.0018 -0.2215
 8996TIP3    H248404   3.839   2.964  17.132  1.7489 -0.9372 -0.7921
 8997TIP3   OH248405   1.905   3.766  12.347  0.0831 -0.1164 -0.7325
 8997TIP3    H148406   1.908   3.693  12.409  0.4935  1.5371  1.3585
 8997TIP3    H248407   1.896   3.844  12.403 -1.0896  1.3982 -2.8668
 8998TIP3   OH248408   4.811   1.505  15.545  0.1032  0.3973 -0.1565
 8998TIP3    H148409   4.868   1.429  15.558 -0.9144 -0.6405 -1.5323
 8998TIP3    H248410   4.782   1.528  15.634 -1.1019 -2.0790  0.1837
 8999TIP3   OH248411   2.021   6.608   2.344  0.0164 -0.6515  0.3265
 8999TIP3    H148412   2.069   6.581   2.422  0.4054 -1.8046 -0.2770
 8999TIP3    H248413   1.944   6.552   2.342  0.4587 -1.2675 -0.5658
 9000TIP3   OH248414   3.411   2.611   2.412  0.0526  0.2164 -0.0023
 9000TIP3    H148415   3.439   2.551   2.481  1.3069  0.7053 -0.0590
 9000TIP3    H248416   3.493   2.646   2.376 -0.6324  1.8846 -0.0325
 9001TIP3   OH248417   3.759   1.517   4.562  0.2515 -0.2855  0.6643
 9001TIP3    H148418   3.776   1.441   4.618  1.0662  0.6049  1.6792
 9001TIP3    H248419   3.694   1.568   4.611 -2.7574 -1.7812 -1.4306
 9002TIP3   OH248420   1.902   4.820  15.827 -0.1381  0.2106  0.1615
 9002TIP3    H148421   1.880   4.742  15.776  1.4156 -1.2277  1.5312
 9002TIP3    H248422   1.981   4.854  15.787 -0.6000  0.8812 -0.1988
 9003TIP3   OH248423   1.642   5.414  16.926 -0.2506  0.1270 -0.0249
 9003TIP3    H148424   1.547   5.400  16.926 -0.0695 -1.2424  0.5857
 9003TIP3    H248425   1.652   5.505  16.953 -1.4005  0.4182 -0.5031
 9004TIP3   OH248426   2.253   0.296  15.894 -0.0368  0.2892  0.0420
 9004TIP3    H148427   2.290   0.376  15.933 -2.2819  1.5039 -0.1706
 9004TIP3    H248428   2.168   0.323  15.861 -1.4204 -2.4895  1.0576
 9005TIP3   OH248429   0.822   5.539  12.814  0.0707 -0.3268 -0.2987
 9005TIP3    H148430   0.807   5.624  12.855  0.2393  0.7089 -2.2821
 9005TIP3    H248431   0.908   5.547  12.773  0.5889 -1.8686  0.4267
 9006TIP3   OH248432   2.160   4.522   4.497 -0.5898 -0.0106  0.3127
 9006TIP3    H148433   2.250   4.497   4.520 -0.8024 -1.1688 -0.0125
 9006TIP3    H248434   2.108   4.488   4.570 -0.8298  0.0751  0.1791
 9007TIP3   OH248435   1.226   2.446  14.877 -0.6647  0.2113  0.1468
 9007TIP3    H148436   1.157   2.386  14.904 -0.6742 -0.6475 -1.6287
 9007TIP3    H248437   1.285   2.393  14.823 -0.5681  1.7122 -1.3395
 9008TIP3   OH248438   1.763   1.987   2.691 -0.4160  1.1137  0.6627
 9008TIP3    H148439   1.806   1.968   2.608  0.0110 -0.3947  1.2056
 9008TIP3    H248440   1.816   2.056   2.731  0.8554  0.0926  0.7950
 9009TIP3   OH248441   1.037   3.858   6.098  0.4094 -0.0884  0.1028
 9009TIP3    H148442   1.075   3.881   6.014  0.8181 -0.9419  0.0393
 9009TIP3    H248443   1.068   3.927   6.158 -1.4520  1.6216 -0.7929
 9010TIP3   OH248444   2.864   2.963  17.287 -0.3937  0.4681 -0.2631
 9010TIP3    H148445   2.798   3.002  17.344 -1.5163  0.6542 -1.6572
 9010TIP3    H248446   2.844   2.996  17.199  1.1323 -0.0194 -0.8351
 9011TIP3   OH248447   1.642   5.109   4.166  0.1194 -0.2829 -0.0450
 9011TIP3    H148448   1.691   5.087   4.246  2.9608  1.6047 -1.0857
 9011TIP3    H248449   1.610   5.198   4.181  0.1004 -0.1707 -0.7284
 9012TIP3   OH248450   4.174   1.548  13.542  0.0588  0.4281 -0.6743
 9012TIP3    H148451   4.151   1.641  13.533 -0.4827  0.3437 -0.2176
 9012TIP3    H248452   4.097   1.501  13.512 -0.5852  0.1461  1.2707
 9013TIP3   OH248453   4.081   5.682  14.391  0.3762  0.0138  0.5088
 9013TIP3    H148454   4.101   5.634  14.472 -1.0440  0.7681  1.3569
 9013TIP3    H248455   4.122   5.767  14.402 -0.9356  0.6064  1.0776
 9014TIP3   OH248456   2.643   4.919  16.443 -0.4140  0.6693  0.0473
 9014TIP3    H148457   2.630   4.982  16.513 -1.6877  0.4835  0.0058
 9014TIP3    H248458   2.566   4.862  16.447  1.5234 -2.0329  1.2205
 9015TIP3   OH248459   2.901   0.282   5.735  0.2868  0.4064 -0.0750
 9015TIP3    H148460   2.860   0.321   5.812  1.1202  0.3616  0.4000
 9015TIP3    H248461   2.873   0.191   5.736  0.3216  0.3982  0.1931
 9016TIP3   OH248462   4.707   0.516   4.367  0.3102  0.1895 -0.2788
 9016TIP3    H148463   4.714   0.521   4.463  0.2794 -0.9589 -0.2073
 9016TIP3    H248464   4.797   0.500   4.338  0.4597  1.3609 -0.5199
 9017TIP3   OH248465   2.802   0.294   1.195  0.3572  0.5199  0.8511
 9017TIP3    H148466   2.855   0.339   1.129 -0.1839  1.7358  1.2179
 9017TIP3    H248467   2.745   0.237   1.144  2.3009 -1.2000  0.4719
 9018TIP3   OH248468   6.377   2.084  14.040  0.4726  0.0032  0.0799
 9018TIP3    H148469   6.390   2.063  14.133  0.5675 -0.0170  0.0624
 9018TIP3    H248470   6.463   2.069  14.000  0.9551  1.7706  0.3312
 9019TIP3   OH248471   1.275   0.951   2.431 -0.4301  0.0719 -0.3546
 9019TIP3    H148472   1.189   0.935   2.471 -0.3945  0.9046  0.0763
 9019TIP3    H248473   1.308   1.029   2.476  0.5369 -0.2163 -0.5521
 9020TIP3   OH248474   1.680   6.698  12.700 -0.0691 -0.3239 -0.1433
 9020TIP3    H148475   1.651   6.761  12.767  0.8503  0.7695 -0.7366
 9020TIP3    H248476   1.668   6.745  12.617  0.9406 -0.7996 -0.5749
 9021TIP3   OH248477   3.731   3.923  15.863 -0.4412 -0.5018  0.2344
 9021TIP3    H148478   3.783   3.917  15.942 -1.2495  0.4628  0.8640
 9021TIP3    H248479   3.642   3.898  15.890 -0.0901 -4.0305 -1.1990
 9022TIP3   OH248480   0.585   0.057   3.433 -0.2798 -0.2362  0.5344
 9022TIP3    H148481   0.628   0.026   3.513  1.2225  0.7986  0.1625
 9022TIP3    H248482   0.655   0.063   3.369 -1.1696  0.5735 -0.3948
 9023TIP3   OH248483   6.303   5.539  14.488  0.1250  0.1584 -0.2002
 9023TIP3    H148484   6.379   5.535  14.546 -0.6365  0.3638  0.8157
 9023TIP3    H248485   6.235   5.489  14.532  0.2182 -1.6694 -1.9912
 9024TIP3   OH248486   0.825   0.390   2.664  0.3457  0.1803  0.6348
 9024TIP3    H148487   0.787   0.314   2.707 -1.4813  2.1152  2.6937
 9024TIP3    H248488   0.905   0.408   2.714  0.4757 -0.0648  0.5134
 9025TIP3   OH248489   5.124   5.082   2.831  0.2985 -0.3325  0.1455
 9025TIP3    H148490   5.113   5.007   2.889 -0.3524 -0.1616  0.2543
 9025TIP3    H248491   5.057   5.069   2.763 -0.7153  0.8166  0.8898
 9026TIP3   OH248492   5.577   0.252  13.846  0.1621 -0.1627  0.0506
 9026TIP3    H148493   5.550   0.344  13.840 -0.8835 -0.4586 -0.0596
 9026TIP3    H248494   5.652   0.253  13.905 -0.5986  0.6216  1.0565
 9027TIP3   OH248495   6.600   0.458   4.463  0.2053  0.0093  0.0386
 9027TIP3    H148496   6.533   0.398   4.433  0.6749 -1.2573  1.3847
 9027TIP3    H248497   6.651   0.480   4.385 -1.5238  0.7263 -0.9333
 9028TIP3   OH248498   1.734   0.543   0.130  0.0371 -0.0965  0.2443
 9028TIP3    H148499   1.806   0.589   0.088 -0.1377  1.0211  1.1209
 9028TIP3    H248500   1.705   0.601   0.200 -1.4397 -0.7048  0.1939
 9029TIP3   OH248501   1.826   5.064   5.989 -0.2112  0.0947 -0.3164
 9029TIP3    H148502   1.731   5.066   5.975 -0.3672 -2.2792 -0.0537
 9029TIP3    H248503   1.842   5.137   6.050 -1.3903  2.3024 -2.4795
 9030TIP3   OH248504   0.690   4.371  14.471  0.1998  0.3856  0.3241
 9030TIP3    H148505   0.782   4.348  14.458  0.1744  0.6842 -0.4027
 9030TIP3    H248506   0.687   4.409  14.559  0.2927 -2.0618  1.4534
 9031TIP3   OH248507   1.820   6.520  13.223 -0.5883 -0.1929  0.2530
 9031TIP3    H148508   1.832   6.612  13.198 -0.4512  0.8629  3.6216
 9031TIP3    H248509   1.729   6.500  13.198 -0.5814  0.7825 -0.6395
 9032TIP3   OH248510   0.873   5.733  12.256 -0.0517 -0.0246  0.1176
 9032TIP3    H148511   0.884   5.819  12.298  0.4641  0.2756 -0.5858
 9032TIP3    H248512   0.786   5.737  12.216 -0.2364 -0.0275  0.5112
 9033TIP3   OH248513   4.296   2.264  16.673 -0.2916 -0.2148  0.0731
 9033TIP3    H148514   4.291   2.231  16.763 -0.1761  0.6233  0.3986
 9033TIP3    H248515   4.390   2.277  16.657 -0.3291 -0.1028 -0.0622
 9034TIP3   OH248516   5.506   1.284  15.078  0.1081 -0.0009 -0.4887
 9034TIP3    H148517   5.534   1.362  15.127  0.4779 -0.1910 -0.3970
 9034TIP3    H248518   5.424   1.258  15.120  0.5671 -0.3291  0.2157
 9035TIP3   OH248519   3.421   2.596  15.984 -1.0379 -0.7803 -0.1293
 9035TIP3    H148520   3.419   2.637  15.897 -0.4958  0.6236  0.4991
 9035TIP3    H248521   3.493   2.532  15.978 -1.2725 -0.9861 -0.8343
 9036TIP3   OH248522   6.070   1.503  14.301  0.1305 -0.3876  0.1567
 9036TIP3    H148523   6.079   1.591  14.266  0.2242 -0.0036  1.1075
 9036TIP3    H248524   5.995   1.466  14.256 -0.1036  0.2978 -0.0212
 9037TIP3   OH248525   3.287   3.158  17.325 -0.4615 -0.6124  0.0496
 9037TIP3    H148526   3.296   3.241  17.279 -3.2378  0.0313  0.4984
 9037TIP3    H248527   3.346   3.098  17.279  0.6101  1.2361 -1.1045
 9038TIP3   OH248528   5.560   6.581  12.329 -0.2883  0.0063 -0.0186
 9038TIP3    H148529   5.481   6.586  12.382 -0.1021 -1.0346  0.3849
 9038TIP3    H248530   5.527   6.575  12.239 -0.5922  2.4316 -0.1385
 9039TIP3   OH248531   5.474   2.175  11.341  0.0428  0.4039  0.0164
 9039TIP3    H148532   5.420   2.215  11.273 -1.6023 -1.8560 -0.1340
 9039TIP3    H248533   5.467   2.081  11.324  1.9179 -0.0834  1.6225
 9040TIP3   OH248534   1.381   2.305   1.444  0.1745  0.2870 -0.1528
 9040TIP3    H148535   1.317   2.368   1.411  0.3271  0.0436 -0.9443
 9040TIP3    H248536   1.466   2.344   1.425  0.2661  0.0849 -0.1612
 9041TIP3   OH248537   3.656   5.561  16.731  0.1025  0.1855  0.1140
 9041TIP3    H148538   3.578   5.590  16.779  1.9433  2.0844  2.1819
 9041TIP3    H248539   3.666   5.626  16.662 -0.0401  0.0531 -0.0313
 9042TIP3   OH248540   1.972   3.107   0.679 -0.0272 -0.6040 -0.6036
 9042TIP3    H148541   2.023   3.152   0.747  3.0295  0.1257 -3.1476
 9042TIP3    H248542   2.038   3.062   0.626 -2.1165 -0.3402 -3.6536
 9043TIP3   OH248543   1.733   2.055   3.339 -0.0483  0.2447  0.7333
 9043TIP3    H148544   1.651   2.038   3.385  0.3252  0.2406  1.4194
 9043TIP3    H248545   1.708   2.108   3.263 -0.7870 -0.4712  0.4597
 9044TIP3   OH248546   3.820   5.430  12.176  0.2309  0.1282 -0.1848
 9044TIP3    H148547   3.817   5.338  12.203 -0.8441  0.2384  0.1535
 9044TIP3    H248548   3.812   5.427  12.080 -0.7804 -0.1181 -0.1117
 9045TIP3   OH248549   5.908   3.733  11.982 -0.4966  0.3157  0.5808
 9045TIP3    H148550   5.981   3.697  12.033 -1.3675 -0.5375  1.2575
 9045TIP3    H248551   5.844   3.761  12.047 -0.4133  1.9024  0.0182
 9046TIP3   OH248552   1.519   1.256   4.489  0.3411 -0.0603  0.1647
 9046TIP3    H148553   1.551   1.305   4.565  0.7100 -0.5611  0.3402
 9046TIP3    H248554   1.592   1.198   4.466 -0.4187 -1.1980  0.5363
 9047TIP3   OH248555   1.145   5.459  15.998  0.2542 -0.2614 -0.9006
 9047TIP3    H148556   1.165   5.455  16.092  1.3564  1.3355 -1.0290
 9047TIP3    H248557   1.152   5.368  15.969 -1.0728 -0.9518  0.7178
 9048TIP3   OH248558   4.963   1.817  14.254  0.4103 -0.2701 -0.2446
 9048TIP3    H148559   4.912   1.886  14.212 -0.5911 -0.5405  0.4846
 9048TIP3    H248560   5.042   1.809  14.200  0.9171  1.9329  0.0610
 9049TIP3   OH248561   2.835   5.461   6.142 -0.4108 -0.2292 -0.0777
 9049TIP3    H148562   2.880   5.417   6.214 -1.3997 -0.3414  0.4953
 9049TIP3    H248563   2.881   5.433   6.063  2.2353  1.7417  0.6354
 9050TIP3   OH248564   3.741   5.778  16.540 -0.8623 -1.1074  0.5133
 9050TIP3    H148565   3.784   5.818  16.615 -0.8732 -0.2469  0.0793
 9050TIP3    H248566   3.655   5.819  16.536 -1.5164 -2.3839  1.0236
 9051TIP3   OH248567   2.355   2.927   2.222  0.6085  0.4216  0.2321
 9051TIP3    H148568   2.349   2.868   2.147  1.0043  0.8428 -0.1353
 9051TIP3    H248569   2.414   2.997   2.193  0.0518  1.0661  0.6099
 9052TIP3   OH248570   1.859   1.377   2.826  0.4138 -0.2957 -0.1727
 9052TIP3    H148571   1.824   1.346   2.742 -1.8187 -1.4996  1.0908
 9052TIP3    H248572   1.923   1.311   2.852  2.5511  1.0452 -1.7177
 9053TIP3   OH248573   2.628   1.619   3.225  0.0345 -0.1663 -0.5602
 9053TIP3    H148574   2.702   1.558   3.226  0.1906 -0.0660  1.9427
 9053TIP3    H248575   2.638   1.668   3.144  2.0742 -0.9363 -0.8317
 9054TIP3   OH248576   5.462   3.957   4.451 -0.3013 -0.0806  0.1451
 9054TIP3    H148577   5.385   3.958   4.394 -0.6241  0.2550  0.5774
 9054TIP3    H248578   5.454   4.037   4.503  2.0407  1.7244 -1.9982
 9055TIP3   OH248579   4.763   3.875  12.732  0.0595  0.4851  0.4213
 9055TIP3    H148580   4.754   3.784  12.705 -1.0284  1.0111 -1.1494
 9055TIP3    H248581   4.809   3.871  12.816  0.5125 -1.4595  0.1262
 9056TIP3   OH248582   2.610   4.736  13.061 -0.6607 -0.5652 -0.0605
 9056TIP3    H148583   2.580   4.719  12.971 -1.3116  1.3960 -0.2574
 9056TIP3    H248584   2.656   4.820  13.055 -0.3217 -0.6306  1.3775
 9057TIP3   OH248585   0.202   1.952  17.319 -0.2568 -0.9355 -0.5076
 9057TIP3    H148586   0.119   1.960  17.273  0.1045  1.9189 -0.8344
 9057TIP3    H248587   0.268   1.949  17.249  0.0848 -0.1102 -0.2298
 9058TIP3   OH248588   4.932   1.311  12.009  0.2692  0.2408 -0.8572
 9058TIP3    H148589   4.844   1.312  11.972  0.2697  0.0593 -0.8624
 9058TIP3    H248590   4.921   1.269  12.094  0.3543  0.2032 -0.8652
 9059TIP3   OH248591   3.223   1.963   0.536 -0.5223  1.2053 -0.1257
 9059TIP3    H148592   3.217   2.040   0.593 -1.1336  0.3624  0.9914
 9059TIP3    H248593   3.136   1.955   0.498 -0.4616  1.0461 -0.2305
 9060TIP3   OH248594   4.966   3.892   4.843  0.3333 -0.3747  0.1796
 9060TIP3    H148595   5.026   3.966   4.848  0.6390 -0.4249 -1.9854
 9060TIP3    H248596   5.019   3.819   4.813 -0.5410 -0.7423 -0.5258
 9061TIP3   OH248597   0.125   4.805  13.027 -0.3015  0.2896  0.3114
 9061TIP3    H148598   0.098   4.747  13.098 -3.5632  2.8509  1.3974
 9061TIP3    H248599   0.080   4.770  12.950  2.9549 -2.2716 -0.7034
 9062TIP3   OH248600   0.704   3.291  16.969  0.3265 -0.4128 -0.8283
 9062TIP3    H148601   0.755   3.372  16.970 -0.2166 -0.0376 -1.8392
 9062TIP3    H248602   0.770   3.221  16.958  0.5735  0.2150 -4.7825
 9063TIP3   OH248603   1.564   4.644  15.045 -0.3983 -0.7839  0.2270
 9063TIP3    H148604   1.508   4.645  15.122 -1.4737  0.2214 -0.5429
 9063TIP3    H248605   1.653   4.640  15.081 -0.7604  1.7256  1.6285
 9064TIP3   OH248606   2.905   2.349   6.054 -0.6980  0.0218  0.1045
 9064TIP3    H148607   2.870   2.260   6.053 -0.8202  0.0699 -1.0431
 9064TIP3    H248608   2.974   2.347   6.120 -0.8924 -0.8486  0.2950
 9065TIP3   OH248609   5.208   6.584   3.998  0.2487  0.1257  0.1375
 9065TIP3    H148610   5.282   6.549   3.948  1.4688  2.7337 -0.0200
 9065TIP3    H248611   5.216   6.542   4.084  1.5289 -0.1136 -0.0734
 9066TIP3   OH248612   6.684   0.073   2.817  0.0668  0.2032 -0.9617
 9066TIP3    H148613   6.624   0.035   2.882  0.8236  1.1374  0.3389
 9066TIP3    H248614   6.695   0.004   2.751  0.9885 -1.6601  1.0198
 9067TIP3   OH248615   2.501   6.108  11.844 -0.4719 -0.1250 -0.4780
 9067TIP3    H148616   2.542   6.168  11.781 -1.0585  1.0597  0.2301
 9067TIP3    H248617   2.563   6.035  11.851  0.3807  0.4998 -1.1987
 9068TIP3   OH248618   3.766   4.603  14.268 -0.0575  0.2083  0.4019
 9068TIP3    H148619   3.676   4.633  14.256 -0.3837 -0.6031  0.7783
 9068TIP3    H248620   3.758   4.509  14.284  0.7894  0.2682  1.2635
 9069TIP3   OH248621   6.051   2.652  12.814  0.5296  0.3477  0.1019
 9069TIP3    H148622   5.986   2.582  12.807  1.8844 -0.9626  0.0474
 9069TIP3    H248623   6.083   2.664  12.724 -0.8883  2.2676 -0.1870
 9070TIP3   OH248624   1.044   1.147   1.952 -0.2263  0.3503 -0.5764
 9070TIP3    H148625   1.102   1.202   1.899  0.1265 -0.7138 -1.3056
 9070TIP3    H248626   1.095   1.128   2.031 -0.4273  1.2290 -0.2259
 9071TIP3   OH248627   1.358   0.155   3.950  0.4294 -0.2539  0.0869
 9071TIP3    H148628   1.279   0.178   3.999  1.0826  0.1286  1.0017
 9071TIP3    H248629   1.423   0.220   3.979  0.1604  1.7695 -3.3024
 9072TIP3   OH248630   1.182   0.463  14.922 -0.1030  0.7700  0.2124
 9072TIP3    H148631   1.167   0.375  14.955 -4.3341  0.4202 -1.9213
 9072TIP3    H248632   1.271   0.485  14.949  0.8168 -3.7481  1.5868
 9073TIP3   OH248633   1.622   5.256  11.380 -0.4403 -0.9536  0.6742
 9073TIP3    H148634   1.576   5.178  11.348 -0.7399  0.5527 -3.1340
 9073TIP3    H248635   1.713   5.228  11.390 -0.5720 -1.8751 -0.5130
 9074TIP3   OH248636   3.639   1.019  15.865 -0.6994  0.1325 -0.0177
 9074TIP3    H148637   3.730   0.998  15.844 -0.9634 -0.8606 -0.2154
 9074TIP3    H248638   3.645   1.091  15.928  0.3188 -1.5967  1.9721
 9075TIP3   OH248639   1.794   5.233   4.886 -0.1784 -0.0569 -0.4260
 9075TIP3    H148640   1.701   5.228   4.908  0.3055 -0.7310  1.7034
 9075TIP3    H248641   1.803   5.179   4.807 -1.2586 -1.7591  0.5609
 9076TIP3   OH248642   1.100   0.937  14.970 -0.2601 -0.2897  0.5420
 9076TIP3    H148643   1.169   0.956  15.034  0.3660  0.1491 -0.2525
 9076TIP3    H248644   1.089   0.842  14.974  1.4846 -0.5686 -0.4192
 9077TIP3   OH248645   1.993   6.406  15.828  0.3842 -0.4711  0.2962
 9077TIP3    H148646   2.037   6.459  15.896  0.4438  0.9103 -0.7796
 9077TIP3    H248647   1.901   6.407  15.853  0.2437  0.9538 -0.2026
 9078TIP3   OH248648   5.850   2.778   2.292  0.3977 -0.4082 -0.4500
 9078TIP3    H148649   5.925   2.802   2.238  0.6726 -0.2047  0.0216
 9078TIP3    H248650   5.784   2.748   2.229  0.4128  0.5985 -0.9771
 9079TIP3   OH248651   2.801   4.925  14.120 -0.1402  0.2701 -0.3439
 9079TIP3    H148652   2.794   4.989  14.191 -0.4977 -0.2938  0.1454
 9079TIP3    H248653   2.753   4.965  14.048  0.3387  0.9102 -0.3153
 9080TIP3   OH248654   6.445   2.832   0.917 -0.1497 -0.0698 -0.2555
 9080TIP3    H148655   6.517   2.881   0.876  0.6802  1.0139  2.3080
 9080TIP3    H248656   6.382   2.899   0.942 -0.6781 -0.7154  0.1575
 9081TIP3   OH248657   6.009   0.383  16.257 -0.0263  0.0969  0.0914
 9081TIP3    H148658   5.970   0.463  16.293  1.0697  0.0859  1.3858
 9081TIP3    H248659   6.060   0.346  16.329  1.0482 -0.7438 -1.0401
 9082TIP3   OH248660   5.271   3.659   5.745 -0.0510  0.1390 -0.0315
 9082TIP3    H148661   5.286   3.683   5.654 -0.1164  0.9269  0.1556
 9082TIP3    H248662   5.258   3.564   5.744 -1.4829  0.3244 -1.0332
 9083TIP3   OH248663   4.004   2.615   4.691  0.0062  0.8263  0.1266
 9083TIP3    H148664   4.096   2.634   4.710 -0.0122  0.1947  0.8710
 9083TIP3    H248665   4.005   2.531   4.646 -0.2301  0.6953  0.3644
 9084TIP3   OH248666   4.296   3.809  13.244 -0.0000 -0.3001  0.2897
 9084TIP3    H148667   4.331   3.887  13.286 -2.5624  0.6695  0.8143
 9084TIP3    H248668   4.346   3.801  13.163  0.9392  1.3355  0.6573
 9085TIP3   OH248669   1.831   1.698  11.133 -0.2448 -0.0634  0.4752
 9085TIP3    H148670   1.766   1.767  11.140  0.3878  0.5138  0.8539
 9085TIP3    H248671   1.895   1.732  11.070  1.9060  1.2792  3.1709
 9086TIP3   OH248672   1.389   5.145   1.880  0.2453  0.6340 -0.1957
 9086TIP3    H148673   1.295   5.133   1.868  0.3060  0.6263 -0.7303
 9086TIP3    H248674   1.411   5.220   1.823  0.5563  0.6489 -0.0594
 9087TIP3   OH248675   0.963   5.861  13.678  0.2337  0.1709  0.0017
 9087TIP3    H148676   1.025   5.825  13.742  0.6773 -0.9214 -1.0088
 9087TIP3    H248677   0.919   5.932  13.725 -0.4914 -1.5047  2.0224
 9088TIP3   OH248678   0.172   2.239   6.019  0.3594 -0.2346 -0.4991
 9088TIP3    H148679   0.090   2.190   6.007  1.3017 -1.6214 -1.5747
 9088TIP3    H248680   0.155   2.296   6.094 -1.6337 -0.3775 -0.7914
 9089TIP3   OH248681   2.240   4.173  13.521 -0.1754  0.5838 -0.2240
 9089TIP3    H148682   2.227   4.105  13.587  1.8890  0.2617 -0.1081
 9089TIP3    H248683   2.239   4.126  13.438  0.3921  0.5356 -0.2030
 9090TIP3   OH248684   6.027   1.093   1.220  0.1447 -0.5794  0.6026
 9090TIP3    H148685   5.943   1.094   1.265  0.0618 -0.6835  0.4489
 9090TIP3    H248686   6.091   1.107   1.290 -0.0719  0.9220  0.5483
 9091TIP3   OH248687   3.838   4.854   3.647 -0.5288 -0.6755 -0.1701
 9091TIP3    H148688   3.798   4.939   3.631 -2.3870 -1.5773 -0.6716
 9091TIP3    H248689   3.811   4.830   3.735  1.0785 -0.2144  0.4784
 9092TIP3   OH248690   0.312   0.436   0.799  0.0769  0.2810 -0.3803
 9092TIP3    H148691   0.370   0.509   0.778 -1.0666  1.6011  0.8257
 9092TIP3    H248692   0.369   0.359   0.798  1.0862  0.9566 -2.9060
 9093TIP3   OH248693   2.971   1.214  10.910 -0.2108 -0.4661 -0.0939
 9093TIP3    H148694   2.889   1.263  10.910  1.5660  2.8173  0.9913
 9093TIP3    H248695   2.997   1.210  10.818  0.0363  1.6340 -0.1681
 9094TIP3   OH248696   6.143   5.084  14.838 -0.1403 -0.5297 -0.2040
 9094TIP3    H148697   6.075   5.138  14.878  0.0719  0.0639 -0.6242
 9094TIP3    H248698   6.108   4.995  14.840 -0.7130 -0.3043  0.0287
 9095TIP3   OH248699   4.925   4.189  11.413  0.5149  0.2659  0.2249
 9095TIP3    H148700   4.912   4.202  11.319  2.4035  1.4188  0.0724
 9095TIP3    H248701   4.843   4.221  11.453  0.5336  1.8802 -0.9082
 9096TIP3   OH248702   4.950   4.782   4.308 -0.0341  0.1620 -0.0946
 9096TIP3    H148703   4.860   4.755   4.326 -0.4089  0.9523 -0.6871
 9096TIP3    H248704   4.980   4.821   4.390 -0.1163 -0.3925  0.2027
 9097TIP3   OH248705   1.415   6.546  12.809 -0.2183 -0.0203  0.0408
 9097TIP3    H148706   1.377   6.478  12.865  0.0724  0.1446  0.4491
 9097TIP3    H248707   1.411   6.625  12.863  0.3463  0.0782 -0.0511
 9098TIP3   OH248708   1.295   4.717   4.784 -0.5792  0.0983  0.4396
 9098TIP3    H148709   1.346   4.649   4.739 -1.0779 -1.0135  1.4959
 9098TIP3    H248710   1.281   4.785   4.717 -1.5512 -1.6125 -1.1891
 9099TIP3   OH248711   5.070   3.379   6.235 -0.0540  0.4752 -0.3480
 9099TIP3    H148712   5.110   3.357   6.319  1.5459 -0.9905 -1.4282
 9099TIP3    H248713   4.980   3.403   6.257  0.1117 -0.5734  1.7083
 9100TIP3   OH248714   3.389   3.940  15.745 -0.2026 -0.0686  0.1914
 9100TIP3    H148715   3.321   3.984  15.695  0.0869 -1.0358 -1.1083
 9100TIP3    H248716   3.469   3.989  15.726 -0.4218  0.7684  1.3266
 9101TIP3   OH248717   5.943   3.966  14.231  0.1366 -0.2847 -0.5958
 9101TIP3    H148718   5.969   3.988  14.321  1.3516 -0.6187 -0.8466
 9101TIP3    H248719   5.938   3.870  14.231 -0.3876 -0.2609 -0.7554
 9102TIP3   OH248720   0.142   6.238   6.164  0.4252  0.4409  0.4028
 9102TIP3    H148721   0.100   6.268   6.084  1.7294  0.3416 -0.3402
 9102TIP3    H248722   0.070   6.205   6.218 -0.4373  0.2023 -0.8523
 9103TIP3   OH248723   3.190   2.233   4.286 -0.2671 -0.2432 -0.0178
 9103TIP3    H148724   3.186   2.139   4.306 -1.2831 -0.2628 -0.2377
 9103TIP3    H248725   3.157   2.276   4.365  1.6275  0.0340  0.6641
 9104TIP3   OH248726   3.594   1.561  16.754  0.7840  0.5804  0.0241
 9104TIP3    H148727   3.660   1.528  16.694  0.6728  0.9008 -0.2747
 9104TIP3    H248728   3.513   1.516  16.729  1.0658 -0.5011  0.9736
 9105TIP3   OH248729   4.409   2.925  16.720  0.0634  0.1322  0.4059
 9105TIP3    H148730   4.411   2.924  16.815 -1.7438 -0.2900  0.4799
 9105TIP3    H248731   4.326   2.965  16.697  1.1610  1.7441 -1.0594
 9106TIP3   OH248732   1.834   3.880   5.243 -0.8157  0.2636 -0.2998
 9106TIP3    H148733   1.837   3.785   5.231 -0.0214  0.0828  1.1186
 9106TIP3    H248734   1.768   3.910   5.180  0.4000 -0.9519 -2.2618
 9107TIP3   OH248735   6.646   4.516  14.885 -0.5264  0.8786 -0.4997
 9107TIP3    H148736   6.565   4.465  14.893  0.2052 -0.1564  0.3859
 9107TIP3    H248737   6.627   4.579  14.814 -2.0370  0.5432 -0.4219
 9108TIP3   OH248738   0.482   0.659   2.964 -0.0410 -0.2835  0.1284
 9108TIP3    H148739   0.460   0.566   2.966  1.5159 -0.6711  0.9146
 9108TIP3    H248740   0.567   0.665   3.008  0.1495  1.4442 -0.3792
 9109TIP3   OH248741   0.820   0.243   3.524 -0.0544  0.0030 -0.0500
 9109TIP3    H148742   0.838   0.172   3.586  0.6975  0.8489  0.7503
 9109TIP3    H248743   0.906   0.265   3.488 -0.5665 -0.8881 -1.8923
 9110TIP3   OH248744   4.178   0.152  16.418  0.2097  0.3970  0.5045
 9110TIP3    H148745   4.095   0.194  16.399 -0.9371 -1.5174  1.0002
 9110TIP3    H248746   4.196   0.097  16.342  0.6852  0.2944  0.6836
 9111TIP3   OH248747   4.009   5.480   5.251 -0.1025  0.2400  0.0900
 9111TIP3    H148748   4.065   5.407   5.279  0.4077  0.4419 -0.3929
 9111TIP3    H248749   3.941   5.439   5.198  1.4350  0.3134 -2.0637
 9112TIP3   OH248750   4.176   0.937  16.718 -0.3025 -0.0414  0.2647
 9112TIP3    H148751   4.110   1.001  16.747 -0.9519 -1.1462  1.3575
 9112TIP3    H248752   4.147   0.855  16.757  0.5856 -0.9799 -1.0051
 9113TIP3   OH248753   0.089   4.475   6.151 -0.5974 -0.0482  0.3060
 9113TIP3    H148754   0.122   4.560   6.122  0.0351  0.3455  2.0740
 9113TIP3    H248755   0.009   4.496   6.199 -0.4779 -0.4501  0.6858
 9114TIP3   OH248756   2.493   1.238  14.317  0.1668  0.0380 -0.2013
 9114TIP3    H148757   2.522   1.321  14.357  1.1805 -0.6350  0.5111
 9114TIP3    H248758   2.573   1.201  14.280 -0.2932 -0.6002 -0.5708
 9115TIP3   OH248759   6.012   0.206  11.802 -0.1294  0.5271  0.3782
 9115TIP3    H148760   5.977   0.176  11.719  0.2149 -0.0624  0.4406
 9115TIP3    H248761   6.021   0.300  11.792 -0.6030  0.5284 -0.0546
 9116TIP3   OH248762   2.055   2.278  11.022 -0.3777 -0.6600 -0.4673
 9116TIP3    H148763   1.967   2.306  11.046 -0.4987 -1.1924 -0.2730
 9116TIP3    H248764   2.043   2.196  10.976 -0.0276 -0.3989 -1.0317
 9117TIP3   OH248765   5.792   4.771  12.993  0.3583 -0.1478 -0.1007
 9117TIP3    H148766   5.704   4.789  12.958  0.0706 -0.3202  0.5164
 9117TIP3    H248767   5.780   4.769  13.088  1.2381  0.9368  0.0554
 9118TIP3   OH248768   0.078   1.238  15.918  0.3464  0.0732  0.5296
 9118TIP3    H148769   0.126   1.289  15.983  0.0635  2.2307 -0.8435
 9118TIP3    H248770   0.024   1.302  15.872 -1.4661 -1.7777 -0.0931
 9119TIP3   OH248771   5.802   6.108  13.422  0.1260  0.7106 -0.2349
 9119TIP3    H148772   5.776   6.190  13.379 -0.4237  0.9381  0.5190
 9119TIP3    H248773   5.723   6.054  13.420 -0.5104  1.4373  2.1351
 9120TIP3   OH248774   5.083   5.364   4.886  0.2929  0.4315  0.0675
 9120TIP3    H148775   5.081   5.398   4.797 -4.3272  5.9723  1.6856
 9120TIP3    H248776   5.028   5.286   4.883 -1.7462  1.8348 -1.6950
 9121TIP3   OH248777   6.306   5.875   4.884  0.0755 -0.2470 -0.0904
 9121TIP3    H148778   6.285   5.955   4.932  0.9817 -0.9998  1.6742
 9121TIP3    H248779   6.252   5.879   4.806 -0.5679  1.6449  0.3881
 9122TIP3   OH248780   0.015   1.866  16.149 -0.4640 -0.0754 -0.1334
 9122TIP3    H148781   0.009   1.816  16.067 -1.1287  0.8257 -0.6581
 9122TIP3    H248782  -0.066   1.845  16.196  0.4285 -1.4836  0.8491
 9123TIP3   OH248783   1.863   6.374   4.434  0.5568  0.3613  0.1658
 9123TIP3    H148784   1.811   6.433   4.380  1.3713  1.3810  0.4724
 9123TIP3    H248785   1.952   6.381   4.399  0.7217 -0.4735  0.3913
 9124TIP3   OH248786   6.686   0.752  16.543  0.1335  0.1913 -0.3449
 9124TIP3    H148787   6.651   0.663  16.547 -0.3859  0.4245  0.7351
 9124TIP3    H248788   6.780   0.742  16.559  0.1040 -0.1824 -0.4088
 9125TIP3   OH248789   5.170   5.564   1.441 -0.4359  0.5043  0.4651
 9125TIP3    H148790   5.217   5.542   1.521 -2.4622 -1.2809  1.2575
 9125TIP3    H248791   5.224   5.527   1.370 -0.2049 -0.7622  1.2724
 9126TIP3   OH248792   2.631   1.226   6.461  0.1174  0.2439  0.2233
 9126TIP3    H148793   2.544   1.189   6.444  1.2197 -2.3561 -0.1162
 9126TIP3    H248794   2.622   1.270   6.545 -1.5262  0.0489  0.1778
 9127TIP3   OH248795   0.881   0.522  15.391  0.8558 -0.1613  0.1135
 9127TIP3    H148796   0.863   0.474  15.472 -1.7564  2.0834  1.0074
 9127TIP3    H248797   0.805   0.505  15.335  1.2002  0.6869 -0.6456
 9128TIP3   OH248798   0.032   5.882   5.297  0.0811  0.7023  0.0904
 9128TIP3    H148799   0.081   5.921   5.369  1.2520 -0.0855 -0.2504
 9128TIP3    H248800   0.022   5.790   5.321  0.5912  0.3984 -0.7978
 9129TIP3   OH248801   3.498   1.128   1.503  0.1847  0.9293  0.1421
 9129TIP3    H148802   3.430   1.140   1.568  1.4293 -0.9055  1.8963
 9129TIP3    H248803   3.496   1.034   1.483  1.0854  1.1328 -1.0463
 9130TIP3   OH248804   3.101   0.145  12.238  0.3357  0.0513 -0.5807
 9130TIP3    H148805   3.141   0.059  12.253  0.3276  0.1365 -0.0541
 9130TIP3    H248806   3.171   0.207  12.258  0.3428  0.1703 -0.9666
 9131TIP3   OH248807   4.883   4.728   6.232  0.3110 -0.0752  0.0213
 9131TIP3    H148808   4.802   4.689   6.266  0.7717 -1.4478 -0.3868
 9131TIP3    H248809   4.952   4.692   6.287  0.8080 -0.2475 -0.7123
 9132TIP3   OH248810   3.224   2.028   3.418  0.3528  0.3507 -0.4800
 9132TIP3    H148811   3.275   1.947   3.409 -2.2730 -1.5723  0.7565
 9132TIP3    H248812   3.232   2.050   3.510  0.5952  1.2242 -0.7028
 9133TIP3   OH248813   3.480   3.636  14.829  0.1855 -0.1724  0.2253
 9133TIP3    H148814   3.476   3.545  14.855 -2.5538 -0.0272  0.5436
 9133TIP3    H248815   3.462   3.635  14.735  1.7493 -0.0221 -0.1164
 9134TIP3   OH248816   0.389   4.142  16.446 -0.2337 -0.4972 -0.2210
 9134TIP3    H148817   0.438   4.208  16.495  0.5225 -2.4774  1.8706
 9134TIP3    H248818   0.330   4.192  16.390  0.6838  1.9237  0.8493
 9135TIP3   OH248819   2.442   0.159  16.840  0.3622 -0.1810 -0.1193
 9135TIP3    H148820   2.522   0.110  16.825  0.0043 -0.4789 -1.1313
 9135TIP3    H248821   2.463   0.249  16.815  0.3854 -0.2510 -0.3461
 9136TIP3   OH248822   2.175   5.201   5.969  0.2769 -0.2693 -0.0103
 9136TIP3    H148823   2.102   5.172   5.915  0.6440 -3.2062  0.8787
 9136TIP3    H248824   2.253   5.167   5.924  0.8421  0.1615  0.6199
 9137TIP3   OH248825   1.742   0.416   0.624  0.1223  0.0900 -0.3639
 9137TIP3    H148826   1.833   0.388   0.631 -0.3542 -1.2782  0.6600
 9137TIP3    H248827   1.744   0.510   0.645  1.2665  0.0394 -0.2089
 9138TIP3   OH248828   5.068   0.139   2.005  0.2997 -1.0499 -0.4577
 9138TIP3    H148829   5.013   0.215   2.024  3.5615  1.3698  0.0008
 9138TIP3    H248830   5.078   0.140   1.909  0.2614 -0.9778 -0.4604
 9139TIP3   OH248831   0.371   4.322   2.007 -0.8441  0.0803 -0.0482
 9139TIP3    H148832   0.389   4.233   1.975 -1.6089 -0.4580  0.9354
 9139TIP3    H248833   0.276   4.325   2.015 -0.8903  1.3156 -0.9223
 9140TIP3   OH248834   6.431   6.050  15.659 -0.1220  0.1709  0.2465
 9140TIP3    H148835   6.463   5.965  15.689  0.5537 -0.3273 -1.7329
 9140TIP3    H248836   6.368   6.029  15.591 -0.5361  1.2607  0.2685
 9141TIP3   OH248837   2.433   5.237   2.249 -0.6284 -0.2551  0.0099
 9141TIP3    H148838   2.380   5.314   2.270  0.1256  0.9536 -2.2051
 9141TIP3    H248839   2.427   5.228   2.154  3.2818  0.1320 -0.4420
 9142TIP3   OH248840   1.719   4.820   2.950 -0.1712 -0.6726 -0.0658
 9142TIP3    H148841   1.688   4.874   2.878 -0.1368 -1.9281 -1.0604
 9142TIP3    H248842   1.788   4.765   2.911 -0.0428 -1.2700  0.9571
 9143TIP3   OH248843   3.897   0.046  13.130 -0.0920 -0.1599 -0.0132
 9143TIP3    H148844   3.851   0.037  13.213 -1.0416  1.0301 -0.3747
 9143TIP3    H248845   3.917  -0.044  13.104 -0.6473 -0.6019  1.0261
 9144TIP3   OH248846   6.712   5.427  12.789 -0.1806  0.9570  0.1224
 9144TIP3    H148847   6.655   5.397  12.719 -1.4955  0.5963  1.3161
 9144TIP3    H248848   6.787   5.368  12.787 -0.1975  0.9578 -0.9621
 9145TIP3   OH248849   0.023   1.119  12.041  0.0650 -0.3398  0.0061
 9145TIP3    H148850   0.082   1.090  12.110  1.1803  1.0242 -0.3356
 9145TIP3    H248851   0.041   1.060  11.968 -0.9052 -1.5956  0.7382
 9146TIP3   OH248852   1.815   0.819  16.409  0.2944 -0.1250  0.2362
 9146TIP3    H148853   1.801   0.725  16.402 -1.2520 -0.0192  1.2309
 9146TIP3    H248854   1.760   0.857  16.340 -0.3731  0.0936  0.8705
 9147TIP3   OH248855   1.104   3.218   0.770 -0.3046 -0.0675 -0.2970
 9147TIP3    H148856   1.118   3.292   0.711 -0.2552  0.7818  0.7501
 9147TIP3    H248857   1.042   3.251   0.835 -1.2337 -1.3403 -0.4993
 9148TIP3   OH248858   2.860   4.081   5.960 -0.0750 -0.5068 -0.2890
 9148TIP3    H148859   2.820   4.034   6.033 -0.6956 -0.5718 -0.6663
 9148TIP3    H248860   2.911   4.015   5.914 -0.5118 -0.6886 -0.5083
 9149TIP3   OH248861   5.821   6.033  12.413  0.0651 -1.1375  1.2715
 9149TIP3    H148862   5.737   6.069  12.440 -0.0066 -1.0840  0.9757
 9149TIP3    H248863   5.802   5.942  12.389  0.2198 -1.3342  1.8823
 9150TIP3   OH248864   0.258   3.945  10.914  0.3622  0.1885  0.3908
 9150TIP3    H148865   0.310   3.902  10.846  0.2616  0.2478  0.2755
 9150TIP3    H248866   0.187   3.883  10.933  0.3131  0.2300  0.3442
 9151TIP3   OH248867   0.736   5.966  14.620 -0.2939  0.0289  0.0673
 9151TIP3    H148868   0.740   5.899  14.552  0.3418  0.4762 -0.3462
 9151TIP3    H248869   0.820   5.958  14.666  0.1792  1.1008 -0.5478
 9152TIP3   OH248870   3.412   5.103  12.228  0.2498  0.1666  0.3559
 9152TIP3    H148871   3.441   5.052  12.153 -0.9195 -1.8288  1.1806
 9152TIP3    H248872   3.317   5.107  12.219  0.1700  0.6294  1.2695
 9153TIP3   OH248873   0.992   2.100  12.682  0.7053 -0.2666  0.5328
 9153TIP3    H148874   1.024   2.095  12.592  2.1629  0.5829  0.9756
 9153TIP3    H248875   0.946   2.184  12.687  1.0870 -0.0667  0.7168
 9154TIP3   OH248876   1.855   4.424  11.378 -0.1099  0.5627  0.2847
 9154TIP3    H148877   1.909   4.414  11.299  1.6001  1.8907  1.2264
 9154TIP3    H248878   1.913   4.397  11.450 -1.3921  0.0988  1.1723
 9155TIP3   OH248879   4.419   2.887   2.433 -0.2991  0.5888  0.2586
 9155TIP3    H148880   4.420   2.981   2.415 -0.6559  0.1814 -2.2531
 9155TIP3    H248881   4.339   2.855   2.390 -0.4067 -0.8397  1.4118
 9156TIP3   OH248882   4.061   5.262   5.688  0.0183  0.4162 -0.4627
 9156TIP3    H148883   4.032   5.300   5.771 -1.9602 -0.2146 -0.7978
 9156TIP3    H248884   3.994   5.196   5.667  1.3811 -0.6390 -1.7164
 9157TIP3   OH248885   3.674   5.994  11.283 -0.2813 -0.0807  0.2236
 9157TIP3    H148886   3.592   5.946  11.273 -1.3232  1.4735  0.8853
 9157TIP3    H248887   3.664   6.071  11.228  0.6082  0.2858  0.5541
 9158TIP3   OH248888   2.027   1.192  15.257  0.1069 -0.1363  0.2296
 9158TIP3    H148889   2.106   1.175  15.206 -0.2579 -1.1289 -0.0338
 9158TIP3    H248890   2.041   1.148  15.340  0.4352  0.9443  0.7625
 9159TIP3   OH248891   4.774   6.687  14.491  0.0681  0.1399  0.1743
 9159TIP3    H148892   4.840   6.617  14.492 -0.8503 -0.7893 -1.4715
 9159TIP3    H248893   4.794   6.739  14.569  2.5460 -0.2943 -0.0895
 9160TIP3   OH248894   0.462   3.699  14.466 -0.0339  0.4201  0.0278
 9160TIP3    H148895   0.480   3.767  14.531 -0.5463 -0.5250  1.2046
 9160TIP3    H248896   0.413   3.633  14.514 -0.9282 -0.0614 -1.4773
 9161TIP3   OH248897   1.324   5.533   3.547 -0.0092  0.5066  0.1884
 9161TIP3    H148898   1.347   5.571   3.632 -1.3660 -0.3492  0.9762
 9161TIP3    H248899   1.350   5.599   3.483  2.1586  0.6722  1.1561
 9162TIP3   OH248900   5.559   2.522  11.997  0.5407 -0.0391  0.1458
 9162TIP3    H148901   5.620   2.579  11.950  1.2214  1.1628  2.3348
 9162TIP3    H248902   5.483   2.577  12.014 -1.2636 -1.5245 -2.5468
 9163TIP3   OH248903   4.912   5.362   4.118 -0.0993  0.1067  0.3414
 9163TIP3    H148904   4.956   5.409   4.189  2.9375 -0.7764 -0.8109
 9163TIP3    H248905   4.889   5.277   4.157  1.4700 -0.3435  0.3611
 9164TIP3   OH248906   1.789   5.575   0.787 -0.1192  0.5141 -0.1700
 9164TIP3    H148907   1.820   5.484   0.794 -0.7257  0.1382 -1.8863
 9164TIP3    H248908   1.702   5.574   0.827  0.2498  0.5762  0.6650
 9165TIP3   OH248909   3.696   5.746  12.939 -0.1097 -0.1846 -0.1890
 9165TIP3    H148910   3.638   5.671  12.953 -0.9528  0.4073 -0.4275
 9165TIP3    H248911   3.637   5.818  12.913  0.7049  0.4902 -0.2236
 9166TIP3   OH248912   3.133   2.970  10.481  0.1996 -0.6818  0.0607
 9166TIP3    H148913   3.188   3.001  10.552 -1.0374  0.2309  0.6624
 9166TIP3    H248914   3.070   2.911  10.523 -1.3186  0.7965  0.0066
 9167TIP3   OH248915   5.231   2.914  12.970  0.0172  0.0394 -0.5066
 9167TIP3    H148916   5.326   2.909  12.977  0.0229  0.4200 -0.2933
 9167TIP3    H248917   5.212   3.008  12.969 -0.4900 -0.0127  1.2807
 9168TIP3   OH248918   6.029   0.400  12.823 -0.1901  0.5245  0.3242
 9168TIP3    H148919   6.058   0.442  12.904  0.6117  1.0750 -0.2236
 9168TIP3    H248920   6.083   0.321  12.817  0.5009  1.0095 -0.1641
 9169TIP3   OH248921   5.604   0.924  11.956  0.1696  0.4934 -0.2882
 9169TIP3    H148922   5.581   0.890  12.042  0.8946 -0.2600 -0.3783
 9169TIP3    H248923   5.547   1.000  11.944  0.9757  1.3901  1.3858
 9170TIP3   OH248924   5.753   0.300  16.061 -0.2909  0.0692  0.0635
 9170TIP3    H148925   5.744   0.366  15.992  0.9984  1.7342  1.3924
 9170TIP3    H248926   5.745   0.350  16.143 -3.7683 -2.0978  1.2318
 9171TIP3   OH248927   2.321   5.185   3.726 -0.1655  0.7448  0.5687
 9171TIP3    H148928   2.351   5.128   3.655 -0.0072  1.7353 -0.1872
 9171TIP3    H248929   2.226   5.178   3.724 -0.1854  1.1169 -0.0565
 9172TIP3   OH248930   3.882   6.313  16.761 -0.5258  0.3687  0.1884
 9172TIP3    H148931   3.870   6.388  16.819 -1.1907  1.2526 -1.0414
 9172TIP3    H248932   3.971   6.322  16.728  0.6381 -1.2857  2.5602
 9173TIP3   OH248933   5.494   0.211  10.733  0.3820 -0.4165 -0.2209
 9173TIP3    H148934   5.456   0.252  10.810  1.4306  1.5008 -0.6569
 9173TIP3    H248935   5.506   0.120  10.758 -1.2055 -0.3054  1.1321
 9174TIP3   OH248936   3.527   0.906  12.013  0.5414  0.0051 -0.3536
 9174TIP3    H148937   3.613   0.945  12.028  1.1716 -1.1993 -0.6991
 9174TIP3    H248938   3.491   0.956  11.939  1.6164 -0.4796 -1.2326
 9175TIP3   OH248939   0.432   2.490  14.783 -0.2317 -0.8459 -0.8041
 9175TIP3    H148940   0.464   2.420  14.727  0.4822 -0.1544 -1.2772
 9175TIP3    H248941   0.371   2.447  14.843  2.1347 -2.3651  0.6837
 9176TIP3   OH248942   5.510   0.575   5.626  0.3210 -0.4876  0.2810
 9176TIP3    H148943   5.504   0.541   5.536  0.1041  0.1211  0.0616
 9176TIP3    H248944   5.545   0.502   5.677 -0.2939 -1.0905 -0.1547
 9177TIP3   OH248945   3.722   4.226  15.282 -0.4310  0.7206 -0.3240
 9177TIP3    H148946   3.646   4.283  15.281 -0.3785  0.8545  1.1313
 9177TIP3    H248947   3.694   4.150  15.333  0.9128  1.5632  1.7924
 9178TIP3   OH248948   5.608   6.164   4.721 -0.0283  0.8297  0.5737
 9178TIP3    H148949   5.653   6.206   4.648 -0.7896 -1.4120 -1.2853
 9178TIP3    H248950   5.679   6.132   4.777  0.5607  2.3625  0.7688
 9179TIP3   OH248951   2.366   0.804  16.186 -0.0379 -0.5490 -0.5194
 9179TIP3    H148952   2.439   0.772  16.239  0.2613  0.0455 -0.5620
 9179TIP3    H248953   2.350   0.734  16.123 -0.6399 -1.4194  0.5820
 9180TIP3   OH248954   4.506   0.325   3.665 -0.2460 -0.4605 -0.5475
 9180TIP3    H148955   4.499   0.300   3.757  0.4175  0.1478 -0.3227
 9180TIP3    H248956   4.477   0.416   3.662 -1.9831 -1.0060 -1.2498
 9181TIP3   OH248957   6.580   6.010  15.370  0.2289  0.0845  0.3392
 9181TIP3    H148958   6.498   5.964  15.390  0.3781 -0.5719 -0.5054
 9181TIP3    H248959   6.605   6.052  15.452  1.0040 -2.7708  1.6747
 9182TIP3   OH248960   1.345   0.742   0.077 -0.0963  0.2275  0.6616
 9182TIP3    H148961   1.309   0.831   0.071  0.8739  0.7281  1.8843
 9182TIP3    H248962   1.419   0.742   0.016 -0.0864  0.2655  0.6734
 9183TIP3   OH248963   1.990   4.741  13.811  0.0849  0.3593  0.1826
 9183TIP3    H148964   1.968   4.658  13.769  0.2678 -0.2867  1.3292
 9183TIP3    H248965   2.050   4.784  13.750 -1.8566  0.7696 -1.5499
 9184TIP3   OH248966   5.933   5.331  14.901 -0.6203  0.1065 -0.4562
 9184TIP3    H148967   5.997   5.379  14.954  0.1155 -0.2858 -0.9824
 9184TIP3    H248968   5.862   5.394  14.887 -0.3993  0.5113  0.2202
 9185TIP3   OH248969   2.403   1.144  12.438  0.2980 -0.4874 -0.8062
 9185TIP3    H148970   2.417   1.231  12.474 -1.6389 -0.6605  0.5264
 9185TIP3    H248971   2.483   1.096  12.458 -0.0350 -0.0567  1.8639
 9186TIP3   OH248972   2.687   5.495  17.194 -0.1473 -0.6674  0.2933
 9186TIP3    H148973   2.628   5.567  17.216  0.2262 -0.0328 -0.6945
 9186TIP3    H248974   2.629   5.423  17.167 -0.5024  0.3160 -1.7795
 9187TIP3   OH248975   2.633   1.377   6.706 -0.3788  0.2209 -0.3603
 9187TIP3    H148976   2.580   1.366   6.786 -0.5531 -2.8457 -0.8012
 9187TIP3    H248977   2.717   1.411   6.738 -0.8681  0.2430  0.9808
 9188TIP3   OH248978   2.563   3.019  13.331  0.2769 -0.1067  0.3089
 9188TIP3    H148979   2.637   3.071  13.301  0.6090  0.7615  2.4179
 9188TIP3    H248980   2.507   3.010  13.254  1.6552  0.8361 -0.8561
 9189TIP3   OH248981   2.688   4.869   6.767  0.4458 -0.3286  0.6971
 9189TIP3    H148982   2.742   4.795   6.794  0.1968 -0.2168  1.5352
 9189TIP3    H248983   2.736   4.908   6.694  0.5689 -1.3195  0.2369
 9190TIP3   OH248984   3.027   5.734   2.380 -0.3691  0.4795  0.4094
 9190TIP3    H148985   2.951   5.754   2.435  0.0938  0.6039  1.0124
 9190TIP3    H248986   2.990   5.717   2.294 -1.0542  0.8773  0.6152
 9191TIP3   OH248987   2.684   3.069  16.349  0.2011  0.0887  0.4835
 9191TIP3    H148988   2.589   3.072  16.360  0.0065  1.8892 -1.1448
 9191TIP3    H248989   2.710   3.161  16.349  1.8538 -0.3600  0.1065
 9192TIP3   OH248990   3.847   3.539  16.828  0.5734 -0.5747 -0.3856
 9192TIP3    H148991   3.892   3.587  16.898 -0.1930  3.0114 -2.1300
 9192TIP3    H248992   3.786   3.482  16.874 -0.3777  2.0878  2.0134
 9193TIP3   OH248993   5.105   3.431  13.363  0.0762 -0.1546  0.2024
 9193TIP3    H148994   5.065   3.437  13.276  0.5265 -0.9033 -0.0713
 9193TIP3    H248995   5.103   3.520  13.397 -0.1772  0.1315 -0.5435
 9194TIP3   OH248996   1.883   2.766   0.048  0.5032  0.2899 -0.4959
 9194TIP3    H148997   1.808   2.754   0.106 -0.1630  2.7191 -0.7850
 9194TIP3    H248998   1.954   2.793   0.106  0.4555  0.5024 -0.5368
 9195TIP3   OH248999   3.532   1.812  10.480  0.9456 -0.2143 -0.7080
 9195TIP3    H149000   3.481   1.741  10.441 -0.9209 -0.3634  1.7222
 9195TIP3    H249001   3.523   1.798  10.575  2.6454  1.8157 -0.1710
 9196TIP3   OH249002   1.847   0.116   0.378 -0.2335 -0.3197 -0.6386
 9196TIP3    H149003   1.857   0.033   0.426  0.5309  0.9086  1.4776
 9196TIP3    H249004   1.877   0.183   0.440  1.4215  1.3739 -3.0823
 9197TIP3   OH249005   5.433   3.497   2.491  0.0357 -0.4288 -0.0429
 9197TIP3    H149006   5.408   3.441   2.565  0.3219 -0.0684  0.3315
 9197TIP3    H249007   5.431   3.586   2.526  3.0098 -0.4162  0.4050
 9198TIP3   OH249008   4.663   3.635   5.914 -0.0939  0.0983 -0.4409
 9198TIP3    H149009   4.594   3.668   5.972  0.2966  0.3441 -0.1084
 9198TIP3    H249010   4.731   3.605   5.974  0.6934  1.1606 -0.7710
 9199TIP3   OH249011   1.936   5.689   6.895  0.0504 -0.3353 -0.0293
 9199TIP3    H149012   1.854   5.723   6.931  0.0144 -1.0309  0.5632
 9199TIP3    H249013   1.932   5.595   6.910  0.8902 -0.3965 -0.1410
 9200TIP3   OH249014   0.640   4.104   1.531  0.3913  0.1850 -0.2104
 9200TIP3    H149015   0.577   4.140   1.593 -0.0377 -1.3426  0.2845
 9200TIP3    H249016   0.711   4.168   1.529 -1.4792  2.3257 -1.3636
 9201TIP3   OH249017   4.595   5.753   0.445  0.0428 -0.9922  0.0100
 9201TIP3    H149018   4.627   5.703   0.370  0.4191 -2.5480  1.1711
 9201TIP3    H249019   4.661   5.740   0.513 -0.5341 -0.0063  0.7922
 9202TIP3   OH249020   3.428   0.240  14.096  0.0591 -0.2072 -0.3835
 9202TIP3    H149021   3.416   0.325  14.137  0.8960  0.5098 -1.5723
 9202TIP3    H249022   3.417   0.256  14.002  0.9510 -1.2545 -0.6968
 9203TIP3   OH249023   4.671   2.312   3.790 -0.0399 -0.5856 -0.3825
 9203TIP3    H149024   4.646   2.369   3.716 -0.5320  0.2899  0.4327
 9203TIP3    H249025   4.596   2.255   3.802  0.2628 -1.1035 -0.8988
 9204TIP3   OH249026   0.381   1.054   4.222 -0.0768 -0.5960  0.1692
 9204TIP3    H149027   0.449   1.001   4.181  0.6477 -1.0200  1.8385
 9204TIP3    H249028   0.342   1.104   4.150  0.7184 -1.7469 -1.0966
 9205TIP3   OH249029   2.441   5.816  12.494  0.5402 -0.4631  0.3418
 9205TIP3    H149030   2.499   5.833  12.420  1.7373 -0.6347  1.2146
 9205TIP3    H249031   2.487   5.750  12.546 -0.1688 -0.1742  1.3592
 9206TIP3   OH249032   6.355   0.427  13.660 -0.0590  0.2358  0.5869
 9206TIP3    H149033   6.436   0.439  13.611  0.1670 -0.0611  0.8774
 9206TIP3    H249034   6.288   0.473  13.610 -0.5339 -2.7673 -1.8616
 9207TIP3   OH249035   6.501   5.253  16.187  0.6950 -0.4587 -0.2774
 9207TIP3    H149036   6.416   5.264  16.145  0.2611 -1.3724  0.3261
 9207TIP3    H249037   6.563   5.299  16.130 -0.5217  2.5176  0.5925
 9208TIP3   OH249038   1.554   5.811  14.913 -0.1137 -0.1398 -0.0314
 9208TIP3    H149039   1.461   5.796  14.930  0.1593 -1.7815  0.1894
 9208TIP3    H249040   1.592   5.724  14.907  1.4255  0.4978 -0.1485
 9209TIP3   OH249041   0.299   3.100   3.715  0.6931  0.4279 -0.5705
 9209TIP3    H149042   0.204   3.092   3.723  0.8410 -1.4165 -0.1646
 9209TIP3    H249043   0.330   3.010   3.704  2.5387  0.7691  1.1549
 9210TIP3   OH249044   3.382   3.079   5.151  0.0488  0.6487 -0.4938
 9210TIP3    H149045   3.318   3.011   5.128  0.7658  0.0511 -0.7564
 9210TIP3    H249046   3.355   3.109   5.238 -0.1633 -0.1188 -0.2869
 9211TIP3   OH249047   1.601   3.896   0.136  0.4515 -0.3193  0.4826
 9211TIP3    H149048   1.604   3.810   0.094  0.6589 -0.3994  0.6561
 9211TIP3    H249049   1.650   3.953   0.076  1.3566 -0.5831  0.9418
 9212TIP3   OH249050   2.660   6.002   3.975  0.4720  0.5000 -0.2364
 9212TIP3    H149051   2.753   6.001   3.996  0.7702 -1.2210 -1.4517
 9212TIP3    H249052   2.651   5.944   3.900 -1.6895  0.0077  0.3195
 9213TIP3   OH249053   1.516   2.833  11.548 -0.5690 -0.1782 -0.1733
 9213TIP3    H149054   1.579   2.852  11.478  0.6850  1.2717  1.2640
 9213TIP3    H249055   1.561   2.770  11.604 -0.3066  0.9086  0.8947
 9214TIP3   OH249056   5.937   4.192   4.921  0.0444 -0.4245 -0.0637
 9214TIP3    H149057   5.942   4.242   4.840 -2.0727  0.2209  0.1269
 9214TIP3    H249058   5.915   4.257   4.988  2.9676 -0.7368  1.3216
 9215TIP3   OH249059   4.790   5.024   3.642 -0.3607 -0.0905 -0.0356
 9215TIP3    H149060   4.802   4.929   3.652 -1.1845 -0.2016 -0.0046
 9215TIP3    H249061   4.826   5.044   3.556  2.8097  0.1365  1.1924
 9216TIP3   OH249062   5.912   5.665  12.149  0.1703  0.4968  0.0224
 9216TIP3    H149063   5.977   5.726  12.113  1.5292  1.1327  3.1937
 9216TIP3    H249064   5.900   5.694  12.240 -0.9665 -2.4873  0.9419
 9217TIP3   OH249065   3.542   5.508  15.912  0.4656  0.3707 -0.5689
 9217TIP3    H149066   3.484   5.439  15.880 -0.2092  0.4317  0.4742
 9217TIP3    H249067   3.607   5.462  15.965 -0.6282  0.5859  1.0489
 9218TIP3   OH249068   4.430   6.147  12.911 -0.0364 -0.6658  0.1377
 9218TIP3    H149069   4.467   6.078  12.857 -0.0164 -1.2747  0.9052
 9218TIP3    H249070   4.382   6.203  12.850  0.7937 -0.7761 -0.6341
 9219TIP3   OH249071   4.763   3.204   2.503 -0.2890 -0.0953 -0.0091
 9219TIP3    H149072   4.790   3.197   2.595  0.2858  0.7202 -0.1127
 9219TIP3    H249073   4.786   3.119   2.465 -2.3945 -1.2227  1.0551
 9220TIP3   OH249074   1.600   0.737  16.853  0.5355 -0.1667 -0.0821
 9220TIP3    H149075   1.631   0.780  16.933 -0.7276  0.2240  0.2263
 9220TIP3    H249076   1.625   0.646  16.864  1.4607  0.1071  0.1872
 9221TIP3   OH249077   4.493   0.886   3.294  0.4974 -0.0352 -0.2366
 9221TIP3    H149078   4.496   0.810   3.352  2.7125 -0.2862 -0.6007
 9221TIP3    H249079   4.525   0.958   3.347  1.7631 -0.1009 -0.8700
 9222TIP3   OH249080   6.323   5.673   5.090 -0.3784  0.3214 -0.5850
 9222TIP3    H149081   6.389   5.687   5.157  0.0640 -0.2109 -0.8997
 9222TIP3    H249082   6.352   5.726   5.016 -2.2111  2.9937  0.4647
 9223TIP3   OH249083   1.367   1.673   4.497  0.1045 -0.4824  0.1620
 9223TIP3    H149084   1.290   1.647   4.446  0.1262 -0.1971 -0.0178
 9223TIP3    H249085   1.356   1.629   4.581 -0.8564  0.4821  0.5650
 9224TIP3   OH249086   6.661   1.350  15.737  0.0692 -0.2347  0.1388
 9224TIP3    H149087   6.590   1.312  15.685  0.0103  1.1991 -0.9004
 9224TIP3    H249088   6.618   1.380  15.818  0.0196 -1.7962  0.7121
 9225TIP3   OH249089   1.422   4.548  16.611  0.4941  0.5855 -0.3528
 9225TIP3    H149090   1.364   4.478  16.581  0.9638  0.6209 -1.3770
 9225TIP3    H249091   1.423   4.611  16.539 -0.6528  2.1284  0.9108
 9226TIP3   OH249092   2.948   2.744   2.333 -0.6761 -0.3488 -0.0081
 9226TIP3    H149093   2.935   2.760   2.240  1.3639 -0.8149 -0.4245
 9226TIP3    H249094   3.038   2.772   2.350 -0.7315 -1.0291  1.6394
 9227TIP3   OH249095   4.342   0.629   1.532  0.0767 -0.2532 -0.1674
 9227TIP3    H149096   4.302   0.668   1.609 -1.1745  1.4880 -1.6098
 9227TIP3    H249097   4.435   0.621   1.554 -0.0268  1.4362  1.0624
 9228TIP3   OH249098   0.918   2.375   5.811  0.5212 -0.8274 -0.3653
 9228TIP3    H149099   1.007   2.380   5.848  0.5486 -0.2836 -0.4962
 9228TIP3    H249100   0.867   2.435   5.865  0.7042  0.4913 -1.6166
 9229TIP3   OH249101   2.316   3.069  12.168 -0.4748 -0.4408  0.0651
 9229TIP3    H149102   2.277   3.142  12.216 -0.8364 -1.7691  1.8905
 9229TIP3    H249103   2.406   3.099  12.150  0.5292 -0.7193  3.7655
 9230TIP3   OH249104   0.694   0.744   3.844  0.1281 -0.1431 -0.6260
 9230TIP3    H149105   0.763   0.734   3.779  1.6200  1.8149  0.5254
 9230TIP3    H249106   0.718   0.824   3.891 -2.0453 -0.3301  0.9197
 9231TIP3   OH249107   6.359   2.412   0.436 -0.2341  0.5357 -0.0016
 9231TIP3    H149108   6.405   2.495   0.434 -0.2955  0.5599 -0.9624
 9231TIP3    H249109   6.418   2.351   0.393 -0.5048  0.2453  0.0330
 9232TIP3   OH249110   2.965   6.116  11.040 -0.1362  0.3812  0.4136
 9232TIP3    H149111   2.911   6.184  11.001  1.0856  1.0021 -0.2260
 9232TIP3    H249112   3.042   6.111  10.984  1.5867  1.1460  2.6021
 9233TIP3   OH249113   2.439   3.525  12.144 -0.2883 -0.0122  0.3448
 9233TIP3    H149114   2.504   3.561  12.084 -1.0458  0.9291  0.0600
 9233TIP3    H249115   2.356   3.531  12.096 -0.5133 -1.8142  0.4350
 9234TIP3   OH249116   6.527   3.619  16.274 -0.0479 -0.2270 -0.7720
 9234TIP3    H149117   6.556   3.614  16.365 -1.1808  2.0599 -0.2057
 9234TIP3    H249118   6.538   3.530  16.240 -0.4421 -1.3754  1.8541
 9235TIP3   OH249119   2.326   6.489  13.021 -0.0631 -0.0997  0.2757
 9235TIP3    H149120   2.349   6.504  12.929 -0.2809  0.6202  0.3321
 9235TIP3    H249121   2.384   6.418  13.048 -1.4982 -1.8650 -1.0124
 9236TIP3   OH249122   0.334   2.900  13.162 -0.2081  0.2441 -0.7724
 9236TIP3    H149123   0.267   2.899  13.230  0.7767 -0.7500  0.2299
 9236TIP3    H249124   0.287   2.919  13.082 -1.2984  2.3767  0.2920
 9237TIP3   OH249125   4.707   5.728   1.644 -0.5381 -0.1005 -0.2211
 9237TIP3    H149126   4.623   5.745   1.602 -1.5390  1.1928  2.1343
 9237TIP3    H249127   4.738   5.646   1.604 -1.6345  0.7377 -2.9605
 9238TIP3   OH249128   5.781   3.503   4.869 -0.1434  0.4247 -0.3773
 9238TIP3    H149129   5.732   3.473   4.945 -1.2991  2.6049 -0.1862
 9238TIP3    H249130   5.715   3.515   4.800  0.4638  1.1075 -0.8616
 9239TIP3   OH249131   5.390   1.246  12.807  0.3711  0.0779  0.1061
 9239TIP3    H149132   5.358   1.336  12.810 -0.4260 -0.1308 -1.2138
 9239TIP3    H249133   5.349   1.203  12.882  0.5477  0.7383  0.5881
 9240TIP3   OH249134   1.044   2.087   5.140  0.7110  0.5827  0.5389
 9240TIP3    H149135   1.060   2.033   5.217 -1.4522 -0.4305  0.3276
 9240TIP3    H249136   0.960   2.129   5.157  0.2271  0.3937 -1.2317
 9241TIP3   OH249137   0.788   4.819  14.890 -0.4956  0.1648 -0.0422
 9241TIP3    H149138   0.811   4.833  14.798 -1.0968 -0.0943 -0.2427
 9241TIP3    H249139   0.694   4.840  14.894 -0.4316  0.3471  0.5478
 9242TIP3   OH249140   0.456   6.255   1.257 -0.1300  0.1096  0.1721
 9242TIP3    H149141   0.451   6.310   1.335  0.3917  0.3232  0.0575
 9242TIP3    H249142   0.385   6.287   1.201 -0.0040  0.4920  0.2228
 9243TIP3   OH249143   1.442   6.318  12.512  0.2048  0.7152 -0.7179
 9243TIP3    H149144   1.398   6.332  12.428 -1.7706  0.5763  0.2296
 9243TIP3    H249145   1.469   6.226  12.509 -3.4063 -0.5519  0.2414
 9244TIP3   OH249146   5.702   5.505   4.563  0.4767 -0.0472  0.1035
 9244TIP3    H149147   5.649   5.427   4.577 -1.7486  1.5059  1.1522
 9244TIP3    H249148   5.693   5.523   4.469  0.3190 -0.6011  0.0075
 9245TIP3   OH249149   5.782   4.835   2.271 -0.9295 -0.1342  0.0943
 9245TIP3    H149150   5.767   4.880   2.187  0.8183 -0.3577 -0.3778
 9245TIP3    H249151   5.725   4.758   2.267 -1.5110  0.3123 -0.5129
 9246TIP3   OH249152   0.918   3.862   1.236 -0.5391 -0.1129 -0.6832
 9246TIP3    H149153   0.974   3.785   1.229 -0.1998 -0.0621  1.1165
 9246TIP3    H249154   0.961   3.918   1.300 -1.5271  0.9309 -0.8951
 9247TIP3   OH249155   4.797   6.586   4.614 -0.2101  0.1689 -0.7389
 9247TIP3    H149156   4.859   6.515   4.623  1.0077  1.1934 -0.7371
 9247TIP3    H249157   4.711   6.545   4.626  0.5414 -0.9701  1.2536
 9248TIP3   OH249158   3.797   3.270  14.661  0.5069 -0.4023 -0.2923
 9248TIP3    H149159   3.873   3.216  14.681  0.6056 -0.6403 -1.2836
 9248TIP3    H249160   3.834   3.352  14.628  0.3502  0.0992  0.7471
 9249TIP3   OH249161   0.748   1.540   5.643 -0.6118 -0.2316 -0.4903
 9249TIP3    H149162   0.697   1.583   5.711  2.6359  1.3491  1.1871
 9249TIP3    H249163   0.714   1.451   5.641 -2.1445  0.1942  1.8141
 9250TIP3   OH249164   3.537   5.422   5.736  0.1744  0.8979  0.8125
 9250TIP3    H149165   3.454   5.426   5.784  0.0169  0.2419  0.6088
 9250TIP3    H249166   3.604   5.414   5.805 -0.1466 -1.4029  0.9302
 9251TIP3   OH249167   1.759   6.438  12.121 -0.2601 -0.3049 -0.1434
 9251TIP3    H149168   1.742   6.346  12.141 -0.1631 -1.0522 -3.0116
 9251TIP3    H249169   1.710   6.455  12.041 -0.7602  2.3620  0.6298
 9252TIP3   OH249170   6.054   3.499   3.606 -0.0678 -0.3212  0.0178
 9252TIP3    H149171   5.988   3.567   3.611 -0.5944 -0.7278 -0.9923
 9252TIP3    H249172   6.121   3.535   3.549 -0.1170 -0.4621 -0.1296
 9253TIP3   OH249173   0.768   2.099   2.493  0.3875 -0.4262  0.1301
 9253TIP3    H149174   0.849   2.060   2.524  0.7588  0.2565  0.0415
 9253TIP3    H249175   0.745   2.049   2.415  2.8447  1.7601 -2.2325
 9254TIP3   OH249176   5.300   6.612  14.806  0.2475 -0.1021 -0.4842
 9254TIP3    H149177   5.381   6.663  14.798 -0.0097  0.2234 -1.0245
 9254TIP3    H249178   5.231   6.678  14.814  0.1160 -0.3731  0.9656
 9255TIP3   OH249179   1.201   2.508  11.687 -0.6389  0.2890 -0.1573
 9255TIP3    H149180   1.285   2.551  11.670 -0.6081  0.3950  0.2662
 9255TIP3    H249181   1.161   2.559  11.757 -0.8045 -0.1024  0.0375
 9256TIP3   OH249182   3.456   2.119   4.779  0.2154  0.7292 -0.1058
 9256TIP3    H149183   3.400   2.143   4.706  0.9360  0.8594 -0.6340
 9256TIP3    H249184   3.514   2.195   4.791  0.2999  0.5901  0.4071
 9257TIP3   OH249185   5.219   0.603  10.584  0.4150  0.1018 -0.3967
 9257TIP3    H149186   5.198   0.622  10.493  1.8015  0.4634 -0.6568
 9257TIP3    H249187   5.247   0.511  10.584 -2.4435 -0.8869  0.2070
 9258TIP3   OH249188   0.527   3.577   5.352 -0.3486 -0.2118 -0.5886
 9258TIP3    H149189   0.594   3.644   5.366 -0.5992  0.1966 -1.3103
 9258TIP3    H249190   0.445   3.618   5.378 -0.4205 -0.4540 -0.4272
 9259TIP3   OH249191   6.265   2.643  16.776  0.1148  0.1104  0.0739
 9259TIP3    H149192   6.248   2.696  16.853 -0.2085 -0.6409  0.5369
 9259TIP3    H249193   6.354   2.611  16.787 -0.2816 -0.8379  0.6724
 9260TIP3   OH249194   2.310   0.997   1.195  0.1755  0.0050  0.1951
 9260TIP3    H149195   2.384   0.938   1.182  0.5371  0.4184  0.3651
 9260TIP3    H249196   2.258   0.988   1.115 -1.0178 -2.2741  1.1283
 9261TIP3   OH249197   2.430   5.392   4.401 -0.2289  0.3376 -0.3932
 9261TIP3    H149198   2.393   5.332   4.337  0.1344  1.4266 -1.6526
 9261TIP3    H249199   2.369   5.466   4.404 -0.3715  0.1960  0.7127
 9262TIP3   OH249200   5.031   1.614   0.412 -0.0717  0.2610 -0.0091
 9262TIP3    H149201   4.984   1.669   0.349  1.6693  1.2365 -0.5221
 9262TIP3    H249202   5.093   1.564   0.359 -1.1705 -1.8229  0.5193
 9263TIP3   OH249203   2.824   1.316  13.636 -0.3644 -0.3675 -0.1022
 9263TIP3    H149204   2.859   1.405  13.625 -0.6593 -0.4759 -2.2794
 9263TIP3    H249205   2.735   1.330  13.670 -0.0602  0.1224  0.5044
 9264TIP3   OH249206   0.649   0.245   4.634 -0.2970 -0.0220 -0.6251
 9264TIP3    H149207   0.620   0.286   4.552  0.6053  0.9085 -0.4999
 9264TIP3    H249208   0.716   0.305   4.669  1.0177 -1.5682 -0.3773
 9265TIP3   OH249209   3.860   1.995  13.522  0.1761  0.8772 -0.6501
 9265TIP3    H149210   3.904   1.959  13.599 -2.6354  1.6193  1.4680
 9265TIP3    H249211   3.925   1.988  13.452  1.7112 -3.1125  0.8750
 9266TIP3   OH249212   0.122   1.105  11.202 -0.1412 -0.1798 -0.4098
 9266TIP3    H149213   0.075   1.184  11.174 -0.5856 -0.9352 -1.8976
 9266TIP3    H249214   0.204   1.108  11.152  0.0915 -0.3676 -0.0389
 9267TIP3   OH249215   0.458   3.914  13.754  0.1659  0.2381  0.3211
 9267TIP3    H149216   0.539   3.961  13.774  0.0423  0.0097  1.4068
 9267TIP3    H249217   0.483   3.851  13.686  1.2135 -0.6607  1.4734
 9268TIP3   OH249218   1.759   5.152   5.710  0.0855 -0.1959  0.0712
 9268TIP3    H149219   1.718   5.207   5.644  0.0108 -0.4298 -0.0761
 9268TIP3    H249220   1.766   5.209   5.787  0.6488  0.2328 -0.2963
 9269TIP3   OH249221   3.780   2.081  11.270 -0.6642  0.3208  0.3304
 9269TIP3    H149222   3.772   2.018  11.341 -1.3636 -0.8404 -0.7218
 9269TIP3    H249223   3.720   2.152  11.295 -0.0795  0.4563  1.3994
 9270TIP3   OH249224   6.694   4.900  13.547  0.1455  0.0765 -0.3488
 9270TIP3    H149225   6.699   4.955  13.625  1.7888 -0.1602 -0.2476
 9270TIP3    H249226   6.711   4.811  13.579  0.2902 -0.1003 -0.8926
 9271TIP3   OH249227   2.985   3.651  12.107  0.0595 -0.0945  0.0846
 9271TIP3    H149228   2.995   3.596  12.029  1.8152  0.5220 -0.1602
 9271TIP3    H249229   3.071   3.691  12.119 -0.5701  0.8726  1.5594
 9272TIP3   OH249230   2.388   0.534  13.076 -0.0020 -0.4049  0.1060
 9272TIP3    H149231   2.431   0.484  13.006  1.4373 -0.6709  1.1469
 9272TIP3    H249232   2.299   0.549  13.043 -0.2163 -2.8585 -0.6253
 9273TIP3   OH249233   5.386   1.723   0.809  1.1856  0.2503  0.0452
 9273TIP3    H149234   5.437   1.794   0.850  0.4390  0.7955  0.0415
 9273TIP3    H249235   5.307   1.766   0.777 -0.4009 -0.9675  2.1216
 9274TIP3   OH249236   4.955   6.520  14.235  0.2239  0.6442  0.4511
 9274TIP3    H149237   5.031   6.528  14.177  0.9825  2.4411  1.6145
 9274TIP3    H249238   4.894   6.587  14.205  0.0261  0.6583  0.8808
 9275TIP3   OH249239   2.921   1.795  13.485 -0.0443  0.5015  0.3405
 9275TIP3    H149240   2.867   1.871  13.465 -1.5732 -0.8545 -1.0041
 9275TIP3    H249241   2.977   1.784  13.407 -0.9410 -0.6177 -0.1794
 9276TIP3   OH249242   6.692   5.713   3.147  0.3775 -0.3106  0.1276
 9276TIP3    H149243   6.719   5.641   3.204  0.6983 -0.5446 -0.3138
 9276TIP3    H249244   6.642   5.771   3.204  0.1654 -0.8513  0.4998
 9277TIP3   OH249245   6.168   4.955   2.034  0.1065  0.2668 -0.7612
 9277TIP3    H149246   6.242   4.974   2.092 -1.4151  3.9972  0.2821
 9277TIP3    H249247   6.109   4.902   2.087  1.1129 -1.1107 -0.9526
 9278TIP3   OH249248   3.554   2.505  13.362  0.3017 -0.6622 -0.6274
 9278TIP3    H149249   3.584   2.516  13.272  0.2704  0.5509 -0.5092
 9278TIP3    H249250   3.588   2.420  13.389  1.8800 -0.2293 -1.1787
 9279TIP3   OH249251   4.144   0.782  15.658  0.0691  0.0307  0.3711
 9279TIP3    H149252   4.218   0.723  15.649 -0.3783 -0.3621 -0.9760
 9279TIP3    H249253   4.183   0.870  15.661  0.5844 -0.1669 -0.4464
 9280TIP3   OH249254   5.209   3.896   3.021 -0.2860  0.2614 -0.3982
 9280TIP3    H149255   5.227   3.990   3.013 -1.9013  0.6525  0.1389
 9280TIP3    H249256   5.209   3.864   2.930  2.1917  0.3304 -0.5028
 9281TIP3   OH249257   5.678   5.681  16.043 -0.2951  0.3259  0.0673
 9281TIP3    H149258   5.670   5.775  16.061 -2.3316  0.2733 -0.3178
 9281TIP3    H249259   5.737   5.675  15.968  0.4857  1.2312  0.5960
 9282TIP3   OH249260   5.812   5.162   3.029  0.0675  0.0393  0.3958
 9282TIP3    H149261   5.771   5.162   2.942  1.4895 -1.2347 -0.3289
 9282TIP3    H249262   5.747   5.123   3.086  0.4518 -2.7736 -0.8949
 9283TIP3   OH249263   5.172   3.835  11.882 -0.0463 -0.1680 -0.4574
 9283TIP3    H149264   5.267   3.834  11.876 -0.0259 -1.2450 -0.0826
 9283TIP3    H249265   5.142   3.787  11.804 -0.2293 -1.0528  0.1453
 9284TIP3   OH249266   2.568   3.841  12.833 -0.5444  0.1177 -0.0666
 9284TIP3    H149267   2.630   3.901  12.792 -1.7777  1.2624 -0.3047
 9284TIP3    H249268   2.570   3.864  12.926 -0.1874 -0.2485  0.0202
 9285TIP3   OH249269   3.621   1.083   1.086 -0.3052 -0.4095  0.0782
 9285TIP3    H149270   3.530   1.059   1.065  0.2289 -1.2196 -1.5143
 9285TIP3    H249271   3.663   0.999   1.107  0.3502 -0.1972 -0.3728
 9286TIP3   OH249272   1.469   2.349  13.143 -0.4760 -0.7202 -0.1665
 9286TIP3    H149273   1.531   2.405  13.188 -0.9184 -0.3502 -0.0035
 9286TIP3    H249274   1.391   2.349  13.199 -0.6465 -1.1150 -0.3982
 9287TIP3   OH249275   6.459   4.606  13.408 -0.1852 -0.4401 -0.4477
 9287TIP3    H149276   6.411   4.617  13.326  1.1139  0.4537 -1.1279
 9287TIP3    H249277   6.502   4.521  13.399 -1.0823 -0.9371 -0.1208
 9288TIP3   OH249278   5.869   4.665  15.680  0.2496  0.7074  0.0392
 9288TIP3    H149279   5.953   4.690  15.642  0.5995 -0.9076 -0.3465
 9288TIP3    H249280   5.876   4.690  15.772  1.6295 -0.4078  0.2767
 9289TIP3   OH249281   2.740   3.750  11.464  0.1164 -0.5304  0.2844
 9289TIP3    H149282   2.705   3.674  11.416 -0.9510 -1.2619  2.1209
 9289TIP3    H249283   2.687   3.823  11.434  2.0877 -0.0843 -2.6088
 9290TIP3   OH249284   4.659   3.772   3.058  0.3949  0.0681 -0.1758
 9290TIP3    H149285   4.696   3.744   3.142  1.3732 -0.8591 -0.8881
 9290TIP3    H249286   4.601   3.699   3.032 -0.0382  0.4289 -0.2332
 9291TIP3   OH249287   2.943   0.460   0.041  0.2101 -0.3113  0.9726
 9291TIP3    H149288   2.998   0.500   0.108  0.1572  1.2749  0.1039
 9291TIP3    H249289   2.854   0.476   0.070  0.1649  1.1712  0.1423
 9292TIP3   OH249290   0.504   0.753  11.541 -0.7478  0.3181  0.5359
 9292TIP3    H149291   0.534   0.825  11.597  1.8041  0.1461 -0.4931
 9292TIP3    H249292   0.443   0.794  11.480 -0.7890  1.2047  1.1402
 9293TIP3   OH249293   0.737   2.238   1.762  0.1775 -0.9242 -0.1958
 9293TIP3    H149294   0.806   2.195   1.813  0.7599 -2.5583 -2.1938
 9293TIP3    H249295   0.664   2.176   1.763  0.1122 -0.8863 -1.0764
 9294TIP3   OH249296   3.825   6.323   3.550 -0.2726  0.1150  0.5751
 9294TIP3    H149297   3.875   6.332   3.469  0.2542 -2.8685  0.4722
 9294TIP3    H249298   3.872   6.378   3.613  2.0148 -1.0287 -0.0275
 9295TIP3   OH249299   6.132   2.543   1.811  0.4093  0.0145  0.6786
 9295TIP3    H149300   6.170   2.584   1.889  0.9098 -1.4183  1.2320
 9295TIP3    H249301   6.057   2.598   1.789 -0.5302 -0.2218  2.9652
 9296TIP3   OH249302   6.338   1.231  16.833  0.2588  0.0649 -0.1477
 9296TIP3    H149303   6.392   1.239  16.911  1.8080  1.2033 -1.2603
 9296TIP3    H249304   6.255   1.273  16.857 -1.0570 -3.4749  2.2402
 9297TIP3   OH249305   4.876   1.880  15.206 -0.2472  0.0484 -0.5458
 9297TIP3    H149306   4.863   1.796  15.250 -0.7779 -0.0053 -0.8001
 9297TIP3    H249307   4.967   1.905  15.227 -0.0721 -0.6080 -0.5181
 9298TIP3   OH249308   5.517   5.577  15.382 -0.1563  0.0043  0.4797
 9298TIP3    H149309   5.599   5.607  15.422  0.3965 -1.3037  0.3636
 9298TIP3    H249310   5.512   5.484  15.404 -1.0485 -0.1893 -0.4709
 9299TIP3   OH249311   0.675   1.900   3.740  1.1153 -0.0061  0.3602
 9299TIP3    H149312   0.693   1.852   3.659  0.1928  0.1437  0.0555
 9299TIP3    H249313   0.688   1.835   3.809 -0.9405 -0.9904 -0.0966
 9300TIP3   OH249314   0.361   2.782  13.649 -0.2874  0.1605  0.6059
 9300TIP3    H149315   0.360   2.825  13.734 -0.1040 -0.7405  1.0696
 9300TIP3    H249316   0.447   2.739  13.645 -1.2678 -1.9291  1.0457
 9301TIP3   OH249317   3.045   4.856  16.286  0.4203  0.0211  0.2185
 9301TIP3    H149318   3.091   4.799  16.348  0.3112  1.7132  1.9491
 9301TIP3    H249319   2.960   4.814  16.272  0.7821 -0.8256  0.5306
 9302TIP3   OH249320   3.413   1.561   1.534  0.5619 -0.0662 -0.1283
 9302TIP3    H149321   3.476   1.614   1.484  0.8275  0.3754  0.6662
 9302TIP3    H249322   3.328   1.586   1.498  0.6160  1.5467  0.8015
 9303TIP3   OH249323   0.577   0.536  11.129 -0.6976  0.0348  0.4177
 9303TIP3    H149324   0.658   0.584  11.118 -0.5854 -0.4657 -1.1989
 9303TIP3    H249325   0.513   0.583  11.075 -1.5243  0.4836  1.7487
 9304TIP3   OH249326   3.939   3.596  13.975  0.2340  0.2411 -0.1824
 9304TIP3    H149327   3.857   3.644  13.988 -0.4473 -0.9257 -0.0936
 9304TIP3    H249328   3.987   3.609  14.056 -2.0198 -3.1687  1.9448
 9305TIP3   OH249329   4.336   6.005  16.000 -0.0129  0.2268 -0.1831
 9305TIP3    H149330   4.394   6.082  15.994 -2.1998  1.9449 -0.6427
 9305TIP3    H249331   4.322   5.993  16.094  2.2364 -1.2120  0.0402
 9306TIP3   OH249332   4.228   3.565  11.848  0.1824 -0.5057  0.4345
 9306TIP3    H149333   4.150   3.550  11.794  1.6762 -1.2751 -1.6259
 9306TIP3    H249334   4.255   3.478  11.876  0.9176 -0.3657  0.1855
 9307TIP3   OH249335   0.287   3.359   4.213  0.2478 -0.2601  0.1738
 9307TIP3    H149336   0.334   3.313   4.144  0.4656 -0.8594  0.7099
 9307TIP3    H249337   0.196   3.360   4.184  0.0664 -1.9404  0.6069
 9308TIP3   OH249338   6.529   0.847   4.741  0.0181  0.6092 -0.4265
 9308TIP3    H149339   6.583   0.880   4.670  0.6335  0.4893 -0.0224
 9308TIP3    H249340   6.457   0.800   4.697  1.2602 -0.8602 -0.9805
 9309TIP3   OH249341   0.600   3.308   1.447 -0.2065 -0.1181  0.2307
 9309TIP3    H149342   0.509   3.299   1.417  0.3281  2.1647 -2.5673
 9309TIP3    H249343   0.595   3.369   1.521 -0.9226  1.0344 -0.7168
 9310TIP3   OH249344   5.259   6.715   6.458 -0.1806 -0.3873 -0.2335
 9310TIP3    H149345   5.331   6.771   6.485  0.3886 -1.5529  0.7617
 9310TIP3    H249346   5.187   6.740   6.516 -0.3226  0.1501 -0.6273
 9311TIP3   OH249347   5.565   0.678   6.405  0.5568  0.3742 -0.6134
 9311TIP3    H149348   5.543   0.757   6.455 -1.1253 -1.3105  1.5054
 9311TIP3    H249349   5.484   0.656   6.360  0.2036 -1.4227  0.7823
 9312TIP3   OH249350   4.124   4.910  16.666 -0.3424  0.1015 -0.1277
 9312TIP3    H149351   4.167   4.911  16.751 -0.9473 -0.8304  0.1940
 9312TIP3    H249352   4.042   4.958  16.680 -1.0797 -1.2079  0.1737
 9313TIP3   OH249353   2.548   3.694   5.407 -0.2742 -0.3474 -0.3689
 9313TIP3    H149354   2.498   3.637   5.350 -2.0238  0.5126  0.2520
 9313TIP3    H249355   2.542   3.654   5.494 -2.0504  1.0075  0.2030
 9314TIP3   OH249356   5.624   5.944  16.906 -0.0618 -0.0284 -0.0994
 9314TIP3    H149357   5.663   6.027  16.878 -0.4067 -0.4617 -1.9979
 9314TIP3    H249358   5.546   5.970  16.954 -0.2437  0.7651 -0.7872
 9315TIP3   OH249359   1.352   1.307   6.445  0.4976 -0.1407  0.5977
 9315TIP3    H149360   1.385   1.375   6.386  0.2552  0.6443  1.3444
 9315TIP3    H249361   1.380   1.336   6.532  0.2900 -0.9425  0.9404
 9316TIP3   OH249362   5.061   3.196  15.167  0.4836 -0.6336 -0.8122
 9316TIP3    H149363   5.001   3.269  15.148  1.3054  0.2574 -0.0677
 9316TIP3    H249364   5.110   3.183  15.086  1.2995  0.5849 -0.5310
 9317TIP3   OH249365   6.618   2.106  12.999  0.2977 -0.3774 -0.6278
 9317TIP3    H149366   6.579   2.176  13.052  0.4824 -0.6278 -0.1564
 9317TIP3    H249367   6.545   2.048  12.979 -0.0211  0.3703 -1.7120
 9318TIP3   OH249368   5.123   1.853   0.707  0.5543  0.5250 -0.1170
 9318TIP3    H149369   5.110   1.917   0.777  1.2776  0.6724 -0.1118
 9318TIP3    H249370   5.118   1.905   0.626 -0.1125  0.3813 -0.1762
 9319TIP3   OH249371   5.504   6.516   0.168  0.1041  0.0825 -0.0378
 9319TIP3    H149372   5.539   6.500   0.256  0.3073  0.8083  0.0174
 9319TIP3    H249373   5.516   6.610   0.154  0.5369 -0.1160 -1.0485
 9320TIP3   OH249374   1.145   5.822   5.479 -0.2757 -0.3515 -0.3679
 9320TIP3    H149375   1.157   5.906   5.435 -1.3430 -0.7098 -1.4091
 9320TIP3    H249376   1.096   5.843   5.559  1.2477  0.2460  0.4353
 9321TIP3   OH249377   2.612   2.499   0.353  0.1123 -0.0661 -0.4137
 9321TIP3    H149378   2.557   2.445   0.409  1.2468 -1.1441 -0.2970
 9321TIP3    H249379   2.632   2.577   0.405 -0.3777 -0.1799 -0.0539
 9322TIP3   OH249380   5.514   4.265   1.942  0.3014 -0.3162  0.5469
 9322TIP3    H149381   5.603   4.284   1.971  0.2048 -0.0077  0.6554
 9322TIP3    H249382   5.477   4.209   2.011  0.0315  0.5158  1.1006
 9323TIP3   OH249383   2.804   5.267  14.342 -0.6687  0.3424 -0.1654
 9323TIP3    H149384   2.866   5.214  14.291 -0.1310  2.9845 -2.4854
 9323TIP3    H249385   2.731   5.207  14.358  1.3780 -2.1424  0.5467
 9324TIP3   OH249386   6.607   6.091   2.096 -0.3745 -0.4957 -0.2739
 9324TIP3    H149387   6.593   6.051   2.182 -2.2431  0.1186 -0.2441
 9324TIP3    H249388   6.536   6.154   2.088  2.3189  2.7472 -0.4171
 9325TIP3   OH249389   4.346   1.208   3.113  0.5231 -0.2354  0.0784
 9325TIP3    H149390   4.335   1.113   3.106 -0.8679  0.0238 -2.9884
 9325TIP3    H249391   4.273   1.237   3.169  0.4782 -0.8841  0.3595
 9326TIP3   OH249392   2.192   3.644  17.203  0.1337  0.0515  0.4288
 9326TIP3    H149393   2.106   3.681  17.185  0.1812 -0.1899 -0.3147
 9326TIP3    H249394   2.178   3.550  17.205  0.1770  0.0587  1.4460
 9327TIP3   OH249395   6.559   1.830   4.380  0.6878 -0.5125  0.0229
 9327TIP3    H149396   6.500   1.844   4.306 -2.9818  1.1106  2.9224
 9327TIP3    H249397   6.610   1.911   4.385  0.7791 -0.5278 -0.5683
 9328TIP3   OH249398   4.937   1.136   4.863  0.1112 -0.0635  0.7608
 9328TIP3    H149399   4.918   1.066   4.800 -0.5492  0.5567  0.2533
 9328TIP3    H249400   4.891   1.110   4.943  0.4988 -0.5839  0.8193
 9329TIP3   OH249401   3.614   6.412   1.556  0.3349 -0.1875  0.0900
 9329TIP3    H149402   3.577   6.487   1.510  0.9050  0.4666  0.6554
 9329TIP3    H249403   3.707   6.412   1.531  0.0672 -1.5567 -0.9939
 9330TIP3   OH249404   2.112   5.059   2.500 -0.2186  0.1772  0.1540
 9330TIP3    H149405   2.131   5.148   2.530 -0.6221 -0.1330  1.4171
 9330TIP3    H249406   2.165   5.048   2.421  0.4106  1.2754  0.4013
 9331TIP3   OH249407   3.071   6.034   3.323 -0.7947  0.6212  0.0030
 9331TIP3    H149408   3.149   5.983   3.344 -1.8211 -0.9511  0.1225
 9331TIP3    H249409   3.031   5.989   3.249 -2.3756  0.5056  0.8793
 9332TIP3   OH249410   1.614   5.258   0.627  0.2180 -0.8276  0.8830
 9332TIP3    H149411   1.618   5.169   0.661  2.1072 -0.3442  2.0914
 9332TIP3    H249412   1.655   5.312   0.694 -0.7037  0.9590  0.1073
 9333TIP3   OH249413   3.788   6.175   5.200 -0.9423 -0.6649  0.1528
 9333TIP3    H149414   3.772   6.268   5.219 -0.0898 -0.6360  0.7891
 9333TIP3    H249415   3.700   6.137   5.193 -1.3019  0.2234 -0.3363
 9334TIP3   OH249416   0.241   0.992  12.617 -0.0032 -0.2141  0.1166
 9334TIP3    H149417   0.324   1.039  12.603  0.3207 -0.8886 -0.2713
 9334TIP3    H249418   0.222   1.005  12.710 -0.5029  1.6167 -0.1957
 9335TIP3   OH249419   2.167   0.173   4.907 -0.2783  0.1986 -0.4976
 9335TIP3    H149420   2.194   0.242   4.846 -0.0674  0.3034 -0.2876
 9335TIP3    H249421   2.158   0.218   4.991 -0.6698  0.0743 -0.4731
 9336TIP3   OH249422   6.683   4.439   4.819 -0.4932  0.6767  0.5051
 9336TIP3    H149423   6.775   4.457   4.798 -0.3467 -1.1341 -0.6516
 9336TIP3    H249424   6.640   4.524   4.811  0.2662  0.9046 -3.7346
 9337TIP3   OH249425   4.170   2.797   3.136 -0.0490  0.3285 -0.1126
 9337TIP3    H149426   4.242   2.759   3.185 -0.3685 -1.4611 -0.9337
 9337TIP3    H249427   4.210   2.863   3.080  0.7178  0.4171  0.5371
 9338TIP3   OH249428   5.232   2.530   1.511 -0.1256  0.0269  0.5785
 9338TIP3    H149429   5.246   2.609   1.563 -0.4603 -0.0835  0.8465
 9338TIP3    H249430   5.156   2.488   1.552 -0.7274  0.2028 -0.3210
 9339TIP3   OH249431   1.955   3.535   5.532 -0.0783 -0.1247  0.0174
 9339TIP3    H149432   2.013   3.609   5.517  1.0339 -1.0024 -0.2155
 9339TIP3    H249433   2.014   3.465   5.562 -1.0378 -1.0005 -0.0932
 9340TIP3   OH249434   3.678   0.097  11.241 -0.5059  0.9244 -0.0449
 9340TIP3    H149435   3.694   0.006  11.216  1.6856  1.3984 -0.5391
 9340TIP3    H249436   3.678   0.096  11.336  1.1442  0.6132 -0.0173
 9341TIP3   OH249437   3.543   1.308   3.794 -0.1912  0.2014 -0.2817
 9341TIP3    H149438   3.479   1.263   3.739  0.1337 -0.9852  0.2799
 9341TIP3    H249439   3.552   1.395   3.755 -0.7710 -0.2522 -1.4523
 9342TIP3   OH249440   0.291   1.970  14.972 -0.1482  0.1191 -0.5783
 9342TIP3    H149441   0.382   1.975  14.946 -0.1637  0.9119 -0.4942
 9342TIP3    H249442   0.289   2.004  15.062 -0.5905  0.5700 -0.7497
 9343TIP3   OH249443   5.192   3.500   2.770 -0.0798 -0.1782 -0.5045
 9343TIP3    H149444   5.249   3.436   2.729  0.5361  1.1114 -1.7498
 9343TIP3    H249445   5.111   3.496   2.719 -0.0248  0.0493 -0.6118
 9344TIP3   OH249446   5.201   1.549  13.766 -0.3717  0.3059  0.9524
 9344TIP3    H149447   5.242   1.480  13.715  0.7801  1.7856 -0.2043
 9344TIP3    H249448   5.245   1.545  13.851  0.7407  0.5538  0.4007
 9345TIP3   OH249449   0.483   4.079  12.202 -0.0555 -0.0990 -0.0015
 9345TIP3    H149450   0.401   4.056  12.159 -0.7931  1.7440  0.3477
 9345TIP3    H249451   0.493   4.173  12.188  0.3995  0.3329  2.5993
 9346TIP3   OH249452   1.419   1.005  16.907 -0.2633  0.2421  0.1061
 9346TIP3    H149453   1.433   0.943  16.835 -1.8108  2.2234 -2.0392
 9346TIP3    H249454   1.327   0.994  16.930 -0.4303  1.4114  0.0171
 9347TIP3   OH249455   3.268   0.256   4.653 -0.1039  0.2306 -0.0375
 9347TIP3    H149456   3.277   0.290   4.564 -0.7978  0.5368  0.0013
 9347TIP3    H249457   3.238   0.331   4.704  0.7864  0.1889  0.5617
 9348TIP3   OH249458   1.546   4.586   4.087 -0.5344 -0.3954  0.2542
 9348TIP3    H149459   1.542   4.675   4.123 -2.9845  0.2219 -1.3149
 9348TIP3    H249460   1.598   4.595   4.007  1.6373 -1.0240  1.4995
 9349TIP3   OH249461   4.159   5.328  15.442 -0.1462 -0.3236 -0.1076
 9349TIP3    H149462   4.240   5.305  15.487  0.1289  1.1767  0.2202
 9349TIP3    H249463   4.122   5.244  15.414  2.0696 -1.0046 -1.2445
 9350TIP3   OH249464   2.373   3.657  11.390  0.5394 -0.0319 -0.2045
 9350TIP3    H149465   2.284   3.681  11.417  0.6586  0.0658  0.0964
 9350TIP3    H249466   2.379   3.690  11.300 -0.4559 -1.8624 -1.0167
 9351TIP3   OH249467   0.644   2.250  14.869  0.2511  0.1312 -0.5177
 9351TIP3    H149468   0.638   2.157  14.893  0.3053  0.2599  0.0143
 9351TIP3    H249469   0.613   2.254  14.779  0.2435 -0.4050 -0.5417
 9352TIP3   OH249470   4.082   2.414   4.529  0.0379 -0.1841  0.1192
 9352TIP3    H149471   4.075   2.319   4.522  3.0462 -0.6820  2.0218
 9352TIP3    H249472   4.056   2.447   4.443 -1.3909 -2.6445 -0.4943
 9353TIP3   OH249473   2.102   0.702   4.851 -0.3161  0.3575  0.2892
 9353TIP3    H149474   2.109   0.797   4.839 -1.1893  0.7393  2.3212
 9353TIP3    H249475   2.185   0.667   4.819 -0.0876  1.7544 -0.7501
 9354TIP3   OH249476   3.876   3.240   4.777 -0.7295 -0.5366 -0.2389
 9354TIP3    H149477   3.832   3.214   4.857  0.2853 -0.5452  0.3283
 9354TIP3    H249478   3.867   3.335   4.774 -0.4989 -0.5046  0.0515
 9355TIP3   OH249479   1.631   1.250   3.524 -0.1897  0.4150  0.7622
 9355TIP3    H149480   1.714   1.214   3.493 -0.2723  0.5445  0.3919
 9355TIP3    H249481   1.647   1.271   3.616  0.5529  1.5482  0.3837
 9356TIP3   OH249482   4.017   5.600  13.475 -0.1891  0.6833 -0.0097
 9356TIP3    H149483   4.109   5.571  13.473 -0.3826  0.0910 -1.2657
 9356TIP3    H249484   3.969   5.521  13.502 -0.3503  0.9686  0.5541
 9357TIP3   OH249485   1.553   6.006   4.911  0.3118 -0.1937  0.1683
 9357TIP3    H149486   1.522   5.918   4.933 -1.4409  0.4383  0.3969
 9357TIP3    H249487   1.527   6.020   4.820 -0.6166  0.5518  0.5280
 9358TIP3   OH249488   4.576   4.822   1.853  0.4056 -0.1000 -0.1187
 9358TIP3    H149489   4.570   4.905   1.900  1.1364 -1.1073  1.8563
 9358TIP3    H249490   4.667   4.795   1.863  0.8098 -0.0496 -2.8067
 9359TIP3   OH249491   1.906   3.537   2.095  0.6313  0.2126 -0.0445
 9359TIP3    H149492   1.817   3.555   2.063  0.5580 -1.2484 -0.7070
 9359TIP3    H249493   1.893   3.486   2.175  0.8734  1.5386  0.8834
 9360TIP3   OH249494   0.415   5.285  13.456  0.1291 -0.1203 -0.7072
 9360TIP3    H149495   0.500   5.304  13.495 -0.1332 -0.0889 -0.1511
 9360TIP3    H249496   0.395   5.363  13.404 -0.1256  0.3984  0.1522
 9361TIP3   OH249497   3.239   2.529  12.572 -0.0153 -0.4466  0.1042
 9361TIP3    H149498   3.298   2.602  12.590  0.1090 -0.6419  0.5002
 9361TIP3    H249499   3.212   2.499  12.659 -2.8542  1.3623 -0.0233
 9362TIP3   OH249500   5.693   2.246  13.073 -0.3005  0.1218 -0.0166
 9362TIP3    H149501   5.639   2.324  13.059 -1.1278  0.6470  4.6242
 9362TIP3    H249502   5.766   2.276  13.127 -1.2779 -2.3429  2.9647
 9363TIP3   OH249503   1.247   4.358  16.508  0.4384 -0.0836 -0.3335
 9363TIP3    H149504   1.231   4.377  16.416  1.5215 -1.0135 -0.7252
 9363TIP3    H249505   1.163   4.326  16.541 -0.1727  1.0095 -0.7804
 9364TIP3   OH249506   4.778   0.401  16.138  0.3256  0.2108  0.0692
 9364TIP3    H149507   4.731   0.450  16.205  1.2222  3.6747 -1.6032
 9364TIP3    H249508   4.763   0.451  16.057  3.0802 -1.1010 -1.4007
 9365TIP3   OH249509   0.366   3.955  16.635 -0.0321  0.0455  0.1153
 9365TIP3    H149510   0.280   3.987  16.662 -0.5162  0.5585 -1.8970
 9365TIP3    H249511   0.384   4.001  16.553  2.8090  1.0086  1.1622
 9366TIP3   OH249512   5.577   5.004  16.983  0.4917  0.4529 -0.1221
 9366TIP3    H149513   5.619   5.030  17.065  1.1720  0.0138 -0.3243
 9366TIP3    H249514   5.496   4.960  17.010  0.1936  1.2181  0.2722
 9367TIP3   OH249515   6.717   1.667  14.663  0.0681  0.0277 -0.0010
 9367TIP3    H149516   6.784   1.668  14.731  0.7810  0.1364 -0.7027
 9367TIP3    H249517   6.736   1.589  14.611 -0.5357 -0.1114 -0.0192
 9368TIP3   OH249518   5.794   5.549   3.997 -0.0860  0.5182  0.5988
 9368TIP3    H149519   5.888   5.563   3.991  0.0585 -0.8591 -0.7608
 9368TIP3    H249520   5.759   5.636   4.017  1.5551  0.7895  2.6405
 9369TIP3   OH249521   0.588   0.618   0.131  0.1618 -0.0888 -0.0932
 9369TIP3    H149522   0.662   0.560   0.146  0.4027 -0.0075 -0.9013
 9369TIP3    H249523   0.538   0.575   0.062 -1.1960 -0.7283  1.2450
 9370TIP3   OH249524   5.077   2.434  13.541 -0.0692 -0.4111  0.0006
 9370TIP3    H149525   5.173   2.425  13.542 -0.0957 -0.7028  0.9604
 9370TIP3    H249526   5.061   2.512  13.489  0.7366  0.1411  0.5569
 9371TIP3   OH249527   2.217   1.249   2.366 -0.9290  0.2514 -0.3192
 9371TIP3    H149528   2.240   1.339   2.386 -0.8697  0.8304 -2.7076
 9371TIP3    H249529   2.242   1.237   2.274 -1.8670 -1.8770 -0.3680
 9372TIP3   OH249530   0.148   2.055   6.941 -0.1314  0.3101  0.2758
 9372TIP3    H149531   0.201   2.110   6.884 -2.4146  0.4126 -1.8850
 9372TIP3    H249532   0.193   1.970   6.941  0.6590  0.7116 -0.5225
 9373TIP3   OH249533   3.217   1.576  11.153  0.4573  0.2353 -0.1245
 9373TIP3    H149534   3.248   1.505  11.209  1.1317  0.7751  0.2131
 9373TIP3    H249535   3.178   1.639  11.214  0.0180  0.2324 -0.4009
 9374TIP3   OH249536   4.115   2.299  15.796 -0.2819  0.4348 -0.1764
 9374TIP3    H149537   4.149   2.252  15.872 -1.3261  1.7648  1.1827
 9374TIP3    H249538   4.061   2.234  15.750  0.8329 -0.5509 -0.1330
 9375TIP3   OH249539   4.075   3.341   0.386  1.1507 -0.7831 -0.5562
 9375TIP3    H149540   4.149   3.351   0.326  0.6414  1.7142 -0.8633
 9375TIP3    H249541   4.106   3.378   0.468  0.4756 -0.3012 -0.5088
 9376TIP3   OH249542   2.321   3.269  14.486  0.4228 -0.1575  0.0898
 9376TIP3    H149543   2.232   3.265  14.523 -0.3068  0.4927 -1.5081
 9376TIP3    H249544   2.361   3.344  14.530 -0.7137  1.1247 -0.9626
 9377TIP3   OH249545   4.442   1.451  11.599 -0.0708 -0.3278  0.6419
 9377TIP3    H149546   4.375   1.385  11.582 -0.2597  0.2546 -1.1316
 9377TIP3    H249547   4.494   1.453  11.519 -0.5359  2.1401  0.3142
 9378TIP3   OH249548   1.265   0.632  12.596 -0.0478  0.2984 -0.1316
 9378TIP3    H149549   1.219   0.706  12.556  1.1958  0.7551 -0.7700
 9378TIP3    H249550   1.281   0.661  12.686 -0.0510  0.5682 -0.2181
 9379TIP3   OH249551   3.993   5.489   0.951  0.1158  0.1802  0.1295
 9379TIP3    H149552   3.936   5.566   0.960  0.3913  0.7776 -2.3636
 9379TIP3    H249553   3.996   5.474   0.857  2.3054 -1.2184  0.3756
 9380TIP3   OH249554   5.739   4.849  11.998 -0.0831  0.4367  0.3199
 9380TIP3    H149555   5.826   4.888  12.010 -0.6384  3.0656 -2.6981
 9380TIP3    H249556   5.720   4.861  11.905 -2.2558 -3.3848  0.0593
 9381TIP3   OH249557   1.113   3.098   5.050 -0.3459  0.1468  0.2449
 9381TIP3    H149558   1.201   3.064   5.071 -0.7032 -0.4370  0.8295
 9381TIP3    H249559   1.061   3.078   5.127 -1.3232 -0.7003 -0.6084
 9382TIP3   OH249560   1.138   3.148  14.755  0.5600 -0.3160 -0.3985
 9382TIP3    H149561   1.056   3.100  14.765  0.4803  0.2365  1.9302
 9382TIP3    H249562   1.203   3.093  14.799  0.8175  0.7997  0.6381
 9383TIP3   OH249563   5.873   0.212   2.251 -0.1634  0.0035  0.8355
 9383TIP3    H149564   5.798   0.159   2.279  0.0884 -0.2492  1.0398
 9383TIP3    H249565   5.906   0.165   2.174 -2.6508  2.2645 -1.8234
 9384TIP3   OH249566   1.810   5.654   0.353 -0.2565 -0.0738 -0.0716
 9384TIP3    H149567   1.753   5.585   0.318 -1.9601  1.3529 -0.2703
 9384TIP3    H249568   1.787   5.659   0.446 -1.3731  1.2684 -0.3749
 9385TIP3   OH249569   3.026   6.573   5.867 -0.3286 -0.2323 -0.7377
 9385TIP3    H149570   3.012   6.480   5.879  0.2312 -0.3223 -0.7380
 9385TIP3    H249571   3.114   6.579   5.829 -0.1465  0.3195 -0.2490
 9386TIP3   OH249572   2.686   0.434   3.107  0.3678  0.0138  0.1705
 9386TIP3    H149573   2.627   0.495   3.063 -1.0105 -1.2277  0.2199
 9386TIP3    H249574   2.715   0.481   3.185  0.0247  0.9235 -0.2357
 9387TIP3   OH249575   1.956   1.390   3.250  0.1979  0.0196 -0.2612
 9387TIP3    H149576   1.925   1.477   3.225  0.4115  0.0456 -0.4443
 9387TIP3    H249577   1.968   1.345   3.166  1.0685  0.1567 -0.2275
 9388TIP3   OH249578   1.254   3.644   5.519 -0.1055  0.2362 -0.3694
 9388TIP3    H149579   1.244   3.571   5.581 -1.0515 -0.2651 -1.0958
 9388TIP3    H249580   1.249   3.603   5.433 -0.2392  1.1135 -0.7841
 9389TIP3   OH249581   0.317   0.886   4.643 -0.3530  0.4887  0.5137
 9389TIP3    H149582   0.312   0.826   4.718 -3.0876 -0.8239 -0.5927
 9389TIP3    H249583   0.257   0.957   4.666 -0.3003  0.6819  0.0507
 9390TIP3   OH249584   0.861   3.146  16.572 -0.1709 -0.2049 -0.2715
 9390TIP3    H149585   0.912   3.082  16.523  0.4502 -0.3911  0.6100
 9390TIP3    H249586   0.891   3.139  16.662 -1.9102 -0.4920  0.3361
 9391TIP3   OH249587   5.746   2.025  16.371 -0.0149 -0.1898  0.0533
 9391TIP3    H149588   5.766   1.997  16.460 -1.9988  0.4269  0.7387
 9391TIP3    H249589   5.821   1.994  16.319  0.7276 -1.4031  1.7472
 9392TIP3   OH249590   6.072   0.491  11.301 -0.1675  0.0184  0.0167
 9392TIP3    H149591   6.158   0.509  11.263 -0.8775  1.8422 -0.8785
 9392TIP3    H249592   6.040   0.577  11.330 -1.8421 -0.5449 -0.0421
 9393TIP3   OH249593   4.049   5.030  13.805 -0.4232  0.5467 -0.0946
 9393TIP3    H149594   3.975   4.973  13.827  0.9602 -1.0906  0.4965
 9393TIP3    H249595   4.081   5.061  13.890 -0.5825  1.5207 -0.3656
 9394TIP3   OH249596   5.968   2.840   0.091  0.2999  0.4521  0.0721
 9394TIP3    H149597   5.898   2.784   0.122  0.0905  1.1502  0.9110
 9394TIP3    H249598   6.023   2.856   0.168 -0.3015  2.3234  0.1744
 9395TIP3   OH249599   5.833   4.501   6.089  0.5208  0.3838  0.5674
 9395TIP3    H149600   5.805   4.425   6.038  0.3813  0.1395  1.0038
 9395TIP3    H249601   5.821   4.475   6.180 -3.7438  2.4217  0.8060
 9396TIP3   OH249602   6.323   3.267   0.306 -0.4710  0.2843  0.1912
 9396TIP3    H149603   6.353   3.177   0.297  0.4881  0.5411  0.7370
 9396TIP3    H249604   6.402   3.320   0.304 -0.9489  1.0468  0.7910
 9397TIP3   OH249605   6.054   4.226  11.432  0.0233  0.2600  0.1077
 9397TIP3    H149606   6.100   4.210  11.514 -1.7996  2.6207  1.7351
 9397TIP3    H249607   5.969   4.184  11.444  0.0880 -0.2172 -1.0091
 9398TIP3   OH249608   3.777   5.279  14.588 -0.6167  0.6285  0.0003
 9398TIP3    H149609   3.825   5.206  14.549 -0.6333  1.3236 -1.3996
 9398TIP3    H249610   3.796   5.273  14.681 -0.9025 -1.3613 -0.0222
 9399TIP3   OH249611   4.014   3.677  10.869  0.6394 -0.1461  0.5643
 9399TIP3    H149612   3.954   3.649  10.799  0.2029  1.6719  0.1533
 9399TIP3    H249613   4.025   3.599  10.923 -1.4185 -0.8024  0.1562
 9400TIP3   OH249614   5.580   3.814  12.951  0.4805  0.0798 -0.2762
 9400TIP3    H149615   5.522   3.811  12.875  0.9235 -1.6871 -0.6069
 9400TIP3    H249616   5.531   3.864  13.017  0.1550  1.7877 -1.7361
 9401TIP3   OH249617   1.549   2.382  11.336 -0.0624 -0.8417 -0.1987
 9401TIP3    H149618   1.580   2.293  11.352 -1.3069 -1.1610  0.5721
 9401TIP3    H249619   1.625   2.428  11.301  1.0311 -1.8102  0.8148
 9402TIP3   OH249620   5.480   2.938   5.996  0.4985  0.0123 -0.3458
 9402TIP3    H149621   5.446   2.974   5.914  1.9392 -0.9808 -1.4450
 9402TIP3    H249622   5.556   2.887   5.969 -0.6064 -2.7040  1.2484
 9403TIP3   OH249623   1.222   4.727   3.152 -0.3129 -0.0433  0.0290
 9403TIP3    H149624   1.295   4.690   3.200 -0.1001  0.6308  0.2378
 9403TIP3    H249625   1.250   4.816   3.130 -1.7457  0.9284  1.7450
 9404TIP3   OH249626   2.916   1.172  15.665 -0.0963  0.0571 -0.1619
 9404TIP3    H149627   2.856   1.240  15.696 -0.7946 -0.4376 -0.4119
 9404TIP3    H249628   3.002   1.215  15.664 -0.0774  0.1864  2.1463
 9405TIP3   OH249629   1.509   4.238   1.509  0.0614  0.1446 -0.0133
 9405TIP3    H149630   1.604   4.246   1.524  0.0624 -0.1107  0.1119
 9405TIP3    H249631   1.500   4.245   1.414  0.1390  0.8646  0.0230
 9406TIP3   OH249632   6.179   0.989   4.051 -0.1970 -0.2174  0.4233
 9406TIP3    H149633   6.204   0.932   4.124  0.4125 -2.6237 -1.5482
 9406TIP3    H249634   6.262   1.017   4.013 -0.5171  0.0767 -0.0633
 9407TIP3   OH249635   0.063   4.472   4.374  0.4146  0.4240  0.1401
 9407TIP3    H149636   0.037   4.384   4.399  1.4654 -0.6335 -2.1556
 9407TIP3    H249637  -0.019   4.519   4.362 -0.1431  0.0769  2.2572
 9408TIP3   OH249638   4.753   0.348   5.018  0.0281  0.6263  0.3737
 9408TIP3    H149639   4.727   0.337   5.110  0.8231  2.7343  0.8938
 9408TIP3    H249640   4.672   0.336   4.969 -0.2730 -1.3047  1.2478
 9409TIP3   OH249641   3.115   0.036  12.937  0.1776 -0.0068  0.1738
 9409TIP3    H149642   3.062   0.101  12.890  0.1950  1.2914  1.8403
 9409TIP3    H249643   3.113   0.065  13.028  2.4567 -0.8338  0.5589
 9410TIP3   OH249644   1.340   3.113  13.502  0.2805  0.0549 -0.0188
 9410TIP3    H149645   1.293   3.197  13.496  0.1691 -0.0175 -0.1622
 9410TIP3    H249646   1.271   3.049  13.519  0.3459 -0.0314 -0.0792
 9411TIP3   OH249647   3.399   1.003   2.605  0.1362  0.8552  0.3422
 9411TIP3    H149648   3.462   1.063   2.565 -0.6965  0.6355 -1.4063
 9411TIP3    H249649   3.415   0.919   2.562 -1.9734  1.0266 -0.9517
 9412TIP3   OH249650   4.596   3.153   5.314  0.3469 -0.5249 -0.7888
 9412TIP3    H149651   4.654   3.095   5.362  2.4922  0.3638 -2.1583
 9412TIP3    H249652   4.561   3.098   5.244 -1.0928 -1.2484  0.4462
 9413TIP3   OH249653   5.438   2.547   4.483 -0.0480 -0.0915 -0.1549
 9413TIP3    H149654   5.506   2.614   4.489 -1.5923  1.5334 -0.1865
 9413TIP3    H249655   5.480   2.468   4.519  0.9559  1.5531  2.6552
 9414TIP3   OH249656   4.815   1.085  14.639 -0.9794  0.2479  0.0252
 9414TIP3    H149657   4.760   1.153  14.602 -1.4272  0.0283  0.2773
 9414TIP3    H249658   4.784   1.075  14.729  0.3684  1.0680  0.6188
 9415TIP3   OH249659   3.837   1.487   4.306  0.1540  0.6286  0.0159
 9415TIP3    H149660   3.801   1.486   4.394  0.9202  1.6492  0.3568
 9415TIP3    H249661   3.832   1.579   4.278  0.0090  0.3375 -0.9667
 9416TIP3   OH249662   1.745   5.134  11.686  0.4800 -0.3085  0.2531
 9416TIP3    H149663   1.734   5.228  11.676  1.4498 -0.2180  0.0171
 9416TIP3    H249664   1.837   5.118  11.669 -0.1501 -1.6564 -2.4787
 9417TIP3   OH249665   6.566   4.353   4.018  0.2329 -0.0630  0.7624
 9417TIP3    H149666   6.542   4.413   3.948 -0.0226 -1.0356 -0.0039
 9417TIP3    H249667   6.647   4.312   3.988 -0.1235 -0.8252  0.8119
 9418TIP3   OH249668   0.039   0.137  13.072 -0.0238  0.1526 -0.0646
 9418TIP3    H149669  -0.020   0.188  13.127 -3.3174 -0.7291 -2.4792
 9418TIP3    H249670  -0.002   0.051  13.066  1.2947 -0.4105 -2.1378
 9419TIP3   OH249671   2.816   4.152  15.497 -0.9146  0.2252 -0.5270
 9419TIP3    H149672   2.800   4.149  15.591 -0.2873 -1.1565 -0.4391
 9419TIP3    H249673   2.748   4.210  15.463 -0.4359  1.6956  0.9045
 9420TIP3   OH249674   3.340   6.516   4.933  0.0853  0.2936  0.6451
 9420TIP3    H149675   3.313   6.535   4.843 -1.5027 -0.4138  0.9321
 9420TIP3    H249676   3.313   6.593   4.983 -1.1930 -0.2963  0.8863
 9421TIP3   OH249677   5.501   4.001   4.062 -0.1788  0.0610  0.4527
 9421TIP3    H149678   5.486   4.087   4.100 -0.6497 -0.1857  0.8289
 9421TIP3    H249679   5.418   3.977   4.022  0.0665 -0.0451 -0.0074
 9422TIP3   OH249680   5.469   1.511  15.288  0.3527 -0.1075 -0.1623
 9422TIP3    H149681   5.504   1.588  15.332 -0.3288 -0.1794  0.5201
 9422TIP3    H249682   5.480   1.440  15.351  1.4419 -0.7071 -0.9674
 9423TIP3   OH249683   6.689   3.298   0.756 -0.4645  0.2342  0.5430
 9423TIP3    H149684   6.632   3.365   0.718 -0.8863  0.0372  0.8266
 9423TIP3    H249685   6.635   3.218   0.757 -0.1540  0.0255  0.7316
 9424TIP3   OH249686   3.320   1.531  16.653  0.1592  0.1524  0.2516
 9424TIP3    H149687   3.373   1.594  16.605  0.6763  2.4798  3.5637
 9424TIP3    H249688   3.236   1.575  16.667  0.1650 -0.2670  1.7632
 9425TIP3   OH249689   3.261   4.665  13.102  0.3146 -0.6400 -0.2134
 9425TIP3    H149690   3.228   4.692  13.017 -0.4078 -0.9613 -0.0405
 9425TIP3    H249691   3.356   4.665  13.091  0.3167  1.1050 -0.4626
 9426TIP3   OH249692   2.552   5.701  15.743  0.5672 -0.2395  0.5565
 9426TIP3    H149693   2.499   5.657  15.678  0.5471 -1.7761  1.5584
 9426TIP3    H249694   2.555   5.640  15.817  2.2431  0.5668  1.2073
 9427TIP3   OH249695   1.610   4.309   1.253  0.6904 -0.8879 -0.5028
 9427TIP3    H149696   1.652   4.235   1.209  0.0951 -1.2795 -0.4201
 9427TIP3    H249697   1.532   4.326   1.201  0.6181 -0.5685 -0.2932
 9428TIP3   OH249698   4.470   6.587  15.966  0.1429  0.4128  0.3826
 9428TIP3    H149699   4.554   6.614  16.004  0.1431  2.4228 -0.8764
 9428TIP3    H249700   4.468   6.630  15.880 -1.6177 -0.6598 -0.1728
 9429TIP3   OH249701   1.999   2.302   3.887 -0.4476 -0.2015 -0.0039
 9429TIP3    H149702   2.075   2.301   3.829  0.3787  0.3886  1.0162
 9429TIP3    H249703   1.941   2.369   3.851  0.5997  1.0056  0.4797
 9430TIP3   OH249704   0.016   5.856   4.759  0.4100  0.2856 -0.3248
 9430TIP3    H149705   0.073   5.930   4.780 -0.5840  1.0056 -0.1086
 9430TIP3    H249706  -0.025   5.881   4.676 -0.2880  0.1954 -0.0095
 9431TIP3   OH249707   2.056   3.027  17.198  0.1162 -0.2305  0.1226
 9431TIP3    H149708   2.062   2.934  17.223 -1.1406  0.2634  2.6814
 9431TIP3    H249709   2.145   3.060  17.207  0.3238 -0.8965  0.6525
 9432TIP3   OH249710   4.335   0.464   0.297 -0.6043  0.2251  0.0522
 9432TIP3    H149711   4.341   0.437   0.388 -0.5212 -0.8527 -0.2584
 9432TIP3    H249712   4.415   0.513   0.281 -1.2203  1.5777  0.9052
 9433TIP3   OH249713   5.347   0.500   3.948  0.1863  0.0317 -0.6871
 9433TIP3    H149714   5.394   0.578   3.918 -0.7392  0.1354 -1.9641
 9433TIP3    H249715   5.399   0.426   3.915 -0.9713  0.1392 -3.0040
 9434TIP3   OH249716   4.786   1.820  16.525  0.5215 -0.7779  0.2705
 9434TIP3    H149717   4.728   1.816  16.449 -0.1370 -1.7203  0.8004
 9434TIP3    H249718   4.844   1.745  16.515  0.7453 -0.6317  0.4584
 9435TIP3   OH249719   2.715   5.323  12.544 -0.3598  0.5766 -0.2897
 9435TIP3    H149720   2.726   5.411  12.508 -1.9814  0.7906 -0.3134
 9435TIP3    H249721   2.803   5.298  12.573 -0.0099  2.5858  0.5752
 9436TIP3   OH249722   5.236   1.863  12.032  0.0110 -0.6114  0.5552
 9436TIP3    H149723   5.208   1.773  12.048 -3.1149  0.3425  1.2121
 9436TIP3    H249724   5.271   1.892  12.116  0.3139 -0.9782  0.5583
 9437TIP3   OH249725   4.741   5.925  12.662 -0.4263 -0.0608  0.4541
 9437TIP3    H149726   4.719   5.859  12.597  0.0462  1.0320 -0.8646
 9437TIP3    H249727   4.794   5.989  12.615 -1.3174  1.5597  1.5383
 9438TIP3   OH249728   4.246   0.360   5.240 -0.2007  0.1495  0.2317
 9438TIP3    H149729   4.338   0.350   5.263 -0.1042 -0.3057 -0.3128
 9438TIP3    H249730   4.198   0.318   5.311  0.0907 -1.3315 -0.3905
 9439TIP3   OH249731   0.824   1.728   1.123  0.0470  0.1707  0.5088
 9439TIP3    H149732   0.814   1.634   1.105  0.6237  0.6588 -3.1097
 9439TIP3    H249733   0.737   1.765   1.110 -0.3902  0.1301  2.8308
 9440TIP3   OH249734   5.337   1.728   2.852  0.1623  0.1950  0.1441
 9440TIP3    H149735   5.415   1.783   2.848  0.6215 -0.3906  0.7069
 9440TIP3    H249736   5.295   1.753   2.934  0.9132 -0.9724  0.9111
 9441TIP3   OH249737   4.646   3.225  15.719  0.3194  0.1353 -0.1436
 9441TIP3    H149738   4.708   3.204  15.649 -1.1457 -2.8609 -0.6764
 9441TIP3    H249739   4.560   3.226  15.676 -0.3495  0.8580  1.1599
 9442TIP3   OH249740   2.835   3.735  13.866 -0.6990 -0.2351 -0.4962
 9442TIP3    H149741   2.754   3.739  13.815 -0.8168 -0.2957 -0.3120
 9442TIP3    H249742   2.904   3.726  13.800 -0.6249  2.0080 -0.8162
 9443TIP3   OH249743   0.418   0.658  13.037 -0.1506 -0.1353  0.4971
 9443TIP3    H149744   0.435   0.620  12.950 -0.2606  1.8546 -0.4399
 9443TIP3    H249745   0.363   0.593  13.081  1.4059 -2.0354 -0.2002
 9444TIP3   OH249746   1.081   4.753  14.983 -1.1560  0.5054  0.1814
 9444TIP3    H149747   1.018   4.808  14.936 -0.5829  1.7646  0.8462
 9444TIP3    H249748   1.097   4.800  15.065 -0.6190 -0.6517  0.7551
 9445TIP3   OH249749   3.562   0.208  15.471  0.0870  0.2184  0.3190
 9445TIP3    H149750   3.530   0.149  15.540 -3.1597  2.7703  1.2599
 9445TIP3    H249751   3.500   0.196  15.399 -0.5151  2.1959  0.4493
 9446TIP3   OH249752   0.070   0.348  15.012 -0.6764  0.3954 -0.1538
 9446TIP3    H149753  -0.023   0.325  15.005 -1.1934  1.8732  1.1435
 9446TIP3    H249754   0.105   0.336  14.923 -1.8742 -1.0205 -0.4763
 9447TIP3   OH249755   4.648   6.175  10.955 -0.0137 -0.6953  0.1510
 9447TIP3    H149756   4.578   6.175  11.021 -1.1945 -1.2398 -1.0597
 9447TIP3    H249757   4.716   6.119  10.993 -0.3087 -0.3393  1.2570
 9448TIP3   OH249758   3.934   2.463  13.780  0.8032  0.2119  0.3988
 9448TIP3    H149759   4.002   2.415  13.827  1.2300  0.1310 -0.2876
 9448TIP3    H249760   3.923   2.415  13.698 -1.6868 -1.0969  1.3944
 9449TIP3   OH249761   6.457   1.744  16.581  0.8567 -0.2112 -0.4701
 9449TIP3    H149762   6.448   1.827  16.533  0.4380 -0.7707 -1.3982
 9449TIP3    H249763   6.381   1.740  16.638  1.6162  0.6967  0.6535
 9450TIP3   OH249764   2.399   5.030  16.234  0.6141  0.7103 -0.0535
 9450TIP3    H149765   2.428   5.053  16.146 -1.8450 -0.3579 -1.2517
 9450TIP3    H249766   2.401   4.934  16.235 -0.2157  0.6868  0.7322
 9451TIP3   OH249767   4.404   2.397   0.983 -0.4708 -0.2051 -0.4830
 9451TIP3    H149768   4.492   2.432   0.999 -0.2572 -0.3292 -1.3420
 9451TIP3    H249769   4.398   2.322   1.042 -0.6209  0.7518  0.7677
 9452TIP3   OH249770   4.247   4.162  13.167 -0.0694  0.3820  0.5873
 9452TIP3    H149771   4.300   4.099  13.215  0.1722 -1.9152 -2.3977
 9452TIP3    H249772   4.196   4.110  13.106 -0.8132  2.9895 -1.2249
 9453TIP3   OH249773   3.719   4.667  16.185 -0.4461 -0.0589 -0.0430
 9453TIP3    H149774   3.663   4.677  16.262 -0.9142  1.0692 -0.5127
 9453TIP3    H249775   3.718   4.753  16.143  2.0635  0.1740  0.2107
 9454TIP3   OH249776   1.771   6.115   0.761 -0.2702 -0.8120  0.6699
 9454TIP3    H149777   1.701   6.051   0.744 -0.8824  0.1577 -0.6313
 9454TIP3    H249778   1.725   6.198   0.769  0.7933  0.1616 -2.0798
 9455TIP3   OH249779   4.774   2.764  16.055  0.0568  0.4168 -0.4705
 9455TIP3    H149780   4.789   2.809  15.971  0.6763 -1.3035 -1.3293
 9455TIP3    H249781   4.760   2.673  16.030  0.0550 -0.0922  1.3121
 9456TIP3   OH249782   0.346   2.365  13.214  0.0526  0.0914  0.7157
 9456TIP3    H149783   0.266   2.345  13.262 -0.3009  0.3996  0.2620
 9456TIP3    H249784   0.397   2.420  13.274 -0.3106  0.3361  0.8053
 9457TIP3   OH249785   4.074   3.353   1.766 -0.3046 -0.3895 -0.1565
 9457TIP3    H149786   4.113   3.411   1.832 -1.4268 -1.5738  1.6468
 9457TIP3    H249787   4.029   3.412   1.705  0.1782  0.7226  0.5425
 9458TIP3   OH249788   4.964   2.192  17.333  0.1817  0.2558  0.3058
 9458TIP3    H149789   4.896   2.131  17.360 -0.0712 -0.4602 -1.7834
 9458TIP3    H249790   5.018   2.205  17.412 -0.4690 -1.6867  1.1193
 9459TIP3   OH249791   6.100   3.889   6.054 -0.2776  0.5225 -0.2846
 9459TIP3    H149792   6.131   3.800   6.072 -1.5035  0.1301 -0.0581
 9459TIP3    H249793   6.011   3.891   6.088 -0.5632  1.5864 -1.0561
 9460TIP3   OH249794   3.463   3.767  12.632  0.4835 -0.4572 -0.6606
 9460TIP3    H149795   3.521   3.711  12.684  0.7004  0.2815 -0.0954
 9460TIP3    H249796   3.503   3.854  12.636 -0.3265 -0.0669 -0.7781
 9461TIP3   OH249797   4.642   6.466  15.545  0.1314 -0.0655  0.0029
 9461TIP3    H149798   4.719   6.421  15.579 -0.8999 -0.8370  1.4126
 9461TIP3    H249799   4.619   6.530  15.613  0.0059  0.7435 -0.7760
 9462TIP3   OH249800   1.144   0.753  16.651 -0.5993  0.1366  0.0699
 9462TIP3    H149801   1.089   0.737  16.728 -0.3085  2.6689  0.9147
 9462TIP3    H249802   1.232   0.766  16.688 -0.4612  1.4092 -0.6414
 9463TIP3   OH249803   5.550   2.282  12.158  0.4859 -0.4878  0.2844
 9463TIP3    H149804   5.583   2.347  12.096  1.9975 -0.1895  1.3392
 9463TIP3    H249805   5.510   2.334  12.227 -1.3814 -0.8228 -0.4962
 9464TIP3   OH249806   4.975   5.742   3.667  0.4445 -0.1934  0.1990
 9464TIP3    H149807   4.921   5.793   3.727  0.0749 -0.0622 -0.2420
 9464TIP3    H249808   4.937   5.757   3.581  2.2423  1.3500 -0.4112
 9465TIP3   OH249809   4.411   2.377  12.627  0.2061 -0.0772 -0.3442
 9465TIP3    H149810   4.369   2.383  12.713 -0.1805 -2.1326 -0.3453
 9465TIP3    H249811   4.346   2.411  12.566 -0.6883 -1.3021 -0.1107
 9466TIP3   OH249812   0.259   3.360   5.681  0.0778  0.1595 -0.1068
 9466TIP3    H149813   0.301   3.327   5.602 -0.3775  2.4769 -1.3934
 9466TIP3    H249814   0.171   3.387   5.653  0.1193  1.6022  1.0244
 9467TIP3   OH249815   4.099   2.530  10.684 -0.1413 -0.2159 -1.2171
 9467TIP3    H149816   4.039   2.584  10.632 -2.2649 -2.2379 -1.0409
 9467TIP3    H249817   4.132   2.464  10.623  0.8318  0.0151 -0.9661
 9468TIP3   OH249818   6.009   3.076   3.584  0.1744 -0.4155  0.4475
 9468TIP3    H149819   6.053   2.996   3.555 -1.3711 -1.4219  0.7216
 9468TIP3    H249820   5.916   3.057   3.572 -0.2167  2.1908 -1.5960
 9469TIP3   OH249821   0.230   2.857   6.200 -0.4944  0.3032 -0.3018
 9469TIP3    H149822   0.247   2.917   6.127  1.4572 -0.5658 -0.6250
 9469TIP3    H249823   0.258   2.772   6.168 -1.3332 -0.4348  0.8522
 9470TIP3   OH249824   4.397   1.569  13.723 -0.1289 -0.2693 -0.0827
 9470TIP3    H149825   4.385   1.496  13.784 -0.1031 -0.7490 -0.6373
 9470TIP3    H249826   4.339   1.549  13.650 -0.5819  0.5898  0.0287
 9471TIP3   OH249827   6.613   5.250   1.989  0.0794 -0.3715  0.0676
 9471TIP3    H149828   6.637   5.165   2.025 -0.9493 -1.0250 -0.7355
 9471TIP3    H249829   6.597   5.234   1.896  0.3256  0.7951 -0.2002
 9472TIP3   OH249830   4.131   1.454  13.220  0.5465 -0.4012 -0.1184
 9472TIP3    H149831   4.211   1.405  13.204  0.4269 -0.5258 -0.3487
 9472TIP3    H249832   4.061   1.389  13.210  0.3375 -0.0248 -1.2071
 9473TIP3   OH249833   3.578   1.902  11.490 -1.0484  0.1620 -0.0618
 9473TIP3    H149834   3.673   1.915  11.500 -1.0392  0.5643 -0.6005
 9473TIP3    H249835   3.564   1.811  11.515 -0.7425  0.5078  1.4474
 9474TIP3   OH249836   4.948   2.138   1.354 -0.1036 -0.0558 -0.3346
 9474TIP3    H149837   4.863   2.121   1.395  0.6571  1.6017  2.1684
 9474TIP3    H249838   5.003   2.065   1.383 -0.5926 -1.1469 -1.9820
 9475TIP3   OH249839   2.147   1.006  14.111  0.1287  0.5003 -0.3130
 9475TIP3    H149840   2.211   1.014  14.182 -1.5735 -1.0379  1.5049
 9475TIP3    H249841   2.067   1.043  14.147 -0.5352  0.6800 -1.8777
 9476TIP3   OH249842   2.221   0.101  16.158  0.6435 -0.4494 -0.5348
 9476TIP3    H149843   2.254   0.105  16.068  1.1411  0.2227 -0.3284
 9476TIP3    H249844   2.263   0.175  16.202  0.6264 -0.9435  0.3276
 9477TIP3   OH249845   2.146   3.672   4.669  0.2929 -0.1581 -0.4915
 9477TIP3    H149846   2.200   3.742   4.631  0.7086 -0.2360 -0.0566
 9477TIP3    H249847   2.196   3.642   4.744 -0.4953 -0.0392  0.0918
 9478TIP3   OH249848   2.466   0.211   3.044  0.2136 -0.0962  0.2165
 9478TIP3    H149849   2.551   0.210   3.001 -0.3889 -0.2211 -1.0034
 9478TIP3    H249850   2.431   0.123   3.031  0.0502 -0.1650  1.0494
 9479TIP3   OH249851   0.226   2.993   4.833  0.2106  0.3358 -0.3463
 9479TIP3    H149852   0.281   2.941   4.891  0.8234  1.0573 -0.2724
 9479TIP3    H249853   0.272   3.076   4.823 -1.9941  1.9332  1.6751
 9480TIP3   OH249854   4.319   1.171  12.878 -0.0351 -0.1293  0.5865
 9480TIP3    H149855   4.258   1.146  12.808 -0.2809 -0.6966  0.9911
 9480TIP3    H249856   4.387   1.222  12.835 -0.1655 -0.5111 -0.0710
 9481TIP3   OH249857   0.534   0.617  16.720  0.2630  0.5761  0.0241
 9481TIP3    H149858   0.536   0.603  16.626  0.9835 -0.0526  0.1230
 9481TIP3    H249859   0.625   0.636  16.744  0.0059  1.2457  0.5257
 9482TIP3   OH249860   2.535   0.045  15.789  0.4618 -0.1270 -0.0796
 9482TIP3    H149861   2.446   0.041  15.756  1.0204 -0.0759 -1.6700
 9482TIP3    H249862   2.527   0.085  15.875 -1.1330 -0.9525  0.1900
 9483TIP3   OH249863   1.593   2.186   0.434  0.6751  0.6064  0.7114
 9483TIP3    H149864   1.671   2.223   0.476  0.3706  0.8400  1.0806
 9483TIP3    H249865   1.626   2.111   0.385  0.8430 -0.5957  2.5756
 9484TIP3   OH249866   4.664   1.335  14.557 -0.2455  0.7072 -0.2256
 9484TIP3    H149867   4.705   1.406  14.606 -2.0633  0.5215  1.6916
 9484TIP3    H249868   4.578   1.325  14.597 -0.8787 -1.1241 -1.9046
 9485TIP3   OH249869   1.073   3.941  15.727 -0.2486  0.1452  0.4280
 9485TIP3    H149870   1.156   3.943  15.679  0.9208  0.0998  2.3707
 9485TIP3    H249871   1.028   3.863  15.694 -0.1660  0.8889 -1.6026
 9486TIP3   OH249872   4.996   3.705   3.921 -0.2648 -0.3040 -0.3574
 9486TIP3    H149873   5.051   3.627   3.910 -0.4524 -0.1423 -3.2667
 9486TIP3    H249874   4.906   3.672   3.911 -0.6915 -0.2642  2.4799
 9487TIP3   OH249875   4.849   2.238  12.557 -0.7195  0.3500 -0.6179
 9487TIP3    H149876   4.776   2.207  12.504 -1.6923 -0.4105  1.0807
 9487TIP3    H249877   4.905   2.161  12.567 -1.9592 -0.3631  1.6714
 9488TIP3   OH249878   1.810   3.671  15.091  0.3556 -0.5337  0.0675
 9488TIP3    H149879   1.817   3.766  15.097 -1.2563 -0.3705 -0.2824
 9488TIP3    H249880   1.887   3.645  15.040  0.4722  0.6420 -0.3872
 9489TIP3   OH249881   3.449   4.774   4.845  0.3415  0.1135  0.0440
 9489TIP3    H149882   3.460   4.848   4.785 -0.4323 -0.0216 -0.2903
 9489TIP3    H249883   3.423   4.814   4.928 -0.7169  0.2105 -0.3076
 9490TIP3   OH249884   1.472   0.448   6.322 -0.1851  0.2104  0.1726
 9490TIP3    H149885   1.386   0.487   6.306  1.3386  3.2891 -1.5735
 9490TIP3    H249886   1.533   0.520   6.307  2.7659 -2.0577  0.4971
 9491TIP3   OH249887   4.284   2.307   4.019  0.0683 -0.2160 -0.0324
 9491TIP3    H149888   4.352   2.275   3.959 -0.5831 -2.3489  0.2838
 9491TIP3    H249889   4.295   2.254   4.098 -0.8467  0.6420  0.6995
 9492TIP3   OH249890   6.707   0.607   4.252 -0.0441  0.3005  0.0235
 9492TIP3    H149891   6.670   0.569   4.173 -0.0968 -1.4360  0.8248
 9492TIP3    H249892   6.801   0.611   4.235 -0.1449  0.7164 -0.4357
 9493TIP3   OH249893   4.434   6.136   4.460 -0.2892 -0.1394 -0.4837
 9493TIP3    H149894   4.346   6.169   4.475  0.2615  0.7166  1.0265
 9493TIP3    H249895   4.458   6.170   4.373 -1.3337 -0.1883 -0.8031
 9494TIP3   OH249896   1.139   0.510  14.642 -0.4928  0.3955 -0.0367
 9494TIP3    H149897   1.153   0.425  14.600 -1.3972 -0.1952  0.8091
 9494TIP3    H249898   1.146   0.491  14.735  0.8354  1.5613  0.1336
 9495TIP3   OH249899   6.012   0.151   5.800 -0.7482 -0.2799 -0.0903
 9495TIP3    H149900   5.967   0.110   5.873 -0.1833 -0.0720  0.3875
 9495TIP3    H249901   5.980   0.242   5.800 -1.1484 -0.4178 -0.4394
 9496TIP3   OH249902   3.016   0.519   3.184  0.6069 -0.2304 -0.0473
 9496TIP3    H149903   3.004   0.613   3.201  0.8024  0.6344 -3.7415
 9496TIP3    H249904   3.094   0.495   3.232  0.3223  1.3989  1.3046
 9497TIP3   OH249905   0.108   2.637   3.600 -0.0276  0.1035  0.1930
 9497TIP3    H149906   0.200   2.645   3.577 -0.2599  0.8783 -0.5498
 9497TIP3    H249907   0.097   2.691   3.678  0.0116  0.5806 -0.1287
 9498TIP3   OH249908   4.863   4.233  13.588  0.1768 -0.5221 -0.0672
 9498TIP3    H149909   4.948   4.273  13.604 -1.0752  2.3626 -0.0528
 9498TIP3    H249910   4.869   4.201  13.498  1.0516  0.2776 -0.3109
 9499TIP3   OH249911   1.643   3.088   6.603  0.2464  0.0515  0.3571
 9499TIP3    H149912   1.621   3.123   6.690  0.9599 -1.5285  1.2168
 9499TIP3    H249913   1.572   3.027   6.583 -1.1362  2.0482 -1.2571
 9500TIP3   OH249914   3.380   2.804   1.591  0.1412 -0.0558  0.0696
 9500TIP3    H149915   3.472   2.806   1.617 -0.0103 -0.1428  0.6354
 9500TIP3    H249916   3.358   2.711   1.587  0.7906 -0.1560 -2.7468
 9501TIP3   OH249917   3.558   4.622   1.960  0.5610 -0.0121  0.0034
 9501TIP3    H149918   3.651   4.619   1.983  0.9406 -1.0574 -1.5361
 9501TIP3    H249919   3.523   4.693   2.014  2.1619  0.1694  0.8842
 9502TIP3   OH249920   4.506   5.362  11.209  0.0126  0.2683  0.0734
 9502TIP3    H149921   4.429   5.329  11.162 -0.2244  0.1310  0.5549
 9502TIP3    H249922   4.580   5.337  11.153 -0.1929 -0.7517  0.2313
 9503TIP3   OH249923   4.931   6.495   1.374 -0.0233 -0.2762 -0.2641
 9503TIP3    H149924   4.954   6.530   1.460  0.4632 -2.0866  0.3927
 9503TIP3    H249925   4.870   6.423   1.392 -1.5104  0.5718 -1.5911
 9504TIP3   OH249926   0.872   1.320  14.784 -0.1786 -0.4872  0.2937
 9504TIP3    H149927   0.927   1.301  14.861 -1.1824  3.0689  2.0707
 9504TIP3    H249928   0.788   1.278  14.804 -0.6823  1.0343  1.6150
 9505TIP3   OH249929   0.248   5.185   4.204 -0.2986  0.3958  0.6577
 9505TIP3    H149930   0.171   5.220   4.159 -0.8367  2.1255  2.7656
 9505TIP3    H249931   0.274   5.110   4.151 -2.9614  0.2025 -0.5462
 9506TIP3   OH249932   3.293   5.761  14.487  0.3435  0.3161  0.0884
 9506TIP3    H149933   3.217   5.709  14.462  1.2064 -0.6172 -0.6593
 9506TIP3    H249934   3.260   5.852  14.489 -1.6723 -0.3023  3.2114
 9507TIP3   OH249935   3.991   6.631  13.310  0.2621  0.0733 -0.3377
 9507TIP3    H149936   4.005   6.633  13.404  0.5705  1.5898 -0.3983
 9507TIP3    H249937   4.077   6.611  13.273  0.1289 -0.5820 -0.3067
 9508TIP3   OH249938   2.076   2.600   3.633 -0.7310  0.4544  0.1362
 9508TIP3    H149939   2.093   2.508   3.614 -0.5554  0.3619  0.7072
 9508TIP3    H249940   2.003   2.599   3.696  1.7887  0.4444  3.3386
 9509TIP3   OH249941   1.962   2.228  13.154 -0.4592 -0.2179  0.2644
 9509TIP3    H149942   1.899   2.293  13.184 -0.2454 -0.5639  1.5362
 9509TIP3    H249943   2.001   2.194  13.235 -0.1644 -1.5196 -0.4086
 9510TIP3   OH249944   6.770   0.995  17.333 -0.2823  0.3881 -0.1410
 9510TIP3    H149945   6.856   0.995  17.375 -0.0881 -0.5728 -0.5172
 9510TIP3    H249946   6.763   1.083  17.294  0.7379  0.3143 -0.5253
 9511TIP3   OH249947   0.862   0.153   1.887  0.5737 -0.1409  0.5444
 9511TIP3    H149948   0.858   0.141   1.792 -1.9176 -1.1730  0.6845
 9511TIP3    H249949   0.892   0.243   1.899 -0.1923  0.4011 -1.2633
 9512TIP3   OH249950   5.405   3.246  15.721 -0.3098 -0.6170  0.1127
 9512TIP3    H149951   5.425   3.211  15.634 -0.2690 -0.4150  0.0393
 9512TIP3    H249952   5.383   3.170  15.774  0.7322 -0.8609  0.2160
 9513TIP3   OH249953   5.036   3.009  11.067 -0.1058  0.3894  0.3947
 9513TIP3    H149954   5.083   3.075  11.117  0.2047  1.6250 -1.4089
 9513TIP3    H249955   5.102   2.943  11.046 -0.2546 -0.1717  1.5960
 9514TIP3   OH249956   6.192   1.671   0.317  0.0320 -0.2344 -0.6968
 9514TIP3    H149957   6.108   1.653   0.275 -0.2001 -1.3783  0.2352
 9514TIP3    H249958   6.209   1.596   0.373  0.2327  1.3091  1.4442
 9515TIP3   OH249959   2.608   1.783  15.056 -0.6418  0.1627  0.6757
 9515TIP3    H149960   2.669   1.754  14.987 -0.4056 -1.5769  1.5403
 9515TIP3    H249961   2.584   1.702  15.101 -1.0076  1.2120  2.4588
 9516TIP3   OH249962   2.532   0.134   2.237  0.6144  0.0026  0.2909
 9516TIP3    H149963   2.588   0.146   2.161 -0.7993 -1.2013 -1.0045
 9516TIP3    H249964   2.593   0.127   2.311  2.2290 -1.6519 -1.0877
 9517TIP3   OH249965   1.717   2.324   3.506 -0.2106 -0.7146 -0.1675
 9517TIP3    H149966   1.707   2.416   3.530  1.8512 -0.9813  2.0814
 9517TIP3    H249967   1.637   2.282   3.539 -1.1002  0.1991 -1.0819
 9518TIP3   OH249968   4.820   2.566  14.367  0.2248  0.3201  0.2475
 9518TIP3    H149969   4.823   2.589  14.460  1.0291  1.9491 -0.1423
 9518TIP3    H249970   4.873   2.487  14.359 -0.6795 -0.4262  1.3041
 9519TIP3   OH249971   1.594   2.593   2.616 -0.4372 -0.5469  0.4896
 9519TIP3    H149972   1.601   2.640   2.698 -0.6476 -0.6847  0.5865
 9519TIP3    H249973   1.585   2.501   2.641 -0.6300 -0.5771  0.3201
 9520TIP3   OH249974   2.291   0.458   4.481  0.2248  0.1534 -0.2440
 9520TIP3    H149975   2.225   0.523   4.455  0.3615  0.8355  1.0334
 9520TIP3    H249976   2.299   0.470   4.575  0.3753 -1.6360 -0.0128
 9521TIP3   OH249977   4.289   5.862   3.950  0.0777  0.0529  0.3524
 9521TIP3    H149978   4.380   5.835   3.962  0.6726  0.9597 -1.6478
 9521TIP3    H249979   4.282   5.944   3.999  1.0732  1.2140 -1.3252
 9522TIP3   OH249980   2.662   6.643   0.275  0.1319 -0.1409 -0.6291
 9522TIP3    H149981   2.680   6.663   0.367 -0.8219  0.8967 -0.6356
 9522TIP3    H249982   2.603   6.568   0.278  1.3106 -1.0761 -0.4664
 9523TIP3   OH249983   5.346   2.283  13.492  0.3105  0.2062  0.2495
 9523TIP3    H149984   5.317   2.206  13.442  0.7334  0.1262  0.1283
 9523TIP3    H249985   5.385   2.247  13.572  1.7779  0.2134 -0.4327
 9524TIP3   OH249986   3.102   2.949  13.642  0.1365 -0.1448  0.0066
 9524TIP3    H149987   3.179   2.932  13.587 -0.4360 -2.4547 -0.1655
 9524TIP3    H249988   3.138   2.990  13.721  1.5134 -0.9135 -0.1964
 9525TIP3   OH249989   4.434   3.980   5.751 -0.1748  0.2902 -0.5070
 9525TIP3    H149990   4.390   3.907   5.796  1.2074  1.2482  2.6336
 9525TIP3    H249991   4.525   3.952   5.742 -0.3101  0.3086 -2.4956
 9526TIP3   OH249992   0.563   5.598   5.642  0.2692  0.2205  0.1570
 9526TIP3    H149993   0.560   5.531   5.574 -0.9775  0.0907  0.3201
 9526TIP3    H249994   0.496   5.661   5.616  0.3920  0.6183  0.7973
 9527TIP3   OH249995   5.184   5.323  12.894 -0.3357 -0.2125 -0.1028
 9527TIP3    H149996   5.273   5.294  12.912 -0.5851 -1.1930 -0.4067
 9527TIP3    H249997   5.132   5.285  12.965 -0.8269 -1.4343 -1.0836
 9528TIP3   OH249998   3.976   2.967   4.814  0.3236  0.3784 -0.4531
 9528TIP3    H149999   4.015   2.957   4.727 -0.1283  1.5908 -0.8196
 9528TIP3    H250000   3.959   3.061   4.822  0.0377  0.2423  0.8136
 9529TIP3   OH250001   4.864   6.305  11.292 -0.9244 -0.6838  0.3646
 9529TIP3    H150002   4.778   6.346  11.291 -0.1147  1.1006  0.1077
 9529TIP3    H250003   4.925   6.377  11.301  0.5992 -1.8272 -0.2665
 9530TIP3   OH250004   1.371   2.411  12.020 -0.3447 -0.4377 -0.1465
 9530TIP3    H150005   1.381   2.465  12.098  1.1341  0.5463 -0.9851
 9530TIP3    H250006   1.400   2.466  11.948 -1.4143 -1.4228 -1.3929
 9531TIP3   OH250007   4.872   4.882   5.581 -0.0425  0.4073 -0.0020
 9531TIP3    H150008   4.839   4.957   5.532 -1.5125  0.1799  0.5665
 9531TIP3    H250009   4.967   4.885   5.570 -0.3265 -0.2138 -3.6497
 9532TIP3   OH250010   6.137   2.076  12.638  0.5963  0.2585 -0.2118
 9532TIP3    H150011   6.122   2.062  12.545  1.1607  1.3762 -0.4929
 9532TIP3    H250012   6.089   2.157  12.658  1.2239  0.5244  0.2589
 9533TIP3   OH250013   5.744   2.597   5.301  0.0072  0.1717  0.4354
 9533TIP3    H150014   5.741   2.503   5.318 -1.2902 -0.2489 -1.7429
 9533TIP3    H250015   5.681   2.635   5.362  0.2581 -0.4127  1.0612
 9534TIP3   OH250016   0.011   2.682  15.043  0.0168  0.6079  1.0009
 9534TIP3    H150017  -0.023   2.619  15.107  0.6557  0.1826  0.9286
 9534TIP3    H250018  -0.011   2.644  14.958 -0.8423  1.1782  0.9537
 9535TIP3   OH250019   3.769   3.197   2.626  0.4011  0.7031  0.0840
 9535TIP3    H150020   3.803   3.244   2.551 -0.5334  0.3770 -0.5689
 9535TIP3    H250021   3.839   3.201   2.692  1.7772 -0.1231 -1.2580
 9536TIP3   OH250022   1.029   6.434   4.090 -0.5129  0.3286  0.0013
 9536TIP3    H150023   1.105   6.493   4.085  1.3577 -1.6260  2.4585
 9536TIP3    H250024   0.959   6.488   4.125 -0.0386  1.9875 -1.4719
 9537TIP3   OH250025   2.205   3.976  13.091  0.0769 -0.2994 -0.1473
 9537TIP3    H150026   2.181   3.883  13.098 -0.3563 -0.1367  0.7233
 9537TIP3    H250027   2.157   4.018  13.163 -1.1056  0.8794 -1.5593
 9538TIP3   OH250028   1.945   3.875   1.210 -0.2334 -1.1518  0.3046
 9538TIP3    H150029   1.998   3.901   1.285 -0.1913 -0.7224  0.1326
 9538TIP3    H250030   2.006   3.828   1.153  0.4491  0.7808 -0.6892
 9539TIP3   OH250031   5.871   5.519  11.408  0.5392 -0.1028  0.2698
 9539TIP3    H150032   5.801   5.538  11.346  0.4235 -0.6909  0.2176
 9539TIP3    H250033   5.825   5.502  11.491  0.6831  0.5233  0.4889
 9540TIP3   OH250034   4.650   5.266   5.310  0.5547 -0.2245  0.0681
 9540TIP3    H150035   4.733   5.275   5.356  0.2598 -2.3108  1.1195
 9540TIP3    H250036   4.589   5.322   5.360  0.5072 -1.5721  1.5787
 9541TIP3   OH250037   3.633   6.016  12.883  0.5273 -0.2811 -0.2890
 9541TIP3    H150038   3.679   6.099  12.897  0.1344 -0.0011 -0.6684
 9541TIP3    H250039   3.664   5.985  12.798 -1.0284  0.6088 -1.2223
 9542TIP3   OH250040   0.985   0.877  12.094 -0.2860  0.4197  0.2880
 9542TIP3    H150041   1.049   0.836  12.036 -0.3161  0.3262  0.3215
 9542TIP3    H250042   0.966   0.811  12.160 -0.5389  0.3856  0.1840
 9543TIP3   OH250043   1.786   2.561   5.918  0.9620  0.1874  0.2490
 9543TIP3    H150044   1.875   2.528   5.911  1.2367  0.6408  1.4066
 9543TIP3    H250045   1.733   2.483   5.934  0.9220 -0.2729 -1.8776
 9544TIP3   OH250046   4.703   1.490  12.480  0.0419  0.3574 -0.2475
 9544TIP3    H150047   4.644   1.419  12.507  2.3505 -1.9640 -0.9187
 9544TIP3    H250048   4.689   1.497  12.385  1.1313 -0.5468 -0.4929
 9545TIP3   OH250049   5.464   3.654   4.831 -0.2455  0.1937  0.3804
 9545TIP3    H150050   5.520   3.709   4.775 -1.6689  1.8134  0.4720
 9545TIP3    H250051   5.445   3.709   4.907  0.6196 -1.5120  1.9233
 9546TIP3   OH250052   0.066   6.746  10.550  0.2098  0.3225  0.3377
 9546TIP3    H150053   0.085   6.677  10.614 -0.1518  0.0794  0.1910
 9546TIP3    H250054   0.022   6.700  10.478  1.7120  0.3860 -0.6549
 9547TIP3   OH250055   2.300   5.995   5.677 -0.3101  0.7045 -0.2230
 9547TIP3    H150056   2.205   5.997   5.678 -0.6070 -3.3927  1.7285
 9547TIP3    H250057   2.326   6.014   5.767  0.8702  2.7269 -0.9244
 9548TIP3   OH250058   5.343   4.103  12.528  0.2678  0.2860  0.3197
 9548TIP3    H150059   5.394   4.043  12.474  0.2494 -0.2672  0.9124
 9548TIP3    H250060   5.299   4.048  12.592 -0.0067  0.8968  0.6741
 9549TIP3   OH250061   0.099   6.293  13.538  0.5631  0.0858 -0.4570
 9549TIP3    H150062   0.131   6.254  13.620  0.8873 -0.8717 -1.0214
 9549TIP3    H250063   0.007   6.312  13.555  0.1387 -1.7955 -0.4425
 9550TIP3   OH250064   4.650   5.070   4.762  0.7099 -0.0976 -0.5622
 9550TIP3    H150065   4.653   4.974   4.765  0.4771 -0.1128 -0.7877
 9550TIP3    H250066   4.741   5.097   4.772  0.8794 -0.3651 -1.3001
 9551TIP3   OH250067   4.356   1.071   5.700  0.1322 -0.3686  0.6012
 9551TIP3    H150068   4.312   0.990   5.726 -1.4326  0.0319 -0.5934
 9551TIP3    H250069   4.433   1.076   5.756 -1.1577 -1.3124  2.5519
 9552TIP3   OH250070   1.929   2.701  16.163 -0.3288  0.2976 -0.1481
 9552TIP3    H150071   1.842   2.729  16.133 -0.4216  0.0480 -0.1136
 9552TIP3    H250072   1.987   2.773  16.138 -0.3003 -0.1446 -1.4265
 9553TIP3   OH250073   5.800   3.193   0.391  0.2994 -0.0937 -0.3943
 9553TIP3    H150074   5.874   3.227   0.340 -0.1511  1.4113 -0.0831
 9553TIP3    H250075   5.796   3.249   0.468 -1.5536  0.2912 -0.7231
 9554TIP3   OH250076   4.455   4.298  13.300 -0.2987 -0.1481 -0.4738
 9554TIP3    H150077   4.360   4.304  13.288 -0.4297  0.8770  0.8020
 9554TIP3    H250078   4.469   4.211  13.338 -0.8508  0.0728  0.2551
 9555TIP3   OH250079   6.113   1.236  15.031 -0.1079 -0.2011  1.4057
 9555TIP3    H150080   6.205   1.233  15.008 -0.2047 -0.6350  1.0583
 9555TIP3    H250081   6.069   1.188  14.960 -0.8081  1.6538  0.5189
 9556TIP3   OH250082   1.180   1.300  12.382 -0.2896  0.0117  0.3213
 9556TIP3    H150083   1.182   1.270  12.291  1.0390 -0.8131  0.5993
 9556TIP3    H250084   1.126   1.234  12.427 -0.9986  0.4533  0.1410
 9557TIP3   OH250085   0.841   3.767   5.697  0.1268  0.0423 -0.1377
 9557TIP3    H150086   0.786   3.727   5.764  1.3900  0.8610  1.4966
 9557TIP3    H250087   0.905   3.818   5.748  0.7092  1.2625 -2.0133
 9558TIP3   OH250088   1.258   1.106   2.115  0.6497 -0.0459 -0.2081
 9558TIP3    H150089   1.213   1.091   2.199  2.8047  1.2587  1.2744
 9558TIP3    H250090   1.269   1.019   2.078 -3.2833 -0.4370 -0.8523
 9559TIP3   OH250091   1.423   1.513  17.069  0.1252 -0.0627 -0.3483
 9559TIP3    H150092   1.406   1.530  17.161  0.0015  0.0703 -0.3953
 9559TIP3    H250093   1.435   1.418  17.063 -1.1680 -0.2383 -0.4102
 9560TIP3   OH250094   2.286   0.787  15.378 -0.3507  0.0047  0.5307
 9560TIP3    H150095   2.300   0.716  15.440  1.7951 -0.6709 -0.6357
 9560TIP3    H250096   2.273   0.743  15.294 -1.4168  0.9613  0.1559
 9561TIP3   OH250097   4.906   4.009   5.469  0.4745 -0.6748  0.0634
 9561TIP3    H150098   4.927   3.932   5.521 -0.4956 -1.4792 -0.6915
 9561TIP3    H250099   4.917   4.083   5.529  1.7329 -1.3552  0.7072
 9562TIP3   OH250100   3.790   4.609  13.653  0.2261 -0.7762  0.1548
 9562TIP3    H150101   3.828   4.691  13.622 -0.7558 -0.7293 -0.9766
 9562TIP3    H250102   3.775   4.624  13.747  0.4639  0.1841  0.0489
 9563TIP3   OH250103   3.724   1.235   0.525  0.5479 -0.1606  0.6930
 9563TIP3    H150104   3.811   1.194   0.532  0.1954 -1.6943 -2.1983
 9563TIP3    H250105   3.733   1.297   0.452 -0.7588 -0.3348  0.3574
 9564TIP3   OH250106   2.990   4.705   1.993  0.5079 -0.1716 -0.0229
 9564TIP3    H150107   2.996   4.747   1.907 -0.3527  1.3549  0.6096
 9564TIP3    H250108   3.077   4.668   2.008  0.5673 -0.7435 -1.6780
 9565TIP3   OH250109   0.254   4.542  14.481 -0.6221  0.7028  0.2776
 9565TIP3    H150110   0.275   4.457  14.520  1.3901  1.8276  1.8665
 9565TIP3    H250111   0.245   4.524  14.388  0.9906 -1.0656  0.3875
 9566TIP3   OH250112   0.243   0.184  13.636  0.0433  0.2047  0.6023
 9566TIP3    H150113   0.232   0.255  13.573  1.7273 -0.4923 -0.5535
 9566TIP3    H250114   0.322   0.138  13.607  0.5428 -0.5220  2.8904
 9567TIP3   OH250115   1.681   1.356   4.713  0.3131  0.5979 -0.2948
 9567TIP3    H150116   1.649   1.446   4.714  0.4492  0.6756 -1.4682
 9567TIP3    H250117   1.768   1.361   4.754 -0.1639  0.7844  0.7268
 9568TIP3   OH250118   3.975   3.602   1.730  0.5347 -0.2162 -0.2825
 9568TIP3    H150119   3.907   3.614   1.664  0.3187 -3.0440 -0.6894
 9568TIP3    H250120   3.972   3.682   1.782 -3.7447 -0.5020  0.2680
 9569TIP3   OH250121   2.697   4.395  16.852  0.1619 -0.5231 -0.8669
 9569TIP3    H150122   2.767   4.437  16.802  0.5047  0.0208  0.0361
 9569TIP3    H250123   2.618   4.442  16.826  0.4524  0.3031 -0.3279
 9570TIP3   OH250124   6.510   5.047   0.939  0.0770 -0.3079 -0.1256
 9570TIP3    H150125   6.461   4.974   0.978 -0.9482 -0.2903 -1.3478
 9570TIP3    H250126   6.454   5.123   0.952  1.2585  0.3708  1.3754
 9571TIP3   OH250127   2.562   3.486   1.890  0.1014  0.6180  0.5418
 9571TIP3    H150128   2.612   3.546   1.834  0.3885 -0.0831  0.0371
 9571TIP3    H250129   2.584   3.399   1.858 -0.9422  0.2638  0.7481
 9572TIP3   OH250130   2.901   0.280   4.593 -0.3780  0.3786  0.2822
 9572TIP3    H150131   2.873   0.368   4.569  2.1869  1.0726 -0.4378
 9572TIP3    H250132   2.952   0.249   4.518 -0.7198 -1.5100  0.7671
 9573TIP3   OH250133   3.999   1.375   4.872  0.1697  0.3694  0.3595
 9573TIP3    H150134   4.041   1.335   4.949  0.5029  0.4530  0.2200
 9573TIP3    H250135   3.926   1.425   4.909 -1.8313 -2.3119  0.3867
 9574TIP3   OH250136   5.389   3.684   3.423  0.1134  0.7530  0.3758
 9574TIP3    H150137   5.322   3.616   3.411  0.7286  0.2735 -0.4103
 9574TIP3    H250138   5.424   3.667   3.510  0.3765 -0.0480  0.1223
 9575TIP3   OH250139   3.742   1.177   6.815  0.2062  0.7298  0.2398
 9575TIP3    H150140   3.765   1.100   6.763 -1.6585 -0.5246  1.1606
 9575TIP3    H250141   3.820   1.233   6.811  1.6146 -1.1814 -0.4644
 9576TIP3   OH250142   2.858   0.858  12.945  0.2167  0.2004  0.8513
 9576TIP3    H150143   2.765   0.880  12.944 -0.6143 -2.7573  1.6643
 9576TIP3    H250144   2.873   0.812  12.862  1.1241  1.1867  0.4523
 9577TIP3   OH250145   0.304   5.206   5.268 -0.2074 -0.0569  0.1322
 9577TIP3    H150146   0.219   5.246   5.288 -1.6504 -2.4601 -0.8307
 9577TIP3    H250147   0.317   5.221   5.174 -0.1854 -0.7670  0.0150
 9578TIP3   OH250148   6.402   3.376   5.151 -0.1093  0.1110 -0.0914
 9578TIP3    H150149   6.491   3.390   5.119 -0.2073 -1.3227 -1.0951
 9578TIP3    H250150   6.386   3.450   5.210  1.3100  1.0360 -0.7930
 9579TIP3   OH250151   4.204   5.082  15.739 -0.1819  0.0405  0.2152
 9579TIP3    H150152   4.121   5.058  15.780  0.2696 -2.8804 -0.4112
 9579TIP3    H250153   4.190   5.067  15.645  1.3265 -1.5721  0.1967
 9580TIP3   OH250154   0.941   2.707  10.569  0.2229  0.5129  0.1882
 9580TIP3    H150155   1.030   2.698  10.535 -0.0883  0.2540 -0.5871
 9580TIP3    H250156   0.943   2.788  10.620  0.6282  1.1009 -0.7314
 9581TIP3   OH250157   1.162   2.103  16.895 -0.6699  0.1984  0.2268
 9581TIP3    H150158   1.194   2.015  16.877 -0.4568  0.0332  1.3457
 9581TIP3    H250159   1.231   2.144  16.947 -0.5750  1.1874 -0.6381
 9582TIP3   OH250160   3.868   6.049  16.046 -0.1745 -0.0973  0.0281
 9582TIP3    H150161   3.924   6.125  16.031  0.0534 -0.7527 -3.3471
 9582TIP3    H250162   3.924   5.986  16.090  0.3571  0.7903  0.6634
 9583TIP3   OH250163   5.853   4.675  16.504  0.2236  0.2611 -0.2347
 9583TIP3    H150164   5.758   4.671  16.493  0.3822 -1.9201 -1.2699
 9583TIP3    H250165   5.884   4.728  16.431 -0.0342 -1.0340 -1.3163
 9584TIP3   OH250166   5.542   5.340   2.689 -0.4163  0.4837  0.2492
 9584TIP3    H150167   5.538   5.279   2.616 -1.1727  1.7451 -0.8004
 9584TIP3    H250168   5.454   5.340   2.725 -0.3331  0.7104  0.4553
 9585TIP3   OH250169   2.746   4.593   1.476 -0.6505 -0.3529  0.3439
 9585TIP3    H150170   2.760   4.634   1.561 -0.1703 -0.9855  0.5783
 9585TIP3    H250171   2.680   4.647   1.433  0.6631  1.2354  0.2532
 9586TIP3   OH250172   3.997   2.712   5.670 -0.4429  0.5340  0.5211
 9586TIP3    H150173   3.915   2.759   5.682 -1.5352 -0.4776 -2.0870
 9586TIP3    H250174   4.019   2.725   5.578 -0.2069 -2.9553 -0.0804
 9587TIP3   OH250175   0.372   4.689  12.125  0.2279 -0.2712 -0.3365
 9587TIP3    H150176   0.358   4.773  12.169 -1.1333 -1.1188  0.9412
 9587TIP3    H250177   0.327   4.698  12.041  0.3705  0.3742 -0.3503
 9588TIP3   OH250178   4.263   5.853   1.331  0.4561 -0.5438 -0.0565
 9588TIP3    H150179   4.220   5.768   1.321 -0.8474  0.2597 -1.6642
 9588TIP3    H250180   4.316   5.863   1.252  1.1925 -0.1755  0.4720
 9589TIP3   OH250181   1.436   4.476  15.195 -0.1831  0.6393 -0.0762
 9589TIP3    H150182   1.392   4.427  15.125 -0.6886  0.9287  0.0305
 9589TIP3    H250183   1.364   4.515  15.245  0.2022  1.3280 -0.0440
 9590TIP3   OH250184   4.826   3.729  14.426  0.2787  0.1198  0.3366
 9590TIP3    H150185   4.858   3.794  14.363 -0.9919 -0.7493 -1.2511
 9590TIP3    H250186   4.901   3.671  14.440  0.8057  0.7608  0.2574
 9591TIP3   OH250187   4.567   2.293  16.635  0.2939 -0.1813  0.2543
 9591TIP3    H150188   4.602   2.337  16.713 -1.3566 -0.2693  1.0902
 9591TIP3    H250189   4.571   2.360  16.567  2.6864 -0.4025  0.0947
 9592TIP3   OH250190   0.950   5.862   3.018  0.0866 -0.2504 -0.7655
 9592TIP3    H150191   1.005   5.829   2.947  1.7778  0.1510  0.3204
 9592TIP3    H250192   0.986   5.822   3.097 -2.2537 -1.3230 -0.1550
 9593TIP3   OH250193   0.637   5.415  14.639 -0.1278 -0.1600 -0.0708
 9593TIP3    H150194   0.583   5.476  14.690 -0.6817 -1.5480  1.0837
 9593TIP3    H250195   0.727   5.434  14.667 -0.3156 -0.0566  0.4825
 9594TIP3   OH250196   1.132   0.677   4.998 -0.3170 -0.2977  0.2542
 9594TIP3    H150197   1.084   0.745   5.045 -1.3620 -1.2825  0.6563
 9594TIP3    H250198   1.224   0.702   5.007 -0.6898  1.2559  0.0555
 9595TIP3   OH250199   4.971   4.455  13.824 -0.2034  0.4186  0.3480
 9595TIP3    H150200   5.024   4.501  13.758 -0.4420  0.0942 -0.0704
 9595TIP3    H250201   5.022   4.464  13.905 -0.4704  1.8435  0.3879
 9596TIP3   OH250202   3.534   6.643  14.831  0.0053 -0.0420 -0.0787
 9596TIP3    H150203   3.539   6.623  14.737  0.9636 -1.3532  0.2138
 9596TIP3    H250204   3.600   6.711  14.844 -0.4676  0.4901 -0.4271
 9597TIP3   OH250205   6.188   3.855  17.279  0.4661 -0.0803 -0.6580
 9597TIP3    H150206   6.144   3.772  17.298 -1.4573  0.8261 -0.9267
 9597TIP3    H250207   6.138   3.920  17.328  0.7115  1.1780 -2.0078
 9598TIP3   OH250208   0.281   3.716   3.611  0.7736  0.3254  0.2388
 9598TIP3    H150209   0.284   3.652   3.540 -1.2042  0.9618 -0.4931
 9598TIP3    H250210   0.282   3.801   3.567  2.1173  0.8141  1.1329
 9599TIP3   OH250211   5.204   0.005  14.069  0.7812  0.4668  0.0975
 9599TIP3    H150212   5.272   0.006  14.002  0.3980  0.8904 -0.2966
 9599TIP3    H250213   5.250   0.030  14.150  1.3202 -0.4231  0.0777
 9600TIP3   OH250214   5.442   3.876  11.964  0.0782  0.6722  0.3235
 9600TIP3    H150215   5.384   3.914  12.031 -0.2791 -1.1409  1.1081
 9600TIP3    H250216   5.453   3.785  11.991  1.0072  0.2316 -1.3949
 9601TIP3   OH250217   1.505   4.341  15.760 -0.2821  0.3748  0.4936
 9601TIP3    H150218   1.443   4.314  15.829 -0.6565  1.3113  0.5303
 9601TIP3    H250219   1.514   4.435  15.771 -0.8255  0.6420 -1.1362
 9602TIP3   OH250220   1.242   1.462  11.906 -0.2464 -0.2454  0.7829
 9602TIP3    H150221   1.282   1.378  11.886 -2.3913 -1.0683 -0.3376
 9602TIP3    H250222   1.152   1.455  11.874 -0.4720  2.5282  0.4969
 9603TIP3   OH250223   1.098   3.749   6.500 -0.2814  0.4209  0.8075
 9603TIP3    H150224   1.030   3.804   6.461  1.0356  1.1398 -0.6096
 9603TIP3    H250225   1.119   3.791   6.583 -1.2306  0.4588  1.0331
 9604TIP3   OH250226   3.170   3.125  12.047  0.2964  0.2678 -0.1316
 9604TIP3    H150227   3.205   3.109  11.960 -0.8417  0.9977 -0.7521
 9604TIP3    H250228   3.222   3.069  12.105  0.8858 -0.4287 -1.3017
 9605TIP3   OH250229   3.925   6.686  17.318  0.1310 -0.2495  0.0676
 9605TIP3    H150230   3.831   6.701  17.307  0.4241  0.8684 -1.2088
 9605TIP3    H250231   3.943   6.610  17.263  0.0150 -0.3285  0.1372
 9606TIP3   OH250232   3.022   3.289  12.935  0.2720  0.1892  0.2111
 9606TIP3    H150233   3.002   3.362  12.876  0.6278 -0.6195 -0.9560
 9606TIP3    H250234   3.111   3.262  12.910  1.8530  1.9156  3.3868
 9607TIP3   OH250235   4.117   6.569   2.170  0.2078  0.2886 -0.0432
 9607TIP3    H150236   4.128   6.589   2.263 -0.6695  1.3223 -0.1428
 9607TIP3    H250237   4.206   6.561   2.136  0.5554  1.2787  0.6017
 9608TIP3   OH250238   6.613   5.545   4.029 -0.4823 -0.0669 -0.0574
 9608TIP3    H150239   6.601   5.589   3.945 -0.7758 -0.8975 -0.4617
 9608TIP3    H250240   6.576   5.605   4.093 -0.0175  0.6952 -0.4891
 9609TIP3   OH250241   6.765   0.344  16.325  0.1982  0.3747 -0.0123
 9609TIP3    H150242   6.680   0.335  16.369  1.2818 -1.8744  1.8108
 9609TIP3    H250243   6.771   0.267  16.269  0.2548  1.5347 -1.6539
 9610TIP3   OH250244   5.660   5.517  17.228  0.0025 -0.4744  0.6074
 9610TIP3    H150245   5.658   5.550  17.138  5.1276  0.8620  0.6752
 9610TIP3    H250246   5.628   5.590  17.281  0.7192  0.2889  0.0296
 9611TIP3   OH250247   4.461   0.993   2.498 -0.1127 -0.2064  0.2877
 9611TIP3    H150248   4.489   0.952   2.416 -0.2200 -1.1424  0.7134
 9611TIP3    H250249   4.365   0.996   2.491 -0.3009 -2.2771  1.2739
 9612TIP3   OH250250   1.838   3.386  12.668  0.0393  0.2327 -0.0193
 9612TIP3    H150251   1.882   3.355  12.588  1.1472 -2.5511  1.5533
 9612TIP3    H250252   1.878   3.471  12.685  2.3466 -0.6727 -0.5647
 9613TIP3   OH250253   4.088   3.669  15.178 -0.5373 -0.5287 -0.1687
 9613TIP3    H150254   4.047   3.670  15.265 -1.9501 -0.8970 -0.7916
 9613TIP3    H250255   4.050   3.744  15.133  0.0607 -0.4432 -0.5365
 9614TIP3   OH250256   5.660   1.687   1.007  0.1723  0.5291 -0.1250
 9614TIP3    H150257   5.680   1.761   0.950 -1.6331 -0.6642 -2.4707
 9614TIP3    H250258   5.646   1.614   0.947 -1.6249 -0.8590  1.8568
 9615TIP3   OH250259   4.861   2.258  15.379 -0.1260 -0.0898  0.5253
 9615TIP3    H150260   4.930   2.253  15.445  0.9716  1.8815 -0.3651
 9615TIP3    H250261   4.794   2.313  15.418  0.8497  1.6879 -0.1909
 9616TIP3   OH250262   1.313   3.636  16.643  0.6745  0.0835  0.2334
 9616TIP3    H150263   1.246   3.575  16.611 -1.0437  1.1872  1.5566
 9616TIP3    H250264   1.326   3.697  16.570 -0.4506  0.3962  0.2786
 9617TIP3   OH250265   4.674   5.141   1.064 -0.1629  0.4343 -0.2712
 9617TIP3    H150266   4.638   5.153   0.976 -0.9343 -1.8877 -0.3520
 9617TIP3    H250267   4.737   5.069   1.054 -0.2013  0.1909  1.0430
 9618TIP3   OH250268   1.888   4.619   2.591 -0.1889  0.1948  0.0561
 9618TIP3    H150269   1.955   4.657   2.648  0.7083  1.3103 -1.6434
 9618TIP3    H250270   1.843   4.695   2.554 -1.9072 -0.5276  0.5570
 9619TIP3   OH250271   4.522   0.275  14.330 -0.6730  0.4166 -0.6186
 9619TIP3    H150272   4.450   0.248  14.273 -0.2634 -0.1724 -0.8750
 9619TIP3    H250273   4.587   0.205  14.321 -0.8924 -0.0531  1.1272
 9620TIP3   OH250274   4.562   1.464   1.711  0.5564  0.1554  0.2430
 9620TIP3    H150275   4.548   1.369   1.707  2.5925 -0.2086  0.8500
 9620TIP3    H250276   4.476   1.501   1.691 -0.1946 -1.8019 -0.4459
 9621TIP3   OH250277   2.745   4.741  16.027  0.0197 -0.2715 -0.2489
 9621TIP3    H150278   2.752   4.728  16.122 -2.6122 -1.0863 -0.0713
 9621TIP3    H250279   2.790   4.666  15.989  0.2511 -0.4644  0.3864
 9622TIP3   OH250280   5.592   2.841  14.452  0.2788  0.4207  0.0987
 9622TIP3    H150281   5.619   2.788  14.377  0.0425  0.7437 -0.2155
 9622TIP3    H250282   5.605   2.784  14.528 -2.0161 -0.8899 -0.4027
 9623TIP3   OH250283   4.120   0.380  13.144  0.2845  0.0044 -0.0462
 9623TIP3    H150284   4.156   0.468  13.152  2.3153 -0.7553 -0.1529
 9623TIP3    H250285   4.033   0.392  13.105  0.2887  1.9622  0.4637
 9624TIP3   OH250286   0.352   3.989  15.692  0.0607 -0.6225 -0.0415
 9624TIP3    H150287   0.441   3.959  15.674 -0.0854 -0.8434 -0.3983
 9624TIP3    H250288   0.349   4.077  15.656  0.7509  0.1906  1.7441
 9625TIP3   OH250289   4.380   5.512  14.775 -0.2799 -0.0953 -0.4042
 9625TIP3    H150290   4.460   5.462  14.760  0.3403  0.1770  1.7827
 9625TIP3    H250291   4.410   5.600  14.797 -1.1837  0.0710  0.2109
 9626TIP3   OH250292   1.360   4.924  14.148 -0.2614  0.1311 -0.7638
 9626TIP3    H150293   1.370   4.980  14.072 -0.5479 -1.4902 -2.0416
 9626TIP3    H250294   1.292   4.861  14.123 -2.4513  1.2293  1.8666
 9627TIP3   OH250295   5.214   2.406   2.982  0.1858 -0.1872  0.2234
 9627TIP3    H150296   5.132   2.379   2.940 -1.9550  1.2426  3.0649
 9627TIP3    H250297   5.242   2.483   2.932 -0.1040 -0.7853 -0.8834
 9628TIP3   OH250298   1.376   4.207  13.895 -0.1739 -0.0258  0.2742
 9628TIP3    H150299   1.378   4.114  13.916 -3.8478 -0.2148  0.3463
 9628TIP3    H250300   1.422   4.214  13.811 -0.1243 -1.9589  0.1143
 9629TIP3   OH250301   3.948   0.967   1.209 -0.0514  0.1302  0.4784
 9629TIP3    H150302   3.946   1.053   1.167 -0.6334 -0.3166 -0.4393
 9629TIP3    H250303   4.010   0.916   1.156  0.4472  0.0286  1.1375
 9630TIP3   OH250304   4.009   1.567   0.639 -0.5441 -0.0790  0.2630
 9630TIP3    H150305   3.932   1.624   0.648 -0.7061 -0.5358  1.9664
 9630TIP3    H250306   3.988   1.510   0.565 -1.1957  0.7826 -0.2403
 9631TIP3   OH250307   3.137   2.901   5.215 -0.8590 -0.2469  0.3196
 9631TIP3    H150308   3.056   2.918   5.167 -0.1536  0.3421 -0.7049
 9631TIP3    H250309   3.175   2.825   5.172 -0.2022  0.3081 -0.1033
 9632TIP3   OH250310   6.463   4.857  14.783  0.1419  0.0247  0.2572
 9632TIP3    H150311   6.457   4.891  14.872 -1.0848  0.0772  0.1774
 9632TIP3    H250312   6.453   4.934  14.727 -0.5518 -0.1780  0.0853
 9633TIP3   OH250313   4.879   4.032  16.347  0.2641  0.2975 -0.2946
 9633TIP3    H150314   4.973   4.016  16.339  0.3386  1.0587 -0.9653
 9633TIP3    H250315   4.843   4.011  16.261 -0.7478 -3.3925  0.8085
 9634TIP3   OH250316   5.726   1.939   3.101 -0.6885 -0.0008 -0.4240
 9634TIP3    H150317   5.792   2.006   3.123  1.3019 -2.1744  0.7123
 9634TIP3    H250318   5.658   1.950   3.167 -0.0312  0.4180  0.1988
 9635TIP3   OH250319   6.056   0.221   2.475 -0.1457  0.1877 -0.3276
 9635TIP3    H150320   5.989   0.226   2.407  0.2158 -1.1377 -0.8168
 9635TIP3    H250321   6.038   0.295   2.533 -0.3928  1.4156 -1.9175
 9636TIP3   OH250322   6.596   5.692   0.521 -0.0064 -0.4562  0.5471
 9636TIP3    H150323   6.663   5.692   0.453  1.7705  1.1327  2.1688
 9636TIP3    H250324   6.636   5.647   0.595 -1.1947 -0.5643  1.1533
 9637TIP3   OH250325   0.336   3.580   2.097 -0.1352  0.1217  0.3543
 9637TIP3    H150326   0.402   3.620   2.153  0.9840  0.6607 -1.2455
 9637TIP3    H250327   0.343   3.486   2.115  1.5047  0.0988 -0.1571
 9638TIP3   OH250328   6.676   6.058   3.944 -0.1372  0.1512 -0.0081
 9638TIP3    H150329   6.715   6.037   4.029  2.4554 -2.0173 -1.5529
 9638TIP3    H250330   6.704   6.147   3.926  4.4607 -1.2199 -0.9536
 9639TIP3   OH250331   4.069   2.086  11.296 -0.0476  0.6451 -0.3098
 9639TIP3    H150332   4.081   2.087  11.201 -0.0175 -2.7632 -0.4472
 9639TIP3    H250333   3.974   2.083  11.308 -0.1227  2.5791 -0.1103
 9640TIP3   OH250334   5.832   3.525   1.252 -0.5259  0.2732 -0.0786
 9640TIP3    H150335   5.881   3.598   1.289  0.6185  0.3414 -1.6235
 9640TIP3    H250336   5.838   3.456   1.318  1.7294  0.2614 -0.2240
 9641TIP3   OH250337   0.679   4.354   4.296 -0.2358  0.2524  0.8817
 9641TIP3    H150338   0.694   4.262   4.277 -1.5885 -0.5079  3.0791
 9641TIP3    H250339   0.758   4.399   4.265 -0.1554 -1.4115 -1.5076
 9642TIP3   OH250340   5.305   4.772  15.509 -0.5984  0.3915  0.3612
 9642TIP3    H150341   5.315   4.678  15.489 -0.4178  0.2223  1.1922
 9642TIP3    H250342   5.233   4.801  15.453 -2.9705 -1.0285  2.4852
 9643TIP3   OH250343   4.359   0.630  16.098 -0.1718  0.2633  0.1050
 9643TIP3    H150344   4.387   0.571  16.027  0.7400 -0.4866  1.0564
 9643TIP3    H250345   4.299   0.691  16.055 -1.2402 -1.3907 -0.9085
 9644TIP3   OH250346   4.677   6.651   4.344  0.0016 -0.0508 -0.6773
 9644TIP3    H150347   4.599   6.597   4.350 -0.7686  1.1446  1.0606
 9644TIP3    H250348   4.661   6.709   4.270 -0.7923  0.1863 -0.3324
 9645TIP3   OH250349   0.960   5.733   4.263 -0.2270 -0.3554  0.6911
 9645TIP3    H150350   0.895   5.760   4.329  0.5498 -0.6438  1.6001
 9645TIP3    H250351   0.957   5.803   4.197 -2.7840 -1.2774 -0.2867
 9646TIP3   OH250352   5.755   2.672  17.250  1.2644  0.3337  0.2588
 9646TIP3    H150353   5.749   2.704  17.160 -0.4735 -0.9669 -0.1328
 9646TIP3    H250354   5.665   2.669  17.281  1.4831 -2.4120  0.8649
 9647TIP3   OH250355   5.209   3.172  12.879 -0.0732  0.1955  0.2124
 9647TIP3    H150356   5.140   3.236  12.893  0.2436  0.5765  0.0461
 9647TIP3    H250357   5.226   3.175  12.785  0.8263  0.7981  0.3805
 9648TIP3   OH250358   1.821   2.722  16.949 -0.0453  0.4641  0.0257
 9648TIP3    H150359   1.858   2.778  16.880  0.7508  0.4676  0.4451
 9648TIP3    H250360   1.873   2.742  17.026 -3.0753  3.1037  1.6562
 9649TIP3   OH250361   1.904   2.901   2.779  0.3999 -0.1453  0.1994
 9649TIP3    H150362   1.858   2.852   2.847 -2.3289  1.2787 -0.5067
 9649TIP3    H250363   1.980   2.846   2.757 -1.4480 -3.1350  0.7592
 9650TIP3   OH250364   3.625   0.051   1.426 -0.2457 -0.2573  0.1618
 9650TIP3    H150365   3.650  -0.012   1.358 -3.5028 -0.2382 -1.2580
 9650TIP3    H250366   3.562   0.003   1.480 -0.8441  1.0095  0.6112
 9651TIP3   OH250367   4.187   1.685   5.464 -0.2098  0.3833 -0.1510
 9651TIP3    H150368   4.271   1.640   5.456  0.1035  0.4857  1.8907
 9651TIP3    H250369   4.146   1.675   5.378  0.1622 -3.1931 -0.0847
 9652TIP3   OH250370   2.893   1.120  13.128 -0.1638  0.7588  0.3367
 9652TIP3    H150371   2.905   1.098  13.036  0.2783 -1.5173  0.8853
 9652TIP3    H250372   2.802   1.151  13.134  0.0965  1.8618 -0.9832
 9653TIP3   OH250373   2.954   3.509   4.801 -0.3437  0.4100  0.0241
 9653TIP3    H150374   2.896   3.463   4.863  2.1390 -1.6150  1.0299
 9653TIP3    H250375   2.935   3.468   4.717  0.0909 -0.7620  0.4746
 9654TIP3   OH250376   5.654   0.654   2.445  0.0067 -0.1324 -0.4824
 9654TIP3    H150377   5.698   0.731   2.407  0.6388  0.4221  1.2776
 9654TIP3    H250378   5.561   0.674   2.438  0.1735  1.0685  0.4346
 9655TIP3   OH250379   1.119   5.158   5.766  0.3372 -0.2068  0.0520
 9655TIP3    H150380   1.120   5.155   5.861 -0.0293  0.1912  0.0721
 9655TIP3    H250381   1.106   5.067   5.739 -3.8894  0.0384  0.4828
 9656TIP3   OH250382   3.173   0.686  15.178 -0.7035 -0.2521 -0.3925
 9656TIP3    H150383   3.197   0.707  15.088 -0.6862 -1.5586 -0.7089
 9656TIP3    H250384   3.255   0.695  15.227 -0.5712 -0.1670 -0.6273
 9657TIP3   OH250385   2.160   4.606  11.320  0.0814 -0.1595  0.5117
 9657TIP3    H150386   2.210   4.526  11.307  1.8242  0.9382  0.2094
 9657TIP3    H250387   2.115   4.621  11.237 -1.6687 -1.7079  1.1152
 9658TIP3   OH250388   4.698   2.206  14.087 -0.3005  0.3864  0.6372
 9658TIP3    H150389   4.719   2.210  13.994 -0.1910  0.1025  0.6495
 9658TIP3    H250390   4.609   2.172  14.091 -0.6956  1.3625  0.5944
 9659TIP3   OH250391   2.971   4.081  10.680 -0.0250  0.0223 -0.2384
 9659TIP3    H150392   2.931   4.034  10.608 -1.3987  0.7673  0.0106
 9659TIP3    H250393   2.900   4.131  10.719  0.3675 -1.3831  2.4918
 9660TIP3   OH250394   6.736   4.224   3.793  0.2116 -0.3912  0.3575
 9660TIP3    H150395   6.772   4.154   3.849  1.2606 -1.0821 -1.0893
 9660TIP3    H250396   6.809   4.247   3.735 -0.3028  1.5279  0.4140
 9661TIP3   OH250397   3.551   1.780  16.267  0.2803 -0.0918  0.3381
 9661TIP3    H150398   3.604   1.854  16.294  1.1910 -0.9720  1.0689
 9661TIP3    H250399   3.596   1.745  16.189 -0.5812  0.5654 -0.4767
 9662TIP3   OH250400   2.746   5.568  12.426  0.5056 -0.2423 -0.3337
 9662TIP3    H150401   2.796   5.605  12.353  2.2311  0.1253  0.9772
 9662TIP3    H250402   2.743   5.638  12.491  1.2066 -1.3643  0.9635
 9663TIP3   OH250403   0.857   3.220   0.979  0.0301 -0.3349 -0.0435
 9663TIP3    H150404   0.855   3.314   1.000  2.3521 -0.5230  1.3468
 9663TIP3    H250405   0.855   3.177   1.064  2.3087 -1.3991 -0.4698
 9664TIP3   OH250406   5.517   6.119   5.594  0.1847  0.3681  0.7275
 9664TIP3    H150407   5.485   6.039   5.635  0.8337 -0.7334 -0.7847
 9664TIP3    H250408   5.523   6.097   5.501  0.8371  2.0346  0.3328
 9665TIP3   OH250409   6.456   1.666   3.055 -0.1906  0.5307  0.6574
 9665TIP3    H150410   6.370   1.628   3.040 -0.2010  0.9356 -0.4220
 9665TIP3    H250411   6.509   1.594   3.089 -0.2084 -0.4781 -1.3089
 9666TIP3   OH250412   4.767   5.158  16.783  0.3352 -0.2633 -0.6097
 9666TIP3    H150413   4.690   5.104  16.765 -0.3406  0.2601  0.6001
 9666TIP3    H250414   4.841   5.104  16.755 -0.2365 -2.2973  1.4176
 9667TIP3   OH250415   0.435   1.845  11.511  0.2091  0.2480  0.1112
 9667TIP3    H150416   0.344   1.870  11.527  0.5255  0.1623  2.5165
 9667TIP3    H250417   0.450   1.864  11.418 -2.4070 -0.3238 -0.4886
 9668TIP3   OH250418   4.562   0.993  12.596 -0.1145  0.0098 -0.1628
 9668TIP3    H150419   4.654   0.997  12.570  0.3704 -1.0105  1.2265
 9668TIP3    H250420   4.535   0.905  12.572  0.0755 -0.6243  1.7410
 9669TIP3   OH250421   4.274   5.049   2.513 -0.0702 -0.1458 -0.1858
 9669TIP3    H150422   4.327   4.970   2.524  0.4720  0.4259  1.6716
 9669TIP3    H250423   4.309   5.090   2.433  0.7839 -0.9179 -0.2337
 9670TIP3   OH250424   3.094   3.464   5.319 -0.2499  0.1527  0.3417
 9670TIP3    H150425   3.171   3.509   5.354  0.5060 -0.0946 -0.9466
 9670TIP3    H250426   3.111   3.457   5.225 -0.5029 -2.5004  0.4249
 9671TIP3   OH250427   4.171   6.195   4.464 -0.2131  0.5841 -0.4277
 9671TIP3    H150428   4.081   6.216   4.490 -0.2467 -0.7664  0.7091
 9671TIP3    H250429   4.193   6.260   4.398 -1.5966  1.7019  0.1502
 9672TIP3   OH250430   0.453   3.325   1.059 -0.4859 -0.0574 -0.1259
 9672TIP3    H150431   0.395   3.250   1.042  0.0735 -0.4812 -0.2085
 9672TIP3    H250432   0.448   3.377   0.978 -2.1157  0.8632  0.5205
 9673TIP3   OH250433   3.016   2.729  12.803 -0.5018 -0.6442 -0.6944
 9673TIP3    H150434   3.007   2.770  12.889  0.4706  0.1205 -0.9432
 9673TIP3    H250435   2.964   2.784  12.744  1.8883  1.1274 -1.2873
 9674TIP3   OH250436   3.134   2.251   3.609 -0.3333 -0.5039 -0.3236
 9674TIP3    H150437   3.097   2.287   3.690 -0.7236 -0.8396 -0.3480
 9674TIP3    H250438   3.194   2.319   3.578  0.6801 -0.8431  0.8299
 9675TIP3   OH250439   1.434   3.666  15.599  0.0237 -0.2837 -0.7521
 9675TIP3    H150440   1.396   3.611  15.531 -0.0553  0.0337 -0.9646
 9675TIP3    H250441   1.402   3.755  15.579  1.5874  0.1443 -1.4607
 9676TIP3   OH250442   3.934   0.482  12.530  0.9100 -0.2570  0.0473
 9676TIP3    H150443   3.890   0.538  12.465  2.4966  0.4719 -0.4458
 9676TIP3    H250444   3.866   0.422  12.560 -0.7313  1.5917  0.2060
 9677TIP3   OH250445   4.099   3.035   5.944  0.3031  0.5019 -0.2218
 9677TIP3    H150446   4.146   3.070   5.869 -1.3702 -0.3086 -1.7391
 9677TIP3    H250447   4.108   2.940   5.935  0.2991  0.4044  0.7554
 9678TIP3   OH250448   6.567   4.124  11.977  0.1289  0.6035  0.3658
 9678TIP3    H150449   6.478   4.127  11.941  0.7205 -0.7662 -1.3263
 9678TIP3    H250450   6.562   4.058  12.047 -0.5234  1.7157  1.4134
 9679TIP3   OH250451   6.262   4.822  12.016 -0.6710 -0.2238 -0.3535
 9679TIP3    H150452   6.222   4.736  12.021  0.8039 -0.9580 -0.7185
 9679TIP3    H250453   6.354   4.805  11.995  0.4782  1.2406  2.8676
 9680TIP3   OH250454   5.566   5.106  14.674  0.9806 -0.3286 -0.0076
 9680TIP3    H150455   5.658   5.083  14.683  1.0134 -0.8834 -1.5751
 9680TIP3    H250456   5.520   5.022  14.681  0.6128 -0.1076  0.3134
 9681TIP3   OH250457   0.627   1.325  16.010 -0.3565  0.8148 -0.2098
 9681TIP3    H150458   0.595   1.241  16.044 -2.2033  0.6530 -2.1542
 9681TIP3    H250459   0.704   1.344  16.063 -1.6466 -0.5705  2.3627
 9682TIP3   OH250460   6.373   4.109   4.347  0.4892  0.0300 -0.5144
 9682TIP3    H150461   6.328   4.193   4.338  1.1991  0.3537 -1.1526
 9682TIP3    H250462   6.466   4.132   4.350  0.6396 -0.6369  0.6254
 9683TIP3   OH250463   6.520   3.009  12.753  0.7843  0.2178  0.0276
 9683TIP3    H150464   6.471   2.928  12.741  0.5866  0.3140  0.1819
 9683TIP3    H250465   6.537   3.039  12.663  0.4007  0.2785 -0.0284
 9684TIP3   OH250466   1.856   4.042   3.439  0.4485 -0.0086 -1.0987
 9684TIP3    H150467   1.791   4.019   3.506  0.0616  0.5648 -1.2673
 9684TIP3    H250468   1.931   3.986   3.458  0.8555  1.0472  0.6111
 9685TIP3   OH250469   4.732   4.374  11.165  0.5062  0.3517 -0.1223
 9685TIP3    H150470   4.679   4.451  11.146  0.1241  0.3462  0.8295
 9685TIP3    H250471   4.698   4.342  11.249  0.0468 -1.4004 -0.9482
 9686TIP3   OH250472   0.878   6.508  15.998 -0.4346  0.0886 -0.1458
 9686TIP3    H150473   0.910   6.436  15.944 -1.4440  0.0208 -0.6806
 9686TIP3    H250474   0.922   6.497  16.082  3.8633  2.1585 -1.8501
 9687TIP3   OH250475   5.214   1.438   6.266 -0.0972  0.3026 -0.1118
 9687TIP3    H150476   5.246   1.349   6.252 -0.9593 -0.1384  0.6365
 9687TIP3    H250477   5.280   1.494   6.225  1.8110 -0.5503  1.6507
 9688TIP3   OH250478   2.623   2.411   5.218 -0.3790 -0.0313  0.1859
 9688TIP3    H150479   2.678   2.339   5.248  0.8326  0.6588 -0.3043
 9688TIP3    H250480   2.685   2.473   5.179 -1.5096  0.8055 -0.3072
 9689TIP3   OH250481   5.908   1.277   0.802  0.2432  0.2218 -0.0978
 9689TIP3    H150482   6.003   1.270   0.791  0.3123  0.3802  0.3767
 9689TIP3    H250483   5.883   1.197   0.849 -0.3181 -1.3920 -2.9289
 9690TIP3   OH250484   0.004   0.493   0.828  0.0216 -0.5753  0.6365
 9690TIP3    H150485   0.094   0.507   0.798 -0.3176  0.4644  0.0366
 9690TIP3    H250486   0.011   0.491   0.923  0.8344 -1.7453  0.5713
 9691TIP3   OH250487   1.818   4.193   0.227 -0.2299 -0.2483 -0.3119
 9691TIP3    H150488   1.885   4.222   0.289  1.8688 -1.6217 -1.8038
 9691TIP3    H250489   1.767   4.271   0.208  1.1877  0.9377  0.5815
 9692TIP3   OH250490   4.525   2.628   3.035  0.3567 -0.1401 -0.8802
 9692TIP3    H150491   4.607   2.661   3.072  1.2942 -2.3214 -0.8955
 9692TIP3    H250492   4.492   2.566   3.100 -0.8576  0.0697 -1.2668
 9693TIP3   OH250493   3.445   5.600  12.341 -0.7641  0.3318 -0.4691
 9693TIP3    H150494   3.474   5.509  12.346 -0.4156  0.5080  1.5352
 9693TIP3    H250495   3.410   5.609  12.252  1.0752 -1.1680 -1.4164
 9694TIP3   OH250496   6.523   5.282   4.078 -0.0069  0.3173 -0.0277
 9694TIP3    H150497   6.429   5.298   4.087 -0.3564 -0.1880 -2.1417
 9694TIP3    H250498   6.560   5.368   4.060  0.3534  0.9169  3.0356
 9695TIP3   OH250499   3.253   3.657   3.363 -0.0644 -0.6643 -0.4602
 9695TIP3    H150500   3.166   3.698   3.362 -0.0504 -0.5954 -2.4475
 9695TIP3    H250501   3.236   3.564   3.353  0.0309 -0.8897  1.2369
 9696TIP3   OH250502   2.615   3.931  15.082  0.3505  0.0589 -0.1255
 9696TIP3    H150503   2.641   3.839  15.081 -0.7291 -0.2659  0.2485
 9696TIP3    H250504   2.609   3.954  15.174  0.5237  0.4806 -0.2159
 9697TIP3   OH250505   6.067   4.252  11.157 -0.2529  0.5798 -0.0910
 9697TIP3    H150506   6.146   4.215  11.117 -2.1627 -1.1063 -2.6143
 9697TIP3    H250507   6.068   4.218  11.247  0.6598 -1.5201 -0.8290
 9698TIP3   OH250508   1.451   1.400   2.567 -0.4729  0.1907  0.0279
 9698TIP3    H150509   1.463   1.468   2.501 -0.0764  0.3435  0.2561
 9698TIP3    H250510   1.503   1.429   2.641  0.1534 -0.6456 -0.0782
 9699TIP3   OH250511   5.497   1.272  14.604  0.1572 -0.0962  0.0480
 9699TIP3    H150512   5.487   1.188  14.560  0.5562  0.0538 -0.3288
 9699TIP3    H250513   5.545   1.327  14.542 -0.9228  0.7183 -0.0992
 9700TIP3   OH250514   2.205   3.584   2.168 -0.3607 -0.0716 -0.0442
 9700TIP3    H150515   2.185   3.662   2.220 -0.9675  0.3697 -0.9055
 9700TIP3    H250516   2.139   3.585   2.098  0.0674 -0.9710 -0.4721
 9701TIP3   OH250517   6.622   5.633   0.115  0.1104 -0.3710 -0.2967
 9701TIP3    H150518   6.583   5.553   0.078 -0.3024 -0.1178 -0.4128
 9701TIP3    H250519   6.640   5.688   0.039 -0.5984  0.0903 -0.1358
 9702TIP3   OH250520   4.618   4.290   3.233 -0.2079 -0.1523  0.3642
 9702TIP3    H150521   4.599   4.269   3.141 -0.1612 -0.0966  0.3419
 9702TIP3    H250522   4.562   4.230   3.283  1.5187 -1.9010  0.3196
 9703TIP3   OH250523   4.565   2.266   2.910  0.4289 -0.2008 -0.5871
 9703TIP3    H150524   4.529   2.216   2.838 -0.3289  0.7735 -0.9132
 9703TIP3    H250525   4.496   2.329   2.932  0.0172 -1.4229  1.9814
 9704TIP3   OH250526   1.182   5.495  16.274 -0.6499 -0.2456 -0.1537
 9704TIP3    H150527   1.087   5.497  16.276 -0.6435  0.1033  1.8595
 9704TIP3    H250528   1.209   5.555  16.343  0.9893 -1.7437  0.5998
 9705TIP3   OH250529   4.069   5.151   3.630 -0.0220  0.4177  0.7536
 9705TIP3    H150530   4.156   5.128   3.598  0.4385  1.2538  1.3522
 9705TIP3    H250531   4.065   5.113   3.718 -1.1637 -1.6221 -0.1158
 9706TIP3   OH250532   0.018   6.214  11.672 -0.1366  0.5106  0.6959
 9706TIP3    H150533  -0.009   6.237  11.583 -0.6526  0.2957  0.7948
 9706TIP3    H250534  -0.015   6.286  11.726 -0.7512  0.1249  0.8498
 9707TIP3   OH250535   5.446   3.744   6.615 -0.3860  0.0096  0.5557
 9707TIP3    H150536   5.358   3.707   6.612 -0.3436 -0.1298  0.9010
 9707TIP3    H250537   5.432   3.838   6.629 -0.4891  0.0769 -0.0122
 9708TIP3   OH250538   5.861   1.546  13.061  0.0283 -0.4921 -0.1839
 9708TIP3    H150539   5.812   1.466  13.080  0.1134 -0.3205  0.8218
 9708TIP3    H250540   5.910   1.564  13.141  0.6315  0.1276 -0.6783
 9709TIP3   OH250541   5.017   6.050   4.170  0.4287  0.7106 -0.0361
 9709TIP3    H150542   5.039   6.005   4.252 -3.5457 -0.2011  0.7388
 9709TIP3    H250543   5.017   6.143   4.194 -0.6661  0.4584  1.0772
 9710TIP3   OH250544   1.387   1.000   1.632 -0.2140  0.1350 -0.1231
 9710TIP3    H150545   1.374   1.026   1.724 -0.4873  0.5087 -0.2631
 9710TIP3    H250546   1.442   1.070   1.596 -1.6856  1.0208 -0.7359
 9711TIP3   OH250547   5.785   4.199  14.246  0.2753 -0.0993 -0.2398
 9711TIP3    H150548   5.708   4.185  14.302 -1.2873 -0.1860 -2.2939
 9711TIP3    H250549   5.833   4.116  14.251  0.8735  0.2985  1.8647
 9712TIP3   OH250550   3.481   0.454   2.317  0.4415  0.3082  0.0372
 9712TIP3    H150551   3.562   0.473   2.269  1.0267  0.4062  1.0360
 9712TIP3    H250552   3.494   0.365   2.351 -0.7212 -0.4909 -1.4568
 9713TIP3   OH250553   5.478   2.539  16.487 -0.4219  0.1061  0.2712
 9713TIP3    H150554   5.448   2.540  16.578 -1.5488  2.6328 -0.0408
 9713TIP3    H250555   5.502   2.448  16.471 -2.0248 -0.8094  2.5137
 9714TIP3   OH250556   3.518   1.366   6.287 -0.0816  0.0915  0.6269
 9714TIP3    H150557   3.497   1.455   6.258  1.5197  0.2023 -0.3556
 9714TIP3    H250558   3.458   1.349   6.359 -1.2377  1.5102  0.0503
 9715TIP3   OH250559   1.865   2.006  12.566 -0.0808  0.3155 -0.0226
 9715TIP3    H150560   1.935   1.973  12.510  0.3931  0.6533  0.3724
 9715TIP3    H250561   1.809   1.930  12.582 -0.2572  0.2208 -0.9974
 9716TIP3   OH250562   0.352   3.713   0.965 -0.0070 -0.0437  0.0868
 9716TIP3    H150563   0.312   3.638   0.920  1.5694 -1.0235  0.2661
 9716TIP3    H250564   0.325   3.702   1.056 -0.3774  0.0258 -0.0102
 9717TIP3   OH250565   0.597   6.262   3.658  0.2964  0.4549 -0.0969
 9717TIP3    H150566   0.598   6.180   3.609  0.8166  0.0721  0.5375
 9717TIP3    H250567   0.689   6.288   3.663  0.3010  0.3112  0.9407
 9718TIP3   OH250568   0.595   1.695  16.373  0.4628  0.6280  0.2585
 9718TIP3    H150569   0.568   1.754  16.443 -0.9860 -1.4262  1.5552
 9718TIP3    H250570   0.576   1.742  16.292  2.6550  3.2791  1.1491
 9719TIP3   OH250571   3.893   6.501   0.486 -0.2090  0.0219  0.3201
 9719TIP3    H150572   3.817   6.461   0.530 -1.2851 -0.4812 -1.8510
 9719TIP3    H250573   3.969   6.455   0.523 -1.1180 -1.0220  0.9798
 9720TIP3   OH250574   5.792   0.061   0.756  0.5212  0.0208 -0.4976
 9720TIP3    H150575   5.887   0.049   0.757  0.5490  0.2757 -0.0466
 9720TIP3    H250576   5.757  -0.026   0.769  0.6820 -0.2148 -1.5478
 9721TIP3   OH250577   6.620   0.517  12.663  0.1037 -0.8561 -0.5252
 9721TIP3    H150578   6.545   0.468  12.696 -0.9966 -0.6492 -2.5620
 9721TIP3    H250579   6.582   0.590  12.615  1.6139 -0.5715 -1.3513
 9722TIP3   OH250580   4.745   5.154  14.339 -0.1933  0.1526  0.7298
 9722TIP3    H150581   4.719   5.066  14.367 -0.3831 -0.1747 -0.4486
 9722TIP3    H250582   4.688   5.213  14.388 -0.3589 -0.3958  1.2050
 9723TIP3   OH250583   0.306   3.463   3.495 -0.5404 -0.3141  0.2121
 9723TIP3    H150584   0.223   3.466   3.448  0.2660 -0.6094 -1.2625
 9723TIP3    H250585   0.363   3.408   3.442  1.9795  3.2182 -1.1192
 9724TIP3   OH250586   1.629   2.543   0.755  0.2055 -0.0209 -0.6492
 9724TIP3    H150587   1.684   2.590   0.817  0.3739  0.6653 -1.2994
 9724TIP3    H250588   1.610   2.607   0.686 -2.0725  0.0503 -0.0594
 9725TIP3   OH250589   0.731   1.053   5.591 -0.3093 -0.0414  0.4559
 9725TIP3    H150590   0.643   1.037   5.623 -0.0881 -0.2084  0.9930
 9725TIP3    H250591   0.784   0.982   5.628 -0.1848 -0.7038 -0.9284
 9726TIP3   OH250592   3.617   5.088  15.888  0.6503 -0.2778  0.4461
 9726TIP3    H150593   3.586   5.158  15.945  0.9386 -0.2183  0.5318
 9726TIP3    H250594   3.657   5.133  15.814 -0.6397 -0.3511 -0.3200
 9727TIP3   OH250595   1.888   4.288   3.707  0.3841 -0.3809  0.4745
 9727TIP3    H150596   1.795   4.275   3.691  0.2887 -0.4080  1.0374
 9727TIP3    H250597   1.909   4.229   3.779  0.8987 -0.5787  0.1710
 9728TIP3   OH250598   0.896   6.303   4.710 -0.0602 -0.1255  0.0966
 9728TIP3    H150599   0.893   6.375   4.646  1.5719 -0.5812 -0.5326
 9728TIP3    H250600   0.989   6.290   4.728 -0.4419  0.9109  3.7017
 9729TIP3   OH250601   0.399   1.078  15.189 -0.2170  0.0331 -0.1381
 9729TIP3    H150602   0.472   1.115  15.239 -0.3449 -0.4915  0.4485
 9729TIP3    H250603   0.440   1.018  15.127 -0.2215 -1.2555  1.0670
 9730TIP3   OH250604   3.234   6.048   0.403 -0.4593  0.4158  0.5640
 9730TIP3    H150605   3.249   5.973   0.345 -0.5209 -0.2977  1.4523
 9730TIP3    H250606   3.274   6.122   0.357  0.3335 -0.3096  0.0586
 9731TIP3   OH250607   1.165   2.354   3.735  0.4118  0.4216 -0.3301
 9731TIP3    H150608   1.154   2.316   3.822 -1.7159 -0.6769 -0.9843
 9731TIP3    H250609   1.214   2.288   3.686  2.0058  1.2373  0.1196
 9732TIP3   OH250610   3.950   1.570  14.327 -0.2219  0.4441  0.1148
 9732TIP3    H150611   3.926   1.643  14.385 -2.1181 -0.4386  0.5104
 9732TIP3    H250612   4.003   1.610  14.258  2.2930  1.5352  2.4783
 9733TIP3   OH250613   5.759   1.727   3.509 -0.1860  0.1146 -0.2158
 9733TIP3    H150614   5.665   1.721   3.489 -0.1579  0.8168 -0.5662
 9733TIP3    H250615   5.797   1.768   3.432  0.4986 -0.6435 -0.2989
 9734TIP3   OH250616   0.358   5.303  14.034  0.0118  0.4919  0.3727
 9734TIP3    H150617   0.432   5.321  14.091 -0.4148 -1.5181  1.6820
 9734TIP3    H250618   0.395   5.253  13.961  0.1409  0.6375  0.3386
 9735TIP3   OH250619   2.485   0.147  16.339 -0.5766  0.6302  0.3636
 9735TIP3    H150620   2.529   0.068  16.369 -1.1864 -0.3280 -1.1326
 9735TIP3    H250621   2.557   0.208  16.321 -0.0773  0.3161  1.2415
 9736TIP3   OH250622   2.306   6.495   0.119  0.3749  0.1963 -0.1068
 9736TIP3    H150623   2.389   6.447   0.126  0.7088  0.8870  1.1684
 9736TIP3    H250624   2.251   6.441   0.062  1.5390 -0.5078 -0.6015
 9737TIP3   OH250625   1.456   1.736  12.426  0.3007  0.3915  0.6491
 9737TIP3    H150626   1.364   1.707  12.427  0.1009  0.8137  3.4803
 9737TIP3    H250627   1.496   1.689  12.499  2.5416 -0.2127 -0.8843
 9738TIP3   OH250628   3.820   0.074  13.486 -0.4972  0.1435 -0.4161
 9738TIP3    H150629   3.797   0.050  13.576 -0.1187 -0.1462 -0.3947
 9738TIP3    H250630   3.896   0.020  13.466 -1.4109 -0.8195 -1.4057
 9739TIP3   OH250631   4.888   1.102  13.749 -0.3091 -0.1389  0.1292
 9739TIP3    H150632   4.829   1.077  13.820 -0.6057  1.3650  0.4458
 9739TIP3    H250633   4.864   1.045  13.676 -4.0952  2.1068 -0.6713
 9740TIP3   OH250634   1.727   5.534  16.308 -0.0317 -0.3832 -0.0356
 9740TIP3    H150635   1.767   5.491  16.384 -0.8210 -0.2696  0.4490
 9740TIP3    H250636   1.704   5.622  16.339  0.3679 -0.0499 -0.6450
 9741TIP3   OH250637   2.267   5.778   2.107  0.2463 -0.1029 -0.0616
 9741TIP3    H150638   2.221   5.847   2.059  1.0096  0.7039  0.3460
 9741TIP3    H250639   2.349   5.818   2.135  0.7403 -1.2070  0.1152
 9742TIP3   OH250640   1.334   4.289   1.248 -0.0101  0.0741  0.3172
 9742TIP3    H150641   1.373   4.222   1.192  1.0718  1.7205 -1.0240
 9742TIP3    H250642   1.257   4.320   1.200  0.1093  0.5183  0.4011
 9743TIP3   OH250643   5.449   0.775   0.929 -0.5441 -0.1106  0.8412
 9743TIP3    H150644   5.430   0.848   0.870 -1.5130 -0.3376  0.8648
 9743TIP3    H250645   5.499   0.814   1.001  1.2591  0.0593 -0.4229
 9744TIP3   OH250646   6.286   4.080  12.269  0.0886 -0.0543  0.2772
 9744TIP3    H150647   6.223   4.118  12.330  0.2765 -3.2402  2.7050
 9744TIP3    H250648   6.352   4.148  12.256 -1.8688  2.0092  0.6277
 9745TIP3   OH250649   2.397   1.048   1.854  0.3882  0.4234 -0.3259
 9745TIP3    H150650   2.360   1.033   1.941  2.4926 -1.8087  0.2951
 9745TIP3    H250651   2.462   1.116   1.867 -0.0066  0.8176 -0.3870
 9746TIP3   OH250652   0.236   4.678  11.443 -0.3442  0.0579  0.5737
 9746TIP3    H150653   0.149   4.640  11.434  0.3653 -1.3501 -0.7648
 9746TIP3    H250654   0.233   4.756  11.388 -0.6983 -0.1083  0.3505
 9747TIP3   OH250655   5.546   2.054   4.951 -0.3232  0.7092  0.3070
 9747TIP3    H150656   5.621   2.024   5.003 -0.3857  0.0481  0.0272
 9747TIP3    H250657   5.577   2.133   4.908 -0.1513  1.0637  1.0692
 9748TIP3   OH250658   5.975   1.812  16.773 -0.0794  0.7689 -0.5695
 9748TIP3    H150659   5.951   1.723  16.799  0.5967  0.2776 -1.5485
 9748TIP3    H250660   5.931   1.868  16.836  0.6679 -0.3111  0.9982
 9749TIP3   OH250661   3.332   1.370   4.342 -0.3512  0.4553 -0.5352
 9749TIP3    H150662   3.260   1.411   4.389 -0.6655  0.6033 -1.1423
 9749TIP3    H250663   3.294   1.291   4.304 -0.2526  0.6561 -1.0511
 9750TIP3   OH250664   1.994   6.461  16.239  0.7482  0.3538  0.0031
 9750TIP3    H150665   1.958   6.441  16.325  1.7003  0.2512  0.3892
 9750TIP3    H250666   2.047   6.385  16.216  1.9094  1.0905  0.1183
 9751TIP3   OH250667   5.355   0.206   6.111 -0.0714  0.2923  0.4656
 9751TIP3    H150668   5.437   0.255   6.112 -0.8714  1.6936  0.1142
 9751TIP3    H250669   5.342   0.178   6.202  0.9901 -0.3258  0.4423
 9752TIP3   OH250670   6.071   6.531  13.888  0.0305 -0.1162  0.0176
 9752TIP3    H150671   6.124   6.607  13.909  1.7155 -1.0619 -0.6517
 9752TIP3    H250672   6.062   6.484  13.971  0.8349 -0.2991  0.0082
 9753TIP3   OH250673   6.392   5.987  14.433 -0.1640  0.2039  0.1576
 9753TIP3    H150674   6.426   5.937  14.507 -1.4797  0.3557  0.9128
 9753TIP3    H250675   6.469   6.006  14.379  0.5939 -1.2356  0.6722
 9754TIP3   OH250676   4.872   2.046  16.656  0.3232  0.1260  0.2405
 9754TIP3    H150677   4.956   2.059  16.610  1.4555 -3.1716  1.0816
 9754TIP3    H250678   4.824   1.984  16.601 -1.0483  1.0116  0.4090
 9755TIP3   OH250679   5.672   4.903  17.332 -0.0631 -0.3699  0.4046
 9755TIP3    H150680   5.728   4.863  17.397 -0.5196  0.2921  1.2307
 9755TIP3    H250681   5.607   4.952  17.383 -1.4777 -1.2224 -0.5032
 9756TIP3   OH250682   5.187   4.011  16.383  0.1287  0.5109  0.3667
 9756TIP3    H150683   5.253   3.974  16.324 -1.5737 -0.8903 -0.7903
 9756TIP3    H250684   5.192   3.957  16.461 -0.4128 -0.3762 -0.1917
 9757TIP3   OH250685   6.107   5.316   2.604  0.4359  0.2510  0.6581
 9757TIP3    H150686   6.186   5.293   2.653  0.4447  2.9582  2.1349
 9757TIP3    H250687   6.113   5.411   2.592 -1.9431  0.3430 -0.3777
 9758TIP3   OH250688   0.426   1.064   5.541  1.4189 -0.6616  0.0354
 9758TIP3    H150689   0.377   1.145   5.531 -0.1800 -1.3519  1.7703
 9758TIP3    H250690   0.377   1.000   5.489  0.6190 -1.2875  1.5234
 9759TIP3   OH250691   2.672   3.552  13.669  0.1446  0.0421 -0.2065
 9759TIP3    H150692   2.708   3.472  13.630  1.7483  0.0524  1.1923
 9759TIP3    H250693   2.674   3.537  13.763  0.1398  1.5958  0.0703
 9760TIP3   OH250694   5.918   2.458  11.732  0.5041  0.0084 -0.0082
 9760TIP3    H150695   5.887   2.373  11.699  1.5130 -0.2822 -0.2231
 9760TIP3    H250696   5.991   2.436  11.789 -0.5060  0.5850  1.5938
 9761TIP3   OH250697   4.249   4.521  16.419  0.1475  0.4817  0.1027
 9761TIP3    H150698   4.287   4.450  16.368 -1.3966  0.4037 -0.9968
 9761TIP3    H250699   4.323   4.579  16.437  0.7880  0.5101 -2.2498
 9762TIP3   OH250700   0.963   2.688   2.880  0.4207  0.4865  0.2019
 9762TIP3    H150701   1.003   2.752   2.939  0.9742 -0.0702  0.4424
 9762TIP3    H250702   0.979   2.722   2.793 -1.6358  2.0573  0.3614
 9763TIP3   OH250703   5.884   6.160   3.123  0.0906  0.1196 -0.2974
 9763TIP3    H150704   5.805   6.107   3.128 -1.2277  1.8647 -1.3045
 9763TIP3    H250705   5.945   6.107   3.072 -0.7265 -0.9267 -0.2284
 9764TIP3   OH250706   1.597   1.327  14.786  0.8310 -0.1328 -0.0747
 9764TIP3    H150707   1.626   1.366  14.703  0.2816  0.3465 -0.0418
 9764TIP3    H250708   1.604   1.397  14.850  0.9482 -0.4142  0.2261
 9765TIP3   OH250709   4.694   0.475  15.587  0.0288  0.2689  0.2551
 9765TIP3    H150710   4.707   0.538  15.516  1.8882 -1.5591 -1.1394
 9765TIP3    H250711   4.730   0.518  15.664  2.4163  0.5164 -0.9233
 9766TIP3   OH250712   0.240   1.577   4.545  0.7855  0.0605  0.3954
 9766TIP3    H150713   0.154   1.619   4.545  1.9647  2.7693 -1.6427
 9766TIP3    H250714   0.244   1.530   4.462  1.2752 -0.1136  0.5108
 9767TIP3   OH250715   5.016   1.789   6.274 -0.2718  0.1543 -0.5120
 9767TIP3    H150716   5.100   1.819   6.241 -0.7214 -1.1209 -3.0570
 9767TIP3    H250717   4.993   1.714   6.219 -3.4649  0.9396 -0.4814
 9768TIP3   OH250718   3.236   5.457  14.892  0.2901 -0.1666 -0.2756
 9768TIP3    H150719   3.208   5.438  14.981  2.6268 -0.5881  0.4182
 9768TIP3    H250720   3.270   5.374  14.859  4.5947  1.0768  0.4960
 9769TIP3   OH250721   0.715   3.818   2.509 -0.1233  1.0853 -0.1902
 9769TIP3    H150722   0.730   3.858   2.595  0.9296  1.1527 -0.3958
 9769TIP3    H250723   0.748   3.729   2.518 -2.1721  0.2882  0.1669
 9770TIP3   OH250724   6.394   4.644  11.449 -0.7988  0.0555 -0.2505
 9770TIP3    H150725   6.310   4.633  11.404 -0.8786  1.1427 -0.4075
 9770TIP3    H250726   6.404   4.739  11.457  1.3949  0.0695 -2.1007
 9771TIP3   OH250727   5.696   0.059  15.292  0.6146 -0.1155  0.4138
 9771TIP3    H150728   5.701  -0.035  15.274  0.1493 -0.3022  1.2026
 9771TIP3    H250729   5.751   0.072  15.369 -1.5109 -0.2467  2.0385
 9772TIP3   OH250730   3.442   3.688  15.391  0.1104 -0.0200  0.3153
 9772TIP3    H150731   3.397   3.741  15.326 -0.2729  0.0674  0.6463
 9772TIP3    H250732   3.535   3.704  15.376  0.0348 -0.2420 -0.4071
 9773TIP3   OH250733   3.939   5.319  13.511 -0.3135 -0.5339 -0.0773
 9773TIP3    H150734   3.957   5.302  13.603 -1.8221 -1.1530  0.1186
 9773TIP3    H250735   4.007   5.269  13.464  0.4363 -0.2489  0.6788
 9774TIP3   OH250736   0.189   5.816  16.842 -0.1244 -0.7729  0.0867
 9774TIP3    H150737   0.131   5.740  16.843  0.2770 -1.0782  0.7462
 9774TIP3    H250738   0.276   5.779  16.854  0.3254 -0.4042 -1.7341
 9775TIP3   OH250739   3.176   5.042   5.415  0.0257 -0.2635 -0.3723
 9775TIP3    H150740   3.229   5.109   5.372 -0.9464  0.0441 -1.1306
 9775TIP3    H250741   3.146   4.986   5.343 -0.8982 -0.2606 -0.0003
 9776TIP3   OH250742   2.172   5.767  16.256  0.1403  0.1060 -0.2680
 9776TIP3    H150743   2.109   5.756  16.185 -0.7366  0.7493  0.3956
 9776TIP3    H250744   2.254   5.792  16.212 -0.0563 -0.7130 -1.1329
 9777TIP3   OH250745   5.918   2.070   0.512  0.4159 -0.1501 -0.4275
 9777TIP3    H150746   5.840   2.019   0.492  0.3115  0.3570 -1.3635
 9777TIP3    H250747   5.903   2.104   0.600 -0.6343  0.3397 -0.7830
 9778TIP3   OH250748   2.618   5.386   4.621  0.1382  0.4694  0.6563
 9778TIP3    H150749   2.681   5.449   4.587  0.3523  0.1702  0.4966
 9778TIP3    H250750   2.548   5.384   4.556  0.0777  0.6242  0.7162
 9779TIP3   OH250751   5.800   6.637   3.857 -0.4963  0.1545  0.1380
 9779TIP3    H150752   5.784   6.666   3.767 -0.6006 -2.0540 -0.6288
 9779TIP3    H250753   5.764   6.707   3.912 -1.7204  0.9078 -1.5285
 9780TIP3   OH250754   6.175   3.661   2.016 -0.8800  0.1650 -0.2267
 9780TIP3    H150755   6.252   3.653   2.073  1.5459 -1.4890 -3.4137
 9780TIP3    H250756   6.127   3.580   2.028 -0.2183 -0.3048 -0.6644
 9781TIP3   OH250757   4.814   4.963  11.677 -0.1739 -0.7587 -0.7014
 9781TIP3    H150758   4.823   5.012  11.759  1.5998 -0.8090 -0.8332
 9781TIP3    H250759   4.727   4.988  11.644  0.2720  1.5838 -0.2807
 9782TIP3   OH250760   1.038   2.548   6.282 -0.4531  0.1483 -0.0845
 9782TIP3    H150761   1.083   2.617   6.330  0.4408  1.0054 -2.0302
 9782TIP3    H250762   0.983   2.504   6.348  0.1663  1.6693  1.5244
 9783TIP3   OH250763   0.194   1.335  12.772  0.4045 -0.4353 -0.6760
 9783TIP3    H150764   0.118   1.384  12.741  0.4283  0.5993  0.7901
 9783TIP3    H250765   0.157   1.265  12.826  0.4471 -0.8239 -1.1467
 9784TIP3   OH250766   6.352   2.824  15.382  0.7386  0.2697 -0.3145
 9784TIP3    H150767   6.272   2.872  15.405 -0.2344 -1.1234 -0.7243
 9784TIP3    H250768   6.391   2.802  15.467 -1.7499 -3.0297  0.1852
 9785TIP3   OH250769   2.089   5.264   2.924  0.1746 -0.0796 -0.9869
 9785TIP3    H150770   2.006   5.223   2.900  0.9470 -1.8097 -0.8692
 9785TIP3    H250771   2.088   5.349   2.880 -1.2159 -0.4914 -1.8014
 9786TIP3   OH250772   2.654   6.622  12.043 -0.3891 -0.5103 -0.2148
 9786TIP3    H150773   2.567   6.655  12.068  0.2354  2.8338 -1.8534
 9786TIP3    H250774   2.711   6.648  12.115 -0.2895  0.0073 -0.4719
 9787TIP3   OH250775   4.265   3.412   3.395 -0.5165 -0.1701  0.2864
 9787TIP3    H150776   4.263   3.320   3.421  1.6582 -1.0907 -2.3423
 9787TIP3    H250777   4.356   3.439   3.407 -0.1828  0.3621 -2.5834
 9788TIP3   OH250778   1.765   1.410   0.451 -0.3276  0.1665  0.2215
 9788TIP3    H150779   1.777   1.502   0.431  1.8928  0.0450  0.7954
 9788TIP3    H250780   1.720   1.374   0.374  1.9016  1.0461 -1.5986
 9789TIP3   OH250781   5.936   4.002   1.262  0.2677  0.0488 -0.1763
 9789TIP3    H150782   5.923   4.097   1.251  1.1816  0.1493 -0.4139
 9789TIP3    H250783   5.995   3.977   1.191  1.2125 -0.4319  0.7534
 9790TIP3   OH250784   2.429   2.726  15.850  0.4029  0.0757  0.5918
 9790TIP3    H150785   2.483   2.790  15.804 -1.2812  0.8623 -0.3578
 9790TIP3    H250786   2.476   2.643  15.838  2.1718  0.9381  1.1224
 9791TIP3   OH250787   0.176   0.792  13.448 -0.7333 -0.0449 -0.9962
 9791TIP3    H150788   0.227   0.865  13.413 -2.0338  0.8304 -1.1362
 9791TIP3    H250789   0.144   0.823  13.533 -0.7216 -0.7171 -0.7438
 9792TIP3   OH250790   4.608   2.743  12.785  1.1103 -0.0974 -0.4551
 9792TIP3    H150791   4.669   2.806  12.746 -0.1731 -1.0567 -4.4031
 9792TIP3    H250792   4.627   2.660  12.742 -1.1885 -1.0495  0.1832
 9793TIP3   OH250793   1.030   3.807  10.933 -0.0696 -0.3225 -0.0672
 9793TIP3    H150794   1.103   3.749  10.956  0.1485 -0.3060 -0.6967
 9793TIP3    H250795   0.954   3.749  10.931  0.0369 -0.4642 -0.0647
 9794TIP3   OH250796   0.847   5.744  14.443  0.4418  0.1754 -0.2972
 9794TIP3    H150797   0.869   5.699  14.525 -0.8004 -0.6011 -0.3813
 9794TIP3    H250798   0.931   5.778  14.412  1.5908 -2.6641 -0.5808
 9795TIP3   OH250799   4.474   6.097   5.075  0.7060  0.1524  0.3412
 9795TIP3    H150800   4.408   6.080   5.142  0.3057 -0.9800 -0.3152
 9795TIP3    H250801   4.480   6.193   5.072 -1.4806  0.3330 -0.1154
 9796TIP3   OH250802   3.501   6.022   1.090 -0.0311 -0.1526 -0.5260
 9796TIP3    H150803   3.453   6.086   1.143 -0.3385 -1.0523  0.3264
 9796TIP3    H250804   3.593   6.046   1.102 -0.0811 -0.4375  0.5901
 9797TIP3   OH250805   1.631   4.604   0.770 -0.0418  0.0021  0.6038
 9797TIP3    H150806   1.664   4.573   0.854 -1.3525  1.2484  1.6316
 9797TIP3    H250807   1.667   4.544   0.706  3.7475  0.9201  1.6471
 9798TIP3   OH250808   1.782   0.568  16.309  0.0665 -0.4639 -0.5696
 9798TIP3    H150809   1.741   0.487  16.338  0.9121 -0.3223  1.1205
 9798TIP3    H250810   1.835   0.542  16.234 -1.2066 -1.0780 -1.2862
 9799TIP3   OH250811   5.786   3.961   5.395  0.5556  0.0991 -0.0149
 9799TIP3    H150812   5.835   3.998   5.321  1.7080 -0.2933  0.5198
 9799TIP3    H250813   5.802   3.867   5.389  0.5111  0.0473  0.6337
 9800TIP3   OH250814   1.291   1.051   5.212 -0.1850 -0.2485 -0.2227
 9800TIP3    H150815   1.369   1.035   5.264  1.1148  0.6476 -1.8080
 9800TIP3    H250816   1.309   1.133   5.166 -1.1886 -1.0588 -2.1771
 9801TIP3   OH250817   5.576   2.451  12.691  0.0437  0.3736 -0.2037
 9801TIP3    H150818   5.533   2.537  12.689 -0.8630 -0.0637 -1.7548
 9801TIP3    H250819   5.510   2.392  12.655  1.5694 -0.5181 -1.6435
 9802TIP3   OH250820   3.470   4.075   0.505  0.0655 -0.1848 -0.2370
 9802TIP3    H150821   3.418   4.101   0.429  1.1156 -2.1524 -1.6962
 9802TIP3    H250822   3.511   4.157   0.535 -3.4696  1.4089  0.7960
 9803TIP3   OH250823   5.118   2.312   0.291 -0.3256 -0.2451  0.0119
 9803TIP3    H150824   5.062   2.249   0.337 -1.8610  0.4114 -0.8993
 9803TIP3    H250825   5.083   2.398   0.316  0.8077  0.2237  0.0658
 9804TIP3   OH250826   4.983   1.182   0.097  0.4024 -0.1102 -0.4842
 9804TIP3    H150827   5.006   1.090   0.104  0.2439 -0.0724  0.8323
 9804TIP3    H250828   4.958   1.207   0.186  3.8164  2.0724  0.0497
 9805TIP3   OH250829   4.348   3.435   2.210 -0.0972 -0.5365 -1.1949
 9805TIP3    H150830   4.328   3.403   2.123 -0.0058  3.1689 -2.7786
 9805TIP3    H250831   4.276   3.495   2.231  0.7321 -0.0607  0.5056
 9806TIP3   OH250832   0.478   1.113  12.684  0.3017  0.3342 -0.3576
 9806TIP3    H150833   0.442   1.098  12.772  0.0988 -1.1912 -0.6763
 9806TIP3    H250834   0.532   1.192  12.693  0.3465  0.1576  1.1464
 9807TIP3   OH250835   1.118   1.992  14.300 -0.0617 -0.2119 -0.2985
 9807TIP3    H150836   1.031   1.954  14.311 -0.6078  1.1126  0.1958
 9807TIP3    H250837   1.114   2.036  14.215 -0.8120  2.0965  0.8468
 9808TIP3   OH250838   3.411   4.362  15.470 -0.4696  0.8705 -0.1911
 9808TIP3    H150839   3.475   4.408  15.415 -0.3992 -0.3601 -1.1727
 9808TIP3    H250840   3.406   4.415  15.550  2.0418  0.8242  0.0836
 9809TIP3   OH250841   3.207   0.909  11.866  0.3999  0.1150 -0.6829
 9809TIP3    H150842   3.298   0.880  11.868 -0.0970 -1.5472 -0.2663
 9809TIP3    H250843   3.157   0.833  11.896 -0.9588  1.7293  1.5129
 9810TIP3   OH250844   0.198   0.048   6.017  0.2599  0.4564 -0.3530
 9810TIP3    H150845   0.282   0.054   5.971  0.9807  2.2894  1.1118
 9810TIP3    H250846   0.186   0.133   6.058 -0.7475 -0.7880  2.1571
 9811TIP3   OH250847   4.222   3.979   5.569  0.1015 -0.6475  0.1701
 9811TIP3    H150848   4.258   3.891   5.555 -1.1108 -1.5139  2.1077
 9811TIP3    H250849   4.291   4.026   5.616  0.7260 -0.5411 -0.8115
 9812TIP3   OH250850   1.042   5.963   3.703  0.3615  0.0870 -0.4264
 9812TIP3    H150851   1.080   6.050   3.687 -1.3482  0.9796  0.1552
 9812TIP3    H250852   1.007   5.936   3.618  1.4939 -0.3689 -0.7691
 9813TIP3   OH250853   6.599   0.602  16.859  0.7480  0.2845 -0.3502
 9813TIP3    H150854   6.673   0.663  16.858  1.4745 -0.4856  1.5049
 9813TIP3    H250855   6.587   0.581  16.951 -1.6687  0.1840 -0.6280
 9814TIP3   OH250856   2.618   4.282  15.366 -0.0928 -0.4916 -0.9216
 9814TIP3    H150857   2.535   4.279  15.318 -0.0127 -0.2654 -1.0740
 9814TIP3    H250858   2.662   4.359  15.332 -0.0070 -0.3685 -0.5280
 9815TIP3   OH250859   2.746   3.678  15.136  0.2680  0.0552 -0.0303
 9815TIP3    H150860   2.725   3.585  15.128  1.3275 -0.2905  0.9165
 9815TIP3    H250861   2.830   3.680  15.183 -0.9335  1.5248  2.2444
 9816TIP3   OH250862   6.628   6.017   5.646  0.6118 -0.2047 -0.5513
 9816TIP3    H150863   6.555   5.992   5.589  1.1827 -0.0675 -1.3686
 9816TIP3    H250864   6.684   5.940   5.648  0.8662 -0.0221 -0.6175
 9817TIP3   OH250865   0.133   3.739   1.911  0.1737  0.1558  0.2600
 9817TIP3    H150866   0.196   3.688   1.962 -1.1629 -0.0888  1.7502
 9817TIP3    H250867   0.118   3.818   1.964 -1.9358 -0.5248  0.8046
 9818TIP3   OH250868   1.012   4.569   3.873 -0.1094  0.4818 -0.1493
 9818TIP3    H150869   1.086   4.520   3.908  0.0926  0.4985 -0.5432
 9818TIP3    H250870   0.997   4.639   3.937  2.1359  2.3174 -1.4463
 9819TIP3   OH250871   4.382   3.017   3.102  0.0240  0.3491 -0.0194
 9819TIP3    H150872   4.414   2.973   3.023 -1.2537 -1.3535  0.3623
 9819TIP3    H250873   4.366   3.107   3.075  2.6650  0.6506 -0.8510
 9820TIP3   OH250874   5.914   3.440  13.600 -0.1061 -0.1824 -0.3657
 9820TIP3    H150875   5.877   3.431  13.513 -1.7225 -2.1039  0.4428
 9820TIP3    H250876   5.839   3.444  13.658  0.9339  1.1223  0.9862
 9821TIP3   OH250877   3.479   6.079   2.760 -0.0819 -0.2986  0.1458
 9821TIP3    H150878   3.438   5.998   2.790 -1.9454  0.3504 -0.5660
 9821TIP3    H250879   3.417   6.148   2.783  1.0060  0.8345 -0.1906
 9822TIP3   OH250880   4.422   0.448   4.237 -0.1586 -0.3481 -0.4258
 9822TIP3    H150881   4.363   0.461   4.311  1.2951 -1.0408  0.9103
 9822TIP3    H250882   4.509   0.439   4.277  0.6875 -0.5643 -2.2327
 9823TIP3   OH250883   6.476   0.698   2.010 -0.0407  0.0658 -0.8617
 9823TIP3    H150884   6.415   0.710   1.937 -0.8119 -0.1609 -0.2703
 9823TIP3    H250885   6.426   0.648   2.074  0.3168  1.0529  0.2079
 9824TIP3   OH250886   1.138   3.234   3.121  0.4869  0.0859 -0.2691
 9824TIP3    H150887   1.227   3.261   3.097 -0.0320  0.4251 -1.9406
 9824TIP3    H250888   1.119   3.281   3.201  1.8899 -0.1453  0.2239
 9825TIP3   OH250889   0.734   3.111   6.022  0.3968 -0.0112  0.1839
 9825TIP3    H150890   0.700   3.131   5.935  0.3150 -0.3858  0.1281
 9825TIP3    H250891   0.686   3.033   6.050  0.0765  0.3864  0.7684
 9826TIP3   OH250892   4.724   3.156  10.769 -0.0647 -0.3597 -0.3041
 9826TIP3    H150893   4.676   3.202  10.837  0.5588  0.5230 -0.4489
 9826TIP3    H250894   4.804   3.125  10.812  0.0319 -0.3570 -0.4798
 9827TIP3   OH250895   0.620   1.300   5.602  0.4964 -0.0850 -0.4518
 9827TIP3    H150896   0.674   1.221   5.594 -1.4198 -1.4703 -0.6089
 9827TIP3    H250897   0.570   1.286   5.683 -0.7116  0.4141 -1.0931
 9828TIP3   OH250898   0.352   0.546  12.736  0.4857  0.0544  0.4408
 9828TIP3    H150899   0.435   0.514  12.771  1.3819  0.2117 -1.4056
 9828TIP3    H250900   0.300   0.468  12.719  2.1021 -0.4935 -2.6987
 9829TIP3   OH250901   6.382   0.922  15.072  0.7529 -0.1341 -0.5599
 9829TIP3    H150902   6.380   0.972  15.154  1.6270  2.1829 -1.8511
 9829TIP3    H250903   6.459   0.866  15.080  1.8935  1.3695 -0.4326
 9830TIP3   OH250904   5.248   3.366  12.502 -0.3881  0.0098 -1.0554
 9830TIP3    H150905   5.304   3.423  12.449  0.0580  0.4893 -0.0735
 9830TIP3    H250906   5.274   3.383  12.592 -2.4611  0.6325 -0.5248
 9831TIP3   OH250907   1.844   4.643  12.252 -0.4480 -0.2111 -0.7575
 9831TIP3    H150908   1.777   4.595  12.301 -0.1879  0.3341  0.1585
 9831TIP3    H250909   1.840   4.606  12.164 -0.1192 -2.0700 -0.0440
 9832TIP3   OH250910   2.082   4.416  12.356  0.4129 -0.2414  0.6238
 9832TIP3    H150911   2.162   4.423  12.407 -0.4990  1.1616  1.9705
 9832TIP3    H250912   2.024   4.483  12.394 -0.6317  0.2755 -1.7072
 9833TIP3   OH250913   2.743   2.067   5.026 -0.0940 -0.7507 -0.9305
 9833TIP3    H150914   2.684   2.034   5.094  0.2455 -0.7451 -0.6334
 9833TIP3    H250915   2.698   2.046   4.944 -0.6454 -0.4904 -0.7022
 9834TIP3   OH250916   1.957   3.508  13.551  0.1878 -0.0218 -0.0594
 9834TIP3    H150917   1.966   3.425  13.506  0.1076  0.1412 -0.3764
 9834TIP3    H250918   1.872   3.542  13.525  1.1343  1.2351 -1.7767
 9835TIP3   OH250919   6.256   6.550  14.467  0.0332  0.2514  0.0003
 9835TIP3    H150920   6.167   6.585  14.470  0.0946  0.3659  0.7697
 9835TIP3    H250921   6.250   6.468  14.516  0.2663  0.0489 -0.3072
 9836TIP3   OH250922   3.164   4.140   5.942  0.4641  0.0273  0.8600
 9836TIP3    H150923   3.202   4.133   5.855  0.3970  1.1461  0.7178
 9836TIP3    H250924   3.069   4.137   5.928  0.4576 -1.0443  1.0378
 9837TIP3   OH250925   4.288   2.620   3.331 -0.6441  0.3206  0.0909
 9837TIP3    H150926   4.252   2.574   3.407 -0.1481 -0.2524 -0.0194
 9837TIP3    H250927   4.362   2.567   3.303 -0.1922  1.0782 -0.1714
 9838TIP3   OH250928   5.122   3.040   6.620  0.5753 -0.2532 -0.3240
 9838TIP3    H150929   5.074   3.028   6.702  1.2592 -1.7065 -0.0932
 9838TIP3    H250930   5.101   2.961   6.568  0.8604  0.2160 -1.1787
 9839TIP3   OH250931   1.699   1.297   1.766 -0.3605 -0.3649  0.1477
 9839TIP3    H150932   1.788   1.326   1.747 -0.7634  1.4571  0.8205
 9839TIP3    H250933   1.692   1.300   1.861 -0.8536 -1.4312  0.1575
 9840TIP3   OH250934   2.338   5.665   2.465 -0.1615  0.0051  0.1318
 9840TIP3    H150935   2.411   5.642   2.523 -0.2547 -2.4593 -0.6021
 9840TIP3    H250936   2.319   5.756   2.485  1.1754 -0.1502  2.4578
 9841TIP3   OH250937   1.251   5.209  15.923 -0.3442  1.0730 -0.4579
 9841TIP3    H150938   1.314   5.269  15.963  2.6860 -0.8936 -1.9164
 9841TIP3    H250939   1.253   5.131  15.980 -1.2008  0.8288 -0.7468
 9842TIP3   OH250940   3.653   0.182  15.853  0.3057 -0.3879 -0.1988
 9842TIP3    H150941   3.610   0.267  15.856  1.7972  0.4370 -1.0446
 9842TIP3    H250942   3.629   0.140  15.935 -0.5662  0.7909  0.1768
 9843TIP3   OH250943   1.541   4.970  13.042  1.0223 -0.0876 -0.3483
 9843TIP3    H150944   1.489   4.921  12.978 -2.4114  1.3308  1.1173
 9843TIP3    H250945   1.595   5.029  12.989 -1.6604  1.0061 -2.0960
 9844TIP3   OH250946   6.290   4.722  16.850  0.1326  0.0767 -0.3877
 9844TIP3    H150947   6.238   4.773  16.788 -0.4928 -0.2777 -0.1635
 9844TIP3    H250948   6.226   4.668  16.897  0.3736  1.4532  1.6527
 9845TIP3   OH250949   0.930   2.577   5.494  0.5438 -0.3383 -0.0410
 9845TIP3    H150950   0.936   2.658   5.443  0.7336 -0.8864 -0.9194
 9845TIP3    H250951   0.894   2.513   5.432  0.0387 -0.8344  0.7485
 9846TIP3   OH250952   4.923   5.506  15.132  0.0716  0.0807  0.1624
 9846TIP3    H150953   4.958   5.434  15.184  1.2757  0.3003 -0.3053
 9846TIP3    H250954   4.995   5.531  15.073  0.2373  2.5899  1.2845
 9847TIP3   OH250955   4.257   5.146  14.810 -0.0115  0.4776 -0.2233
 9847TIP3    H150956   4.281   5.199  14.734 -2.0663  0.1124 -1.2034
 9847TIP3    H250957   4.292   5.193  14.885  0.8783  1.5781 -1.2921
 9848TIP3   OH250958   3.742   0.834  15.350 -1.2172 -0.1133 -0.4338
 9848TIP3    H150959   3.799   0.871  15.283 -1.9487 -0.1848 -1.1051
 9848TIP3    H250960   3.696   0.910  15.387  0.5373  0.1769  1.3302
 9849TIP3   OH250961   6.522   4.404  13.090  0.0574  0.1918 -0.4636
 9849TIP3    H150962   6.503   4.418  13.183 -0.5827 -0.9001 -0.4110
 9849TIP3    H250963   6.467   4.469  13.045 -2.0556 -1.2814 -0.1865
 9850TIP3   OH250964   0.722   5.724  15.238 -0.1491  0.5362 -0.5972
 9850TIP3    H150965   0.631   5.739  15.262 -0.7246 -0.0043 -2.2970
 9850TIP3    H250966   0.727   5.751  15.146  1.5335  1.0154 -0.3993
 9851TIP3   OH250967   1.993   6.346   6.330 -0.0175 -0.5602 -0.2512
 9851TIP3    H150968   1.997   6.254   6.354 -0.3978  0.1286  2.8421
 9851TIP3    H250969   2.083   6.377   6.339  0.0934 -0.5756 -1.1922
 9852TIP3   OH250970   3.047   6.519   1.713 -0.5803 -0.3233 -0.2525
 9852TIP3    H150971   2.973   6.538   1.655 -0.8498 -2.8228 -0.8238
 9852TIP3    H250972   3.012   6.532   1.801 -0.7326  1.5688 -0.5312
 9853TIP3   OH250973   3.782   5.186  12.965  0.3435  0.5692 -0.1915
 9853TIP3    H150974   3.687   5.182  12.979  0.4346  0.0038  0.3369
 9853TIP3    H250975   3.802   5.279  12.960  0.1039  0.8397  2.3198
 9854TIP3   OH250976   1.785   5.721  12.074 -0.3344  0.3276 -0.2098
 9854TIP3    H150977   1.701   5.760  12.099  0.3273  0.9354  1.1776
 9854TIP3    H250978   1.762   5.654  12.009 -1.6300  2.1843 -1.8051
 9855TIP3   OH250979   6.241   6.259  11.123 -0.2115 -0.4905  0.3023
 9855TIP3    H150980   6.189   6.279  11.045 -0.7043  0.6570  0.9006
 9855TIP3    H250981   6.218   6.327  11.185  1.6192 -0.2707  0.7935
 9856TIP3   OH250982   5.901   2.185  13.283 -0.5050 -0.4016 -0.1165
 9856TIP3    H150983   5.940   2.267  13.253  0.1688 -0.5798  0.2508
 9856TIP3    H250984   5.945   2.166  13.366 -1.9397 -0.2100  0.7154
 9857TIP3   OH250985   3.562   2.075  15.676  0.0917  0.1187  0.1743
 9857TIP3    H150986   3.657   2.088  15.674  0.0503  0.4478  0.2724
 9857TIP3    H250987   3.526   2.164  15.682 -0.1744 -0.0608  1.5779
 9858TIP3   OH250988   6.652   2.332   4.129 -0.0488 -0.1696 -0.4161
 9858TIP3    H150989   6.592   2.405   4.143  2.1934  2.2269 -2.3313
 9858TIP3    H250990   6.714   2.338   4.202  1.3496  1.2686 -1.6447
 9859TIP3   OH250991   1.499   1.670   5.349 -0.7210  0.2985 -0.1711
 9859TIP3    H150992   1.490   1.748   5.293  1.0541  2.2315  2.0212
 9859TIP3    H250993   1.428   1.678   5.412  0.8154  1.5713  1.5131
 9860TIP3   OH250994   0.705   4.157  11.248  0.5228  0.0347 -0.5898
 9860TIP3    H150995   0.707   4.072  11.294 -0.9712  0.7918  0.9892
 9860TIP3    H250996   0.773   4.209  11.291 -2.1926  1.4262  2.3588
 9861TIP3   OH250997   2.965   2.765   5.455  0.0708 -0.1119 -0.0704
 9861TIP3    H150998   3.055   2.781   5.426  0.1156  0.3346  0.3074
 9861TIP3    H250999   2.943   2.680   5.417  1.5907 -1.5474  2.0302
 9862TIP3   OH251000   6.204   0.708   1.960  0.1052  0.3101 -0.0990
 9862TIP3    H151001   6.196   0.731   2.052  1.1202  0.0894  0.0551
 9862TIP3    H251002   6.154   0.626   1.951  1.0472 -0.3579  0.5432
 9863TIP3   OH251003   4.035   2.362   0.959 -0.3675 -0.6442  0.0516
 9863TIP3    H151004   3.970   2.348   0.890 -0.9061 -0.1331  0.4491
 9863TIP3    H251005   4.118   2.371   0.912 -0.9878  1.7786 -0.7339
 9864TIP3   OH251006   6.014   1.151   4.811  0.3753  0.0223  0.2013
 9864TIP3    H151007   5.922   1.175   4.806  0.1995 -0.7333 -0.3615
 9864TIP3    H251008   6.019   1.087   4.882  0.2051 -1.0254 -0.7039
 9865TIP3   OH251009   0.513   5.838   0.656  0.3834 -0.2712  0.0854
 9865TIP3    H151010   0.591   5.879   0.618  0.5444 -1.9833 -1.5900
 9865TIP3    H251011   0.545   5.796   0.736  0.5574  1.3283  0.9051
 9866TIP3   OH251012   3.357   3.498  17.288  0.6773 -0.1566  0.2078
 9866TIP3    H151013   3.285   3.532  17.340  1.7405  2.2411  0.2271
 9866TIP3    H251014   3.422   3.469  17.352 -0.3224 -2.6675  0.1992
 9867TIP3   OH251015   1.099   4.449   2.618  0.1857  0.1989 -0.6782
 9867TIP3    H151016   1.121   4.472   2.708 -1.3432  0.1189 -0.2607
 9867TIP3    H251017   1.174   4.397   2.588  1.5838  1.8094 -0.1086
 9868TIP3   OH251018   1.300   6.004   0.154  0.3915 -0.1262 -0.3514
 9868TIP3    H151019   1.353   6.078   0.184  0.8026 -0.6130  0.1506
 9868TIP3    H251020   1.211   6.025   0.183  1.0060 -1.3441  2.8276
 9869TIP3   OH251021   1.534   4.282  10.799  0.0907  0.8151 -0.6152
 9869TIP3    H151022   1.455   4.290  10.853 -0.3770 -1.4871 -0.8700
 9869TIP3    H251023   1.511   4.325  10.716 -1.1596 -0.3585 -0.9119
 9870TIP3   OH251024   1.574   0.264   0.852 -0.0931 -0.2110 -0.2714
 9870TIP3    H151025   1.607   0.324   0.785 -0.1036  0.6649  0.4979
 9870TIP3    H251026   1.637   0.192   0.852 -0.7842 -0.8807 -2.1125
 9871TIP3   OH251027   4.439   5.073   1.831  0.1626  0.1813  0.6195
 9871TIP3    H151028   4.467   5.133   1.762  0.4347  0.3420  0.8663
 9871TIP3    H251029   4.344   5.066   1.820  0.2876 -0.2979 -0.1704
 9872TIP3   OH251030   5.306   5.883   3.342 -0.0987  0.0388  0.1710
 9872TIP3    H151031   5.388   5.836   3.326 -1.2434 -2.2897  0.7298
 9872TIP3    H251032   5.321   5.926   3.427  1.2226  1.3561 -0.6805
 9873TIP3   OH251033   0.631   3.101   0.847  0.0769 -0.4650 -0.0196
 9873TIP3    H151034   0.705   3.160   0.865 -1.2361  1.1302  0.4718
 9873TIP3    H251035   0.624   3.047   0.925  2.1952 -2.3922 -1.0447
 9874TIP3   OH251036   1.221   2.922   1.228 -0.3060 -0.3373 -0.3547
 9874TIP3    H151037   1.257   2.860   1.165  0.7070 -1.1030  0.9382
 9874TIP3    H251038   1.142   2.879   1.261 -0.3542 -0.3228 -0.4497
 9875TIP3   OH251039   0.625   0.013  13.171 -0.6347  0.2600  0.5007
 9875TIP3    H151040   0.671  -0.034  13.240 -0.1903  1.2973  0.9442
 9875TIP3    H251041   0.535  -0.018  13.176 -0.3354 -0.5945  0.7130
 9876TIP3   OH251042   4.511   2.444   5.917 -0.4041 -0.2604  0.2776
 9876TIP3    H151043   4.462   2.369   5.886 -0.6952 -0.8284  2.0095
 9876TIP3    H251044   4.592   2.407   5.953 -0.8590  0.1447  1.7801
 9877TIP3   OH251045   3.427   6.261  16.812 -0.0496 -0.7995  0.5488
 9877TIP3    H151046   3.477   6.198  16.863  0.5963  0.5607  1.6582
 9877TIP3    H251047   3.361   6.294  16.873  0.4677  0.5488  0.4204
 9878TIP3   OH251048   2.664   5.599   0.189 -0.5560  0.2409  0.1817
 9878TIP3    H151049   2.694   5.515   0.225 -0.7988  0.0247 -0.1125
 9878TIP3    H251050   2.583   5.577   0.143  0.3789  0.2668 -1.5669
 9879TIP3   OH251051   1.862   5.190  13.713 -0.0704  0.0183  0.3814
 9879TIP3    H151052   1.851   5.165  13.804  0.7936 -0.4917  0.3601
 9879TIP3    H251053   1.922   5.124  13.677 -0.0056  0.4991 -0.4221
 9880TIP3   OH251054   4.790   1.183  15.902  0.0927  0.0990  0.1306
 9880TIP3    H151055   4.726   1.162  15.969 -1.4630  1.3178 -0.8937
 9880TIP3    H251056   4.755   1.146  15.821  1.7267 -0.9906 -0.1338
 9881TIP3   OH251057   5.378   2.854  12.393 -0.0121 -0.0255  0.3561
 9881TIP3    H151058   5.314   2.832  12.460  0.4482 -0.2648  0.7303
 9881TIP3    H251059   5.399   2.946  12.408 -1.0041  0.3404 -0.4058
 9882TIP3   OH251060   4.484   3.398   3.761 -0.0610 -1.4188  0.3494
 9882TIP3    H151061   4.491   3.484   3.801 -0.7129 -1.3049  0.2364
 9882TIP3    H251062   4.442   3.344   3.828  0.7239 -1.7537  0.5718
 9883TIP3   OH251063   6.723   3.930   1.050 -0.6131  0.1520  0.3591
 9883TIP3    H151064   6.777   4.007   1.028  0.7032 -0.7047  0.4500
 9883TIP3    H251065   6.673   3.912   0.971 -1.1150  1.2453  0.4193
 9884TIP3   OH251066   4.261   3.905   4.779 -0.0664 -0.2252  0.1555
 9884TIP3    H151067   4.175   3.918   4.740  0.3112  0.3864 -0.5141
 9884TIP3    H251068   4.309   3.851   4.716 -0.5067 -2.0622  1.3429
 9885TIP3   OH251069   4.877   5.089   6.275  0.2100 -0.0682  0.0564
 9885TIP3    H151070   4.842   5.062   6.360  0.0139 -0.4475 -0.1439
 9885TIP3    H251071   4.838   5.174   6.260  0.0470 -0.1107  0.2295
 9886TIP3   OH251072   0.772   5.584   6.360 -0.1208 -0.3258  0.2564
 9886TIP3    H151073   0.802   5.591   6.270 -0.8694 -0.4142 -0.0008
 9886TIP3    H251074   0.768   5.675   6.391  0.4972 -0.3153  0.3306
 9887TIP3   OH251075   5.742   1.720  12.246 -0.0339 -0.6185  0.4372
 9887TIP3    H151076   5.710   1.771  12.172  0.5529 -0.5052  0.2568
 9887TIP3    H251077   5.800   1.654  12.207  2.5057  1.1404  0.9779
 9888TIP3   OH251078   1.544   4.822  15.273  0.5085 -0.7232 -0.2080
 9888TIP3    H151079   1.544   4.826  15.368 -0.4344  0.3750 -0.2283
 9888TIP3    H251080   1.637   4.829  15.248  0.6827  0.1318  0.6075
 9889TIP3   OH251081   3.244   3.133  12.857 -1.4179 -0.1628  0.5254
 9889TIP3    H151082   3.283   3.120  12.943 -2.9732  1.6357  1.5782
 9889TIP3    H251083   3.220   3.044  12.828 -0.1580 -0.8653  1.5519
 9890TIP3   OH251084   6.687   5.141  12.704  0.5010  0.0222 -0.4144
 9890TIP3    H151085   6.617   5.076  12.694 -0.7416  1.3326 -0.4868
 9890TIP3    H251086   6.671   5.204  12.634  0.1636  1.7476  1.1580
 9891TIP3   OH251087   0.089   5.257   4.743  0.3447 -0.0116  0.0155
 9891TIP3    H151088   0.024   5.326   4.755 -1.0919 -1.4087  0.6593
 9891TIP3    H251089   0.173   5.303   4.741 -0.3007  1.5459  3.1342
 9892TIP3   OH251090   6.567   5.287  11.810  0.4480 -0.0763  0.2103
 9892TIP3    H151091   6.655   5.258  11.830  0.2254  0.2638  1.8650
 9892TIP3    H251092   6.515   5.207  11.805  0.7021 -0.2276  0.0038
 9893TIP3   OH251093   4.685   4.565   0.487 -0.5715 -0.1549 -0.1708
 9893TIP3    H151094   4.668   4.607   0.403 -2.2175 -0.5474 -0.0683
 9893TIP3    H251095   4.598   4.547   0.523  0.0978 -1.1975  1.0073
 9894TIP3   OH251096   3.742   1.011  12.112 -0.2840 -0.0091 -0.1546
 9894TIP3    H151097   3.688   1.082  12.147  0.3993 -0.0258  1.0114
 9894TIP3    H251098   3.822   1.014  12.165 -0.3685 -1.8425  0.1557
 9895TIP3   OH251099   6.487   4.421   1.317 -0.5527 -0.0824  0.1030
 9895TIP3    H151100   6.394   4.398   1.314 -1.2468  2.4632 -0.3429
 9895TIP3    H251101   6.516   4.421   1.226 -0.0953 -0.8432  0.2376
 9896TIP3   OH251102   4.315   0.538   4.462  0.0292  0.4063  0.0946
 9896TIP3    H151103   4.249   0.469   4.458  0.1921  0.2759 -0.5452
 9896TIP3    H251104   4.338   0.546   4.555 -0.1594 -0.2395  0.1953
 9897TIP3   OH251105   2.572   2.283  13.448  0.7016  0.1154 -0.4919
 9897TIP3    H151106   2.577   2.346  13.520  1.7736  1.2535 -1.5350
 9897TIP3    H251107   2.520   2.327  13.381 -0.3357 -0.9618 -0.4408
 9898TIP3   OH251108   3.615   2.341   3.470  0.1740  0.2499 -0.0539
 9898TIP3    H151109   3.661   2.423   3.450  1.3515 -0.5074 -0.5424
 9898TIP3    H251110   3.578   2.355   3.557  1.2899  0.9086  0.3294
 9899TIP3   OH251111   3.459   6.746  13.991  0.3262 -0.2797  0.2649
 9899TIP3    H151112   3.450   6.749  13.895  1.9507  0.2763  0.1054
 9899TIP3    H251113   3.446   6.836  14.019 -0.4692 -0.4940  0.6259
 9900TIP3   OH251114   4.007   6.541   1.913 -0.2171  0.3217  0.2284
 9900TIP3    H151115   4.025   6.552   2.007  1.5286 -0.7019  0.0611
 9900TIP3    H251116   3.939   6.474   1.909 -1.4292  1.4628  0.7755
 9901TIP3   OH251117   1.537   4.163   4.809 -0.3976  0.4995 -0.7555
 9901TIP3    H151118   1.447   4.139   4.786 -0.3217  1.1724 -1.8071
 9901TIP3    H251119   1.527   4.234   4.872 -0.5995  0.2282 -0.4783
 9902TIP3   OH251120   3.461   6.616   2.789  0.3898  0.0794 -0.0358
 9902TIP3    H151121   3.450   6.657   2.875 -0.4916  2.5205 -1.2228
 9902TIP3    H251122   3.528   6.668   2.745  0.3071 -0.6618 -1.0972
 9903TIP3   OH251123   0.003   1.189  12.463 -0.2871  0.1346  0.4338
 9903TIP3    H151124  -0.083   1.147  12.468 -1.3889  2.0462 -1.0911
 9903TIP3    H251125   0.051   1.137  12.398 -0.3624 -0.7634  1.0708
 9904TIP3   OH251126   6.488   4.781   2.968 -0.1597 -0.0637  0.0662
 9904TIP3    H151127   6.482   4.739   3.054 -0.6482  0.2862  0.2065
 9904TIP3    H251128   6.436   4.726   2.910  1.0468 -0.9079 -0.2599
 9905TIP3   OH251129   0.846   5.244   6.282  0.2415 -0.1993 -0.1223
 9905TIP3    H151130   0.899   5.165   6.282  0.9547  0.2694 -0.7138
 9905TIP3    H251131   0.895   5.307   6.228 -0.5989  0.4486 -0.1614
 9906TIP3   OH251132   1.270   0.889   1.962  0.8877  0.0053 -0.0443
 9906TIP3    H151133   1.176   0.873   1.964  0.9517 -0.3599  0.1493
 9906TIP3    H251134   1.308   0.803   1.942  1.2141  0.0078  0.5483
 9907TIP3   OH251135   5.335   0.368  16.341 -0.1009 -0.3156  0.1092
 9907TIP3    H151136   5.342   0.315  16.421 -0.5446  0.3351  0.5902
 9907TIP3    H251137   5.242   0.368  16.321 -0.3274  1.4795  0.9643
 9908TIP3   OH251138   3.510   5.991   0.792  0.1539 -0.4132  0.4311
 9908TIP3    H151139   3.491   5.898   0.782 -1.7468 -0.0250  0.1915
 9908TIP3    H251140   3.469   6.016   0.875 -1.6031  0.7292 -0.7182
 9909TIP3   OH251141   1.593   1.368   4.245  0.0922  0.4456 -0.4035
 9909TIP3    H151142   1.639   1.450   4.258  1.5746 -0.3863 -0.2576
 9909TIP3    H251143   1.551   1.350   4.329  0.3774  0.6788 -0.2118
 9910TIP3   OH251144   3.168   3.511  15.316  0.0548  0.3534 -0.0206
 9910TIP3    H151145   3.152   3.440  15.378 -1.2604 -0.1181 -0.8605
 9910TIP3    H251146   3.252   3.488  15.275 -0.0062 -0.3453  0.2230
 9911TIP3   OH251147   6.060   1.817  15.184  0.0198 -0.5875  0.0967
 9911TIP3    H151148   5.975   1.787  15.153 -0.0715 -0.2860  0.0572
 9911TIP3    H251149   6.041   1.890  15.243  0.3253  0.5536 -1.1718
 9912TIP3   OH251150   1.774   5.087  15.844  0.0467 -0.2538  0.0584
 9912TIP3    H151151   1.809   4.999  15.838  3.1463  0.7929  1.0305
 9912TIP3    H251152   1.708   5.091  15.774  0.2811 -3.0738 -0.4519
 9913TIP3   OH251153   4.107   6.739  14.447 -0.6367  0.1225 -0.1388
 9913TIP3    H151154   4.125   6.680  14.374  0.4427  2.8627 -2.2584
 9913TIP3    H251155   4.191   6.750  14.491 -0.9373 -0.2538  0.5522
 9914TIP3   OH251156   1.161   6.115  13.724  0.1312  0.0913 -0.0840
 9914TIP3    H151157   1.124   6.138  13.639 -0.7458  0.1616  0.3083
 9914TIP3    H251158   1.190   6.024  13.714 -0.0251  0.0798 -0.4336
 9915TIP3   OH251159   0.371   2.177  11.279  0.2851 -0.3861 -0.1985
 9915TIP3    H151160   0.387   2.098  11.227 -0.5059 -0.5301 -0.2391
 9915TIP3    H251161   0.275   2.180  11.289 -0.0458  2.2692 -2.8690
 9916TIP3   OH251162   2.956   0.513   2.127 -0.2170  0.6251  0.1324
 9916TIP3    H151163   2.931   0.588   2.072 -2.0987  1.2368  1.7229
 9916TIP3    H251164   2.998   0.553   2.203 -1.5226  0.1268  1.1460
 9917TIP3   OH251165   0.598   0.498   0.654  0.1676  0.1697  0.0391
 9917TIP3    H151166   0.559   0.575   0.613  1.5229  0.3807 -0.8846
 9917TIP3    H251167   0.683   0.527   0.685  0.7698 -1.0005 -0.4698
 9918TIP3   OH251168   0.732   3.506  16.315 -0.1831 -0.4557  1.0360
 9918TIP3    H151169   0.741   3.479  16.407  1.7386  0.5673  1.2094
 9918TIP3    H251170   0.653   3.462  16.285  1.0223 -3.6917  2.1373
 9919TIP3   OH251171   1.997   6.050   5.696  0.2061 -0.2138 -0.9778
 9919TIP3    H151172   1.978   6.138   5.665  1.0915  0.3313 -0.0502
 9919TIP3    H251173   1.918   6.000   5.679 -0.1256  0.6277 -1.9907
 9920TIP3   OH251174   5.972   3.730   6.687 -0.5253 -0.1583  0.3934
 9920TIP3    H151175   5.964   3.760   6.777  1.0606 -1.1243  0.8805
 9920TIP3    H251176   6.062   3.750   6.662 -0.1060 -2.3195 -0.0392
 9921TIP3   OH251177   3.005   2.464   1.322  0.2291  0.4365  0.2349
 9921TIP3    H151178   2.922   2.420   1.341  0.4657  0.4631  1.3969
 9921TIP3    H251179   3.021   2.519   1.399  0.8949  1.0923 -0.3605
 9922TIP3   OH251180   3.493   5.246  14.641  0.7459 -0.1379 -0.2020
 9922TIP3    H151181   3.477   5.335  14.608  1.6179 -0.5745 -1.8811
 9922TIP3    H251182   3.588   5.241  14.651  0.5683 -0.1171  2.2791
 9923TIP3   OH251183   5.735   4.922  11.450  0.8050  0.9083 -0.3355
 9923TIP3    H151184   5.691   4.839  11.466  0.0681  1.7024  2.4031
 9923TIP3    H251185   5.735   4.965  11.535  2.8938  2.9041 -1.2485
 9924TIP3   OH251186   3.825   1.399  15.407  0.4277  0.3969 -0.4660
 9924TIP3    H151187   3.890   1.350  15.458 -0.6590 -0.1704  0.4376
 9924TIP3    H251188   3.741   1.369  15.442 -0.3165  3.2073  0.4102
 9925TIP3   OH251189   0.190   4.946  15.344  0.3376 -0.3168 -1.0209
 9925TIP3    H151190   0.226   4.882  15.404 -0.1803  0.4703  0.1750
 9925TIP3    H251191   0.209   4.911  15.257  0.9208 -1.5861 -0.4103
 9926TIP3   OH251192   2.451   2.468  12.326 -0.1064  0.7769 -0.0267
 9926TIP3    H151193   2.514   2.490  12.396 -0.7268 -1.6831  1.4059
 9926TIP3    H251194   2.366   2.469  12.370 -0.5243 -0.6547 -0.7759
 9927TIP3   OH251195   2.622   4.522  11.827 -0.6689 -0.3647  0.4483
 9927TIP3    H151196   2.588   4.565  11.749 -3.5027 -0.9342  1.2621
 9927TIP3    H251197   2.628   4.592  11.893  0.2657 -0.1740  0.1735
 9928TIP3   OH251198   2.277   2.588   1.206 -0.4401 -0.0651 -0.1604
 9928TIP3    H151199   2.300   2.535   1.130 -0.3040 -0.1453 -0.0640
 9928TIP3    H251200   2.333   2.556   1.276 -2.2210 -1.6423  0.6315
 9929TIP3   OH251201   0.321   5.872   2.095 -0.9387 -0.2123  0.1261
 9929TIP3    H151202   0.313   5.966   2.112 -3.1160 -0.2217 -0.5331
 9929TIP3    H251203   0.327   5.866   1.999 -1.0700 -0.7537  0.1514
 9930TIP3   OH251204   5.017   0.397  15.474  0.0659  0.6565  0.5518
 9930TIP3    H151205   5.013   0.492  15.490 -3.1430  0.8041 -0.4871
 9930TIP3    H251206   4.968   0.359  15.547 -0.7436  0.0220 -0.3124
 9931TIP3   OH251207   1.214   1.761   0.634 -0.0033 -0.1582  0.3804
 9931TIP3    H151208   1.175   1.848   0.622  0.7240  0.1944  0.4826
 9931TIP3    H251209   1.159   1.719   0.699  0.0161  0.4798  0.8205
 9932TIP3   OH251210   0.125   3.866   3.212  0.9865 -0.2545 -0.2084
 9932TIP3    H151211   0.162   3.869   3.300 -0.7374  0.4787  0.5373
 9932TIP3    H251212   0.142   3.953   3.176  0.0255  0.0937  0.1468
 9933TIP3   OH251213   3.932   4.712  12.524  0.5841 -0.5320  0.4198
 9933TIP3    H151214   4.025   4.721  12.508  0.7668 -1.4742  0.8613
 9933TIP3    H251215   3.926   4.692  12.618  0.0625 -1.9792  0.0964
 9934TIP3   OH251216   4.936   5.666  14.861  0.6012  0.2160  0.2246
 9934TIP3    H151217   4.952   5.729  14.931 -0.2535  1.4259 -0.6281
 9934TIP3    H251218   4.972   5.707  14.782 -0.0293 -0.3281 -0.3639
 9935TIP3   OH251219   4.907   6.323   5.304 -0.4469  0.1325 -0.7820
 9935TIP3    H151220   4.842   6.297   5.369 -0.3969  0.5334 -0.5651
 9935TIP3    H251221   4.901   6.418   5.301  0.7877  0.2508 -0.0600
 9936TIP3   OH251222   0.961   0.404   5.418  0.1172  0.5011  0.2524
 9936TIP3    H151223   0.979   0.351   5.496 -0.2637  0.4921  0.3375
 9936TIP3    H251224   0.900   0.471   5.449 -2.0138 -0.9518 -0.5576
 9937TIP3   OH251225   1.091   2.802   4.132  0.2056 -0.3287  0.0111
 9937TIP3    H151226   1.139   2.761   4.204  0.3325  0.2542  0.2661
 9937TIP3    H251227   1.160   2.837   4.074  0.1060  0.4568  0.3474
 9938TIP3   OH251228   5.334   3.457  12.758 -0.5133  0.5916  0.5463
 9938TIP3    H151229   5.332   3.552  12.766  0.5608  0.8504 -1.6487
 9938TIP3    H251230   5.387   3.428  12.832 -1.0796  1.6566  1.3902
 9939TIP3   OH251231   6.608   5.852   3.437  0.2578  0.5974 -0.1963
 9939TIP3    H151232   6.536   5.837   3.500 -0.9877 -0.3489 -1.7692
 9939TIP3    H251233   6.681   5.803   3.474 -1.1967 -2.1396 -0.6814
 9940TIP3   OH251234   1.100   0.206  15.022 -0.1272 -0.1371 -0.4036
 9940TIP3    H151235   1.042   0.135  14.995  0.3482 -0.9088  0.5374
 9940TIP3    H251236   1.059   0.241  15.101 -0.0694  0.2930 -0.5575
 9941TIP3   OH251237   1.109   5.696   2.873  0.1381 -0.1239  0.0685
 9941TIP3    H151238   1.129   5.630   2.807 -2.2796 -1.6975  0.8047
 9941TIP3    H251239   1.179   5.687   2.938  2.7405  1.6528 -2.2238
 9942TIP3   OH251240   0.144   0.707   0.212  0.7156 -0.5643 -0.2057
 9942TIP3    H151241   0.109   0.741   0.295  1.1571  1.2330 -0.7026
 9942TIP3    H251242   0.196   0.631   0.237  0.0010 -0.6761  1.0336
 9943TIP3   OH251243   1.617   3.517  14.720 -0.4022 -0.1173 -0.0895
 9943TIP3    H151244   1.632   3.444  14.780  0.6165 -0.3579 -0.6138
 9943TIP3    H251245   1.582   3.476  14.641  0.1279 -0.0335 -0.3687
 9944TIP3   OH251246   3.338   4.299  11.753  0.0276  0.8265  0.0775
 9944TIP3    H151247   3.323   4.206  11.738 -2.5845  1.2616 -0.5352
 9944TIP3    H251248   3.384   4.303  11.837  3.4101 -1.1022 -1.5075
 9945TIP3   OH251249   0.678   0.040  14.436  0.1853  0.4451 -0.0238
 9945TIP3    H151250   0.705  -0.027  14.374 -0.3528  0.2852 -0.0940
 9945TIP3    H251251   0.750   0.045  14.500  0.2395 -0.1781 -0.0359
 9946TIP3   OH251252   5.700   3.378  16.397 -0.0511 -0.0800  0.2807
 9946TIP3    H151253   5.679   3.438  16.326  0.5807 -0.2110 -0.0227
 9946TIP3    H251254   5.794   3.364  16.390 -0.2330 -1.3316  0.1666
 9947TIP3   OH251255   4.328   3.140   4.966  0.2373 -0.1152 -0.4771
 9947TIP3    H151256   4.327   3.143   4.870  1.2696  0.9662 -0.4784
 9947TIP3    H251257   4.360   3.226   4.992 -1.3121  0.0762  0.9021
 9948TIP3   OH251258   3.886   6.006   5.821  0.1171  0.4742 -0.2387
 9948TIP3    H151259   3.922   6.012   5.733 -1.1050  1.8756 -0.6704
 9948TIP3    H251260   3.806   6.058   5.819 -1.1987 -1.3423  1.0789
 9949TIP3   OH251261   5.366   5.829   3.851  0.1836  0.1353 -0.4136
 9949TIP3    H151262   5.395   5.758   3.910 -1.2901 -0.1769 -0.0178
 9949TIP3    H251263   5.336   5.784   3.772 -0.9788  0.2696 -0.0713
 9950TIP3   OH251264   2.604   1.663  14.347 -0.1835 -0.5765 -0.2499
 9950TIP3    H151265   2.557   1.745  14.332  0.1673 -0.5606 -1.2976
 9950TIP3    H251266   2.599   1.616  14.264  0.1516 -1.3531  0.1561
 9951TIP3   OH251267   4.280   4.612   5.847  0.7687  0.0578 -0.0591
 9951TIP3    H151268   4.226   4.536   5.822  1.6278 -0.2361 -1.0988
 9951TIP3    H251269   4.299   4.598   5.939 -0.7243  0.0440  0.2788
 9952TIP3   OH251270   4.571   1.281  13.067 -0.0996 -0.0251  0.1676
 9952TIP3    H151271   4.609   1.313  12.985  1.5966 -0.6200  0.6850
 9952TIP3    H251272   4.482   1.253  13.043  0.4318 -0.3717 -1.5143
 9953TIP3   OH251273   0.611   0.072   1.676  0.2311  0.1331  0.2604
 9953TIP3    H151274   0.668   0.064   1.600  0.5181  0.0918  0.4781
 9953TIP3    H251275   0.532   0.114   1.642  0.3041 -0.0077 -0.0859
 9954TIP3   OH251276   6.023   6.367   1.225  0.0631  0.4705 -0.4561
 9954TIP3    H151277   5.943   6.318   1.243 -0.2840  0.8458 -0.9747
 9954TIP3    H251278   6.031   6.367   1.130  2.5782 -2.6052 -0.4338
 9955TIP3   OH251279   0.107   0.136   3.685  0.1396  0.6002  0.1943
 9955TIP3    H151280   0.109   0.119   3.780 -0.1241 -0.2086  0.0584
 9955TIP3    H251281   0.047   0.070   3.650  1.0077  0.2484 -0.6732
 9956TIP3   OH251282   5.777   5.271   3.457 -0.8171 -0.1064 -0.2502
 9956TIP3    H151283   5.842   5.319   3.406 -1.2461 -0.4601 -1.1670
 9956TIP3    H251284   5.753   5.330   3.528 -0.4996  0.5676 -0.6924
 9957TIP3   OH251285   4.454   2.714  14.383  0.6367 -0.0340  0.1228
 9957TIP3    H151286   4.386   2.649  14.400 -1.6394  2.1575 -0.0121
 9957TIP3    H251287   4.473   2.750  14.470  0.2659  0.6118 -0.0616
 9958TIP3   OH251288   0.011   4.942   1.710 -0.6826  0.2542 -0.0943
 9958TIP3    H151289  -0.022   5.009   1.650  1.7850  1.8748  0.2300
 9958TIP3    H251290   0.032   4.990   1.790  1.6885 -0.7726 -0.0355
 9959TIP3   OH251291   2.196   3.900   4.911  0.4662 -0.4248  0.3587
 9959TIP3    H151292   2.136   3.866   4.845  0.6610 -3.1718  1.4594
 9959TIP3    H251293   2.153   3.880   4.994  1.3362  0.7293  1.1060
 9960TIP3   OH251294   5.255   1.923  15.065 -0.1298 -0.1986 -0.1407
 9960TIP3    H151295   5.311   1.993  15.100 -0.5131  0.3186 -0.5392
 9960TIP3    H251296   5.303   1.842  15.083  0.2495  0.1542  0.4682
 9961TIP3   OH251297   4.611   5.800  11.355 -0.4218 -0.2826  0.0502
 9961TIP3    H151298   4.648   5.888  11.354 -1.3301  0.1436 -1.8622
 9961TIP3    H251299   4.687   5.742  11.347  0.0920  0.4047 -0.1538
 9962TIP3   OH251300   1.921   5.597   2.587  0.2785 -0.4086  0.3889
 9962TIP3    H151301   1.989   5.600   2.520 -0.4879  0.4089 -0.3881
 9962TIP3    H251302   1.840   5.618   2.540 -0.5737 -1.6932  1.2254
 9963TIP3   OH251303   5.183   0.248  11.989  0.6116 -0.0905 -0.5779
 9963TIP3    H151304   5.248   0.306  11.950  0.7706  0.0286 -0.1524
 9963TIP3    H251305   5.111   0.305  12.013  1.5709  0.3145  1.6478
 9964TIP3   OH251306   1.154   0.128   1.224 -0.6721 -0.1980  0.1749
 9964TIP3    H151307   1.095   0.053   1.224 -0.3157 -0.4785  0.7431
 9964TIP3    H251308   1.100   0.200   1.189 -0.8703 -0.8092 -0.8299
 9965TIP3   OH251309   1.529   3.906  13.226  0.1047 -0.3056 -0.0229
 9965TIP3    H151310   1.506   3.820  13.260  0.3994 -1.0223 -1.5406
 9965TIP3    H251311   1.482   3.913  13.143  0.3124  0.8712 -0.0650
 9966TIP3   OH251312   3.589   3.102  16.983 -0.2081  0.1709 -0.4324
 9966TIP3    H151313   3.674   3.130  16.947  0.0718  0.9755  0.7938
 9966TIP3    H251314   3.527   3.169  16.953  0.6263  2.9932  3.3191
 9967TIP3   OH251315   6.247   3.438   0.057 -0.3679  0.6806 -0.0019
 9967TIP3    H151316   6.212   3.520   0.092 -0.4160 -0.2568  2.3207
 9967TIP3    H251317   6.238   3.375   0.129  1.2456 -0.9367 -1.1230
 9968TIP3   OH251318   6.131   2.225  15.892  0.3313  0.0731 -0.3533
 9968TIP3    H151319   6.183   2.150  15.863 -0.4013 -0.2816 -0.7743
 9968TIP3    H251320   6.149   2.231  15.986 -0.1686 -1.1065 -0.1617
 9969TIP3   OH251321   4.057   6.723  14.083 -0.3413  0.3524  0.5122
 9969TIP3    H151322   3.976   6.673  14.095 -0.6888  0.7295 -0.2058
 9969TIP3    H251323   4.055   6.750  13.991 -0.2087  1.7593  0.8990
 9970TIP3   OH251324   3.484   6.505   3.375 -0.0167  0.1992 -0.1311
 9970TIP3    H151325   3.534   6.585   3.393  0.4129  0.1628 -1.0956
 9970TIP3    H251326   3.421   6.499   3.447  0.9947  0.5471  0.8031
 9971TIP3   OH251327   4.934   4.887   1.158 -0.3654 -0.6623  0.5233
 9971TIP3    H151328   4.914   4.927   1.073 -1.1482  0.1727  1.0869
 9971TIP3    H251329   5.024   4.855   1.149  0.0627  0.6629 -0.1667
 9972TIP3   OH251330   5.982   5.381  10.917  1.0780 -0.1501  0.1727
 9972TIP3    H151331   5.918   5.314  10.893  0.9168 -0.5963  1.7145
 9972TIP3    H251332   5.954   5.460  10.871 -1.7914  0.2100  2.2716
 9973TIP3   OH251333   3.515   2.215   1.661  0.0495  0.0292  0.3907
 9973TIP3    H151334   3.451   2.259   1.716 -1.5144 -1.2083 -0.3520
 9973TIP3    H251335   3.468   2.195   1.580  1.3129 -1.0775 -0.1186
 9974TIP3   OH251336   2.590   0.920  12.977 -0.3676  0.0346 -0.4642
 9974TIP3    H151337   2.540   0.980  13.032 -1.0839  0.0915 -1.1517
 9974TIP3    H251338   2.529   0.896  12.907  1.2885  2.0238 -2.7480
 9975TIP3   OH251339   0.455   5.367  15.742  0.3108  0.0538 -0.6535
 9975TIP3    H151340   0.510   5.444  15.754  1.2039 -0.8603  1.7211
 9975TIP3    H251341   0.516   5.296  15.723 -0.2689 -0.4917 -0.5260
 9976TIP3   OH251342   6.418   1.533  16.341  0.3553 -0.0920 -0.1754
 9976TIP3    H151343   6.365   1.610  16.361  2.8757  1.9248 -0.6046
 9976TIP3    H251344   6.367   1.485  16.276 -0.2383  2.6877 -1.9644
 9977TIP3   OH251345   4.093   2.365  11.166  0.0104  0.1297 -0.0719
 9977TIP3    H151346   4.048   2.296  11.117  0.0689 -1.2122  1.6789
 9977TIP3    H251347   4.158   2.318  11.219 -0.0552  1.5073  1.2853
 9978TIP3   OH251348   0.191   0.414  16.680  0.4916 -0.3580  0.2083
 9978TIP3    H151349   0.271   0.385  16.635 -0.4431 -1.6749 -0.6929
 9978TIP3    H251350   0.206   0.390  16.772  0.9728 -0.9969 -0.0256
 9979TIP3   OH251351   5.638   2.927  17.101  0.0113  0.2928 -0.5822
 9979TIP3    H151352   5.582   2.860  17.062  0.2445 -0.3501  0.1625
 9979TIP3    H251353   5.645   2.995  17.034 -3.6374  1.5821  0.1259
 9980TIP3   OH251354   5.288   3.248  13.431 -0.6561 -0.4344  0.3156
 9980TIP3    H151355   5.263   3.167  13.387 -1.5530 -1.5765  2.7422
 9980TIP3    H251356   5.223   3.313  13.402 -0.4371 -0.7827 -1.0004
 9981TIP3   OH251357   6.709   5.823  14.914 -0.2196 -0.4490 -0.1842
 9981TIP3    H151358   6.709   5.819  15.010 -1.5552  1.3053 -0.0474
 9981TIP3    H251359   6.670   5.740  14.886 -1.9878 -0.0498  0.9343
 9982TIP3   OH251360   3.412   4.203   3.736  0.1027 -0.3124 -0.4186
 9982TIP3    H151361   3.327   4.223   3.774  0.7710  0.9188  0.5066
 9982TIP3    H251362   3.392   4.163   3.651 -1.3821 -0.2340 -0.1269
 9983TIP3   OH251363   0.429   2.607   5.668  0.2468 -0.1849  0.5218
 9983TIP3    H151364   0.351   2.646   5.628  1.0885  3.6242  2.1303
 9983TIP3    H251365   0.484   2.583   5.594 -0.7784  0.8774 -0.6411
 9984TIP3   OH251366   6.273   0.945   3.718 -0.5449 -0.1866  0.2478
 9984TIP3    H151367   6.250   0.903   3.634 -2.5058  1.6854 -0.2410
 9984TIP3    H251368   6.200   1.004   3.735  0.9606  1.2221  2.1104
 9985TIP3   OH251369   4.005   1.126  17.108  0.2906  0.4276  0.3796
 9985TIP3    H151370   4.006   1.032  17.127 -0.8229  0.2388 -0.4593
 9985TIP3    H251371   4.022   1.167  17.193  1.1238 -0.5255  0.6938
 9986TIP3   OH251372   3.572   2.969  12.863  0.3321  0.1366  0.7096
 9986TIP3    H151373   3.552   2.995  12.953 -0.0756  0.9082  0.4006
 9986TIP3    H251374   3.486   2.956  12.822  0.4950  0.6532  0.1872
 9987TIP3   OH251375   3.686   2.244   1.198 -0.1861  0.0535  0.0340
 9987TIP3    H151376   3.708   2.293   1.119 -1.8654  0.7108 -0.0579
 9987TIP3    H251377   3.731   2.290   1.269 -0.5230  0.8267 -0.2536
 9988TIP3   OH251378   4.761   6.622  16.664  0.4267 -0.5760  0.0286
 9988TIP3    H151379   4.792   6.671  16.588  1.7133 -1.9195 -0.3500
 9988TIP3    H251380   4.666   6.636  16.664  0.6103  0.8208 -0.8212
 9989TIP3   OH251381   0.143   2.627   5.663 -0.6793  0.3437  0.0898
 9989TIP3    H151382   0.176   2.539   5.645 -1.3507  0.3250 -1.1733
 9989TIP3    H251383   0.048   2.619   5.654 -0.7728  1.1087  0.3607
 9990TIP3   OH251384   1.760   2.251   0.071  0.6143  0.2985 -0.5808
 9990TIP3    H151385   1.851   2.266   0.097  0.3720  1.6253 -0.3871
 9990TIP3    H251386   1.715   2.333   0.094  0.0367  0.9645 -3.6464
 9991TIP3   OH251387   5.039   6.771   6.258 -0.0637  0.0220 -0.5628
 9991TIP3    H151388   5.060   6.709   6.188  1.1899  0.2800 -0.4365
 9991TIP3    H251389   5.123   6.786   6.303 -0.9363 -0.6763  1.4344
 9992TIP3   OH251390   5.584   1.255   2.351  0.2219 -0.5796 -0.3144
 9992TIP3    H151391   5.510   1.206   2.386  1.6455 -2.0136  0.8488
 9992TIP3    H251392   5.567   1.346   2.376 -0.1534 -1.1813  1.7908
 9993TIP3   OH251393   0.596   4.159   2.628  0.3045 -0.3412 -0.1846
 9993TIP3    H151394   0.535   4.088   2.608  0.5760 -0.7821  0.5180
 9993TIP3    H251395   0.664   4.118   2.681  0.8572  0.2906 -0.3909
 9994TIP3   OH251396   3.936   2.025  16.499 -0.3000  0.1593  0.1654
 9994TIP3    H151397   4.023   2.063  16.485 -0.0020 -1.1303 -1.9314
 9994TIP3    H251398   3.952   1.949  16.556 -0.1131  0.1524  0.1039
 9995TIP3   OH251399   3.917   3.612   5.377 -0.0904  0.0719 -0.6644
 9995TIP3    H151400   3.858   3.598   5.303 -1.0986  0.5715  0.0234
 9995TIP3    H251401   3.920   3.707   5.388 -0.7413 -0.0179  0.5266
 9996TIP3   OH251402   3.668   4.729   0.441 -0.3050 -0.1378  0.4162
 9996TIP3    H151403   3.719   4.808   0.458 -1.9553  0.7615  1.4673
 9996TIP3    H251404   3.699   4.698   0.356  0.3050  1.7033 -0.0704
 9997TIP3   OH251405   4.902   4.131  11.130  0.1119  0.4923 -0.0031
 9997TIP3    H151406   4.920   4.040  11.105 -0.5922  0.1711  0.6283
 9997TIP3    H251407   4.975   4.180  11.093  1.1442 -0.4888  0.6609
 9998TIP3   OH251408   3.753   5.325   5.858 -0.0525  0.4608 -0.1956
 9998TIP3    H151409   3.848   5.323   5.873 -0.2095  0.2843  0.8628
 9998TIP3    H251410   3.730   5.233   5.841 -0.1493  0.3604  0.4278
 9999TIP3   OH251411   1.753   0.339  15.208  0.0252  0.2025  0.4070
 9999TIP3    H151412   1.661   0.333  15.235  0.2680 -1.3669  0.9991
 9999TIP3    H251413   1.798   0.374  15.284 -0.0105  0.6416  0.2339
10000TIP3   OH251414   3.052   0.739  14.526 -0.3789 -0.2922 -0.9119
10000TIP3    H151415   3.000   0.816  14.502 -0.0187 -0.1993 -1.3973
10000TIP3    H251416   3.138   0.755  14.487 -0.2825 -0.9183 -0.9668
10001TIP3   OH251417   2.310   5.938  15.566 -0.0964  0.1155 -0.4629
10001TIP3    H151418   2.390   5.891  15.542 -1.0446 -1.5243 -0.5748
10001TIP3    H251419   2.269   5.958  15.482  0.1283  0.8595 -0.4024
10002TIP3   OH251420   3.594   5.918   1.505 -0.0014 -0.4207 -0.6110
10002TIP3    H151421   3.577   5.998   1.554  0.0127 -1.5173  1.2986
10002TIP3    H251422   3.679   5.932   1.464 -0.5147  0.9559 -1.2608
10003TIP3   OH251423   1.196   2.518   3.159  0.0082  0.7441  0.2550
10003TIP3    H151424   1.175   2.575   3.234  1.9013  2.8134 -0.6687
10003TIP3    H251425   1.290   2.502   3.167 -0.0251 -0.1250 -0.9451
10004TIP3   OH251426   4.167   0.775   4.802  0.1429  0.1476 -0.3058
10004TIP3    H151427   4.202   0.698   4.757 -0.4066  0.4104 -1.2214
10004TIP3    H251428   4.112   0.738   4.872  2.3544 -0.2614  1.3082
10005TIP3   OH251429   3.803   5.203  17.159  0.8787 -0.2701 -0.3190
10005TIP3    H151430   3.709   5.201  17.178  1.2333 -1.3942  1.6884
10005TIP3    H251431   3.833   5.114  17.176  2.3154  0.0799 -0.8474
10006TIP3   OH251432   1.250   0.993   0.037 -0.4454 -0.1773 -0.8210
10006TIP3    H151433   1.181   1.018  -0.025  0.2103  1.2530 -0.9973
10006TIP3    H251434   1.229   1.041   0.117 -0.0841 -0.3493 -0.6195
10007TIP3   OH251435   6.536   1.609   3.782 -0.9176  0.2195  0.3361
10007TIP3    H151436   6.501   1.695   3.757 -2.1825  0.0096  1.2940
10007TIP3    H251437   6.603   1.591   3.716  0.8493  2.8504  1.2291
10008TIP3   OH251438   4.149   4.165  12.447  1.0557 -0.4244  0.9764
10008TIP3    H151439   4.082   4.171  12.379 -0.2396  0.2519  2.2630
10008TIP3    H251440   4.203   4.091  12.420  0.9995  0.2336 -1.1223
10009TIP3   OH251441   5.190   6.734  16.444 -0.4319  0.0058  0.1958
10009TIP3    H151442   5.187   6.646  16.407 -1.3989 -0.3916  1.1426
10009TIP3    H251443   5.131   6.785  16.390  0.1283  0.0841 -0.3532
10010TIP3   OH251444   2.036   0.773  15.144 -0.9303 -0.4516  0.1935
10010TIP3    H151445   2.111   0.760  15.087  0.2592  0.1932  1.5442
10010TIP3    H251446   1.961   0.774  15.085  0.3058  1.0167 -1.4650
10011TIP3   OH251447   6.677   0.611  15.367  0.6266 -0.7962  0.2821
10011TIP3    H151448   6.735   0.686  15.383  0.2641 -0.5252  0.3251
10011TIP3    H251449   6.623   0.606  15.445  0.6339 -1.0892  0.2673
10012TIP3   OH251450   4.463   1.671   0.326 -0.3424 -0.5562 -0.2570
10012TIP3    H151451   4.494   1.591   0.281 -0.1364  0.7346 -2.5836
10012TIP3    H251452   4.381   1.692   0.281 -1.1725 -0.2533  1.3577
10013TIP3   OH251453   0.320   2.960   1.835 -0.0874  0.7783 -0.3891
10013TIP3    H151454   0.289   3.014   1.908  1.3236  0.8197  0.1989
10013TIP3    H251455   0.241   2.941   1.784 -0.8678  1.9821  0.3299
10014TIP3   OH251456   3.564   2.049  16.077 -0.7593 -0.2384 -1.0879
10014TIP3    H151457   3.577   1.979  16.013 -0.7745 -1.7050  0.4209
10014TIP3    H251458   3.651   2.063  16.115 -1.0564 -0.6957 -0.1939
10015TIP3   OH251459   5.158   2.700   5.949 -0.2269 -0.4527 -0.4628
10015TIP3    H151460   5.086   2.734   5.895 -0.0620  0.4084 -0.1680
10015TIP3    H251461   5.192   2.626   5.900 -1.5214 -1.0802 -0.4531
10016TIP3   OH251462   0.631   4.976  14.609  0.1940 -0.1034 -0.5357
10016TIP3    H151463   0.697   5.042  14.630  0.2776  0.0749 -1.3081
10016TIP3    H251464   0.678   4.911  14.555 -0.1101 -0.3014 -0.5674
10017TIP3   OH251465   6.164   5.153  17.211  0.5271  0.5550 -0.2159
10017TIP3    H151466   6.166   5.169  17.117 -0.1189  0.2346 -0.2934
10017TIP3    H251467   6.144   5.059  17.219  1.9002  0.2806  0.2332
10018TIP3   OH251468   4.660   2.744  14.206 -0.0534  0.4501  0.1625
10018TIP3    H151469   4.696   2.661  14.235  0.8190  0.9393  0.5283
10018TIP3    H251470   4.602   2.771  14.277  1.0420  0.9953  0.8869
10019TIP3   OH251471   5.005   3.105   4.448  0.0891 -0.1619 -0.0241
10019TIP3    H151472   4.920   3.067   4.428  0.7393 -1.0092 -1.3190
10019TIP3    H251473   5.055   3.034   4.489  1.2514 -0.7472 -2.2953
10020TIP3   OH251474   2.156   3.776   1.077 -0.3130 -0.5690  0.4635
10020TIP3    H151475   2.217   3.755   1.148  0.8846  0.0268 -0.3686
10020TIP3    H251476   2.208   3.768   0.997 -1.2878  0.1116 -0.2628
10021TIP3   OH251477   1.065   3.602  11.904  0.9244 -0.4353 -0.5618
10021TIP3    H151478   0.984   3.572  11.862 -0.3475  1.0034  0.7350
10021TIP3    H251479   1.036   3.650  11.981  3.1086 -1.2217  0.8426
10022TIP3   OH251480   3.497   0.852  14.702  0.1569 -0.1049 -0.5436
10022TIP3    H151481   3.506   0.758  14.686  3.3471  0.0988 -0.5874
10022TIP3    H251482   3.492   0.860  14.797  0.3900 -0.3055 -0.5126
10023TIP3   OH251483   3.313   4.882   4.166  0.3379 -0.4398  0.1000
10023TIP3    H151484   3.232   4.933   4.174  0.7863  0.4477 -0.7168
10023TIP3    H251485   3.340   4.867   4.257 -0.7187 -0.7338  0.3858
10024TIP3   OH251486   2.428   0.764  11.771  0.4125  0.0833  0.2718
10024TIP3    H151487   2.466   0.836  11.721 -0.8603  1.4168  1.1341
10024TIP3    H251488   2.429   0.794  11.862  0.9543 -1.5119  0.8236
10025TIP3   OH251489   0.348   1.503  15.872 -0.3189  0.2188  0.4238
10025TIP3    H151490   0.419   1.439  15.871 -1.1582 -0.7527 -0.6131
10025TIP3    H251491   0.295   1.480  15.795 -1.1961  1.5427  0.6135
10026TIP3   OH251492   4.067   2.407   0.563  0.0155  0.3218 -0.0138
10026TIP3    H151493   4.026   2.493   0.552  1.4764  0.9143 -1.4820
10026TIP3    H251494   4.121   2.416   0.641  0.2839  0.8131 -0.2486
10027TIP3   OH251495   6.737   2.662  13.657  0.0834  0.1155  0.2076
10027TIP3    H151496   6.763   2.746  13.618 -0.5299 -0.5842 -1.8161
10027TIP3    H251497   6.813   2.637  13.710 -0.1615  2.4625  1.8498
10028TIP3   OH251498   0.455   0.111   0.504  0.5510  0.0688 -0.2015
10028TIP3    H151499   0.475   0.055   0.429  3.0128 -0.1609  0.5164
10028TIP3    H251500   0.483   0.198   0.476  0.8855  0.0940  0.1975
10029TIP3   OH251501   0.043   6.274  11.370 -0.3912 -0.5812  0.2021
10029TIP3    H151502   0.131   6.312  11.373  0.1499 -1.6554 -1.0554
10029TIP3    H251503   0.057   6.180  11.367 -1.5640 -0.7549 -0.5562
10030TIP3   OH251504   0.840   2.225  10.826 -0.1717  0.1366  0.6705
10030TIP3    H151505   0.758   2.209  10.872  0.4172  2.6938  2.8438
10030TIP3    H251506   0.902   2.162  10.863 -0.6098 -0.3078  0.6480
10031TIP3   OH251507   5.246   0.599   5.659 -0.0412  0.7352  0.0329
10031TIP3    H151508   5.340   0.582   5.666 -0.2836 -0.0295  2.5314
10031TIP3    H251509   5.222   0.566   5.572  1.7691 -0.2182 -0.1494
10032TIP3   OH251510   6.493   4.466  13.983  0.4851  0.3912 -0.4545
10032TIP3    H151511   6.577   4.451  14.027 -0.1365 -0.1512  0.5964
10032TIP3    H251512   6.433   4.402  14.023 -0.6330  1.3230 -0.5838
10033TIP3   OH251513   2.839   6.573  14.690 -0.4802 -0.2086  0.0883
10033TIP3    H151514   2.797   6.488  14.698  2.5695 -1.8008  0.4468
10033TIP3    H251515   2.805   6.610  14.609 -0.8003 -2.4154 -0.8258
10034TIP3   OH251516   0.715   4.585   0.528  0.3136  0.3157  0.1687
10034TIP3    H151517   0.730   4.678   0.512 -1.0803  0.4575 -0.3956
10034TIP3    H251518   0.799   4.553   0.561  0.4308  2.0504  1.7121
10035TIP3   OH251519   1.828   4.588  16.208 -0.5141  0.4474 -0.6121
10035TIP3    H151520   1.805   4.663  16.152  3.2066  1.0469 -1.6630
10035TIP3    H251521   1.922   4.575  16.192 -0.7107 -3.6902  0.5052
10036TIP3   OH251522   2.037   4.385  11.561 -0.1078 -0.2010 -0.6321
10036TIP3    H151523   2.009   4.455  11.620 -2.8286 -1.4032 -0.3281
10036TIP3    H251524   2.130   4.402  11.546 -0.1100  2.0844  1.2830
10037TIP3   OH251525   6.398   3.292   1.478 -0.0854 -0.3751 -0.8684
10037TIP3    H151526   6.365   3.343   1.552  1.6415 -0.9074  0.3229
10037TIP3    H251527   6.469   3.346   1.443 -0.0037 -0.7547 -1.2885
10038TIP3   OH251528   6.316   3.527   6.572 -0.3648 -0.0488  0.1901
10038TIP3    H151529   6.309   3.469   6.648  4.3163  0.2381  1.1725
10038TIP3    H251530   6.340   3.468   6.500 -1.7940  0.0455 -0.3966
10039TIP3   OH251531   4.276   4.114  16.210 -0.0763 -0.0017 -0.1553
10039TIP3    H151532   4.255   4.045  16.274  1.8544  0.4970  1.0910
10039TIP3    H251533   4.268   4.070  16.125 -1.1069 -1.1264  0.4773
10040TIP3   OH251534   2.529   0.249  16.014 -0.4518  0.0378 -0.0901
10040TIP3    H151535   2.564   0.335  15.991  1.0398  0.0349  1.9295
10040TIP3    H251536   2.460   0.267  16.077  0.5765 -0.2379  1.1593
10041TIP3   OH251537   6.156   5.746   1.404  0.6247  0.1029 -0.1706
10041TIP3    H151538   6.070   5.727   1.365  1.1169 -3.1573  0.1111
10041TIP3    H251539   6.144   5.731   1.497  0.3023  4.7431  0.7770
10042TIP3   OH251540   5.329   0.884   2.731 -0.4155  0.6097  0.5917
10042TIP3    H151541   5.413   0.875   2.775 -1.0594  0.4645  1.8602
10042TIP3    H251542   5.303   0.975   2.748 -0.6791  0.5480  0.5222
10043TIP3   OH251543   6.606   3.911   1.827  0.3515  0.2632  0.4095
10043TIP3    H151544   6.573   3.825   1.854  1.5230 -0.8735 -1.5056
10043TIP3    H251545   6.665   3.891   1.754  0.8419  2.6975  0.0798
10044TIP3   OH251546   3.433   2.652  12.991 -0.4788 -0.6154 -0.0424
10044TIP3    H151547   3.494   2.691  13.054 -0.6593  0.7374 -0.6830
10044TIP3    H251548   3.430   2.559  13.016  0.3958 -0.3485  1.1633
10045TIP3   OH251549   1.336   5.026   0.482  0.1583 -0.2233  0.1220
10045TIP3    H151550   1.253   4.992   0.515  0.2882 -0.4610  0.2019
10045TIP3    H251551   1.336   5.118   0.507  0.6308 -0.5820  1.5232
10046TIP3   OH251552   2.404   0.178   1.223  0.0735 -0.1926 -0.3657
10046TIP3    H151553   2.449   0.149   1.144 -0.1197  0.0741 -0.5777
10046TIP3    H251554   2.316   0.203   1.193  0.5417  1.5979 -0.4067
10047TIP3   OH251555   0.194   6.062  16.965  0.2458 -0.0671  0.1042
10047TIP3    H151556   0.194   5.991  16.901 -1.9723 -1.2793  1.2887
10047TIP3    H251557   0.173   6.019  17.048  0.0442  1.8310  1.0984
10048TIP3   OH251558   3.353   3.436  16.197 -0.8311 -0.4961 -0.4835
10048TIP3    H151559   3.351   3.391  16.281 -1.6860  0.1719 -0.1396
10048TIP3    H251560   3.446   3.434  16.171 -0.8531 -2.5179 -0.5415
10049TIP3   OH251561   2.278   1.660  17.062 -0.2158 -0.1485 -0.4775
10049TIP3    H151562   2.237   1.721  17.001  0.5291  0.9012  0.0394
10049TIP3    H251563   2.304   1.714  17.136  0.1586 -1.1634  0.1572
10050TIP3   OH251564   0.872   3.587   0.513  0.0497  0.6918  0.3261
10050TIP3    H151565   0.792   3.552   0.473  0.0395  0.6169  0.4133
10050TIP3    H251566   0.862   3.682   0.508 -0.0426  0.6820  0.3350
10051TIP3   OH251567   3.673   6.121   3.070 -0.1301  0.1618 -0.1196
10051TIP3    H151568   3.623   6.165   3.139  0.8491 -0.1164  0.7918
10051TIP3    H251569   3.606   6.078   3.017 -0.9710  1.2450  0.0328
10052TIP3   OH251570   2.886   6.156   2.888 -0.6247  0.1029 -0.1398
10052TIP3    H151571   2.922   6.238   2.920 -0.3912 -0.1385  0.2271
10052TIP3    H251572   2.933   6.140   2.806  0.6714 -0.5840  0.7011
10053TIP3   OH251573   4.030   4.902  16.257  0.2943  0.7174 -0.0803
10053TIP3    H151574   3.952   4.955  16.276 -1.8078 -1.5744 -1.5689
10053TIP3    H251575   4.036   4.903  16.161  0.8682 -0.7669 -0.0855
10054TIP3   OH251576   2.796   5.078  12.287 -0.4828 -0.0133  0.1747
10054TIP3    H151577   2.733   5.079  12.215  0.2988 -2.3207 -0.6476
10054TIP3    H251578   2.838   5.164  12.284 -1.4297  0.4436 -1.2219
10055TIP3   OH251579   2.131   3.925  15.247 -0.2518  0.1112  0.3307
10055TIP3    H151580   2.179   3.975  15.313 -0.4258  1.4916 -0.5506
10055TIP3    H251581   2.193   3.856  15.220 -0.3171 -0.7187  2.1558
10056TIP3   OH251582   0.560   5.163  16.685  0.1525  0.3693 -0.1644
10056TIP3    H151583   0.490   5.155  16.749 -0.1058  0.2725 -0.4563
10056TIP3    H251584   0.626   5.100  16.714  0.3274  0.7955  0.3734
10057TIP3   OH251585   3.188   3.500   1.101  0.0527  0.4993 -0.6279
10057TIP3    H151586   3.234   3.437   1.046 -0.6716 -1.0728  0.4971
10057TIP3    H251587   3.243   3.509   1.179 -0.3699  0.4387 -0.3191
10058TIP3   OH251588   3.869   3.331  12.642  0.0807  0.1123  0.5521
10058TIP3    H151589   3.938   3.386  12.679 -0.1745  0.2069  0.8903
10058TIP3    H251590   3.815   3.308  12.716  1.5488 -2.6344  0.8994
10059TIP3   OH251591   4.494   2.444  13.676  0.4260 -0.3842  0.3777
10059TIP3    H151592   4.438   2.498  13.732  1.3277 -0.4742  1.3889
10059TIP3    H251593   4.576   2.494  13.670  0.5626 -0.6875 -0.3405
10060TIP3   OH251594   4.894   5.316  11.585 -0.6115  0.0249 -0.3138
10060TIP3    H151595   4.957   5.249  11.612  0.0801  0.2759 -1.2622
10060TIP3    H251596   4.915   5.334  11.494 -0.2800  2.0951  0.1128
10061TIP3   OH251597   3.469   3.988   3.098 -0.4045 -0.1780  0.3004
10061TIP3    H151598   3.412   4.060   3.070  0.9612  1.0538  0.5602
10061TIP3    H251599   3.413   3.910   3.094 -1.6551  0.7309 -0.9359
10062TIP3   OH251600   0.416   4.256   1.088 -0.1931  0.2252 -0.6274
10062TIP3    H151601   0.391   4.293   1.173 -0.9535  0.4060 -0.9170
10062TIP3    H251602   0.358   4.299   1.026 -0.5127 -0.8394 -1.0883
10063TIP3   OH251603   4.683   1.839   1.928  0.1184 -0.5057 -0.3770
10063TIP3    H151604   4.713   1.862   2.016  1.2688  0.8308 -1.0666
10063TIP3    H251605   4.597   1.800   1.941 -0.3440  0.9085  1.2496
10064TIP3   OH251606   1.363   3.005   5.116 -0.3145  0.2652 -0.3415
10064TIP3    H151607   1.378   2.913   5.137 -0.1644  0.7837  2.2421
10064TIP3    H251608   1.449   3.039   5.094 -0.3208 -0.1419 -1.0011
10065TIP3   OH251609   5.407   0.190  15.629 -0.3892  0.6286  0.1141
10065TIP3    H151610   5.481   0.208  15.571  0.9957  2.4479  2.2922
10065TIP3    H251611   5.365   0.275  15.641 -0.4958  0.3451  1.9309
10066TIP3   OH251612   6.263   5.362   5.380 -0.1406  0.0091 -0.0825
10066TIP3    H151613   6.185   5.307   5.367  0.1544 -0.5702  0.5360
10066TIP3    H251614   6.293   5.340   5.468  2.0695 -1.4995 -1.1444
10067TIP3   OH251615   1.716   1.730  11.650 -0.3529  0.5784  0.2816
10067TIP3    H151616   1.634   1.688  11.677  0.5361 -0.2522  1.8614
10067TIP3    H251617   1.770   1.658  11.618 -0.3528  1.1794 -1.1623
10068TIP3   OH251618   6.409   0.742  11.836  0.6363 -0.1169  0.4062
10068TIP3    H151619   6.328   0.704  11.872  1.9619 -1.0555  2.6246
10068TIP3    H251620   6.478   0.680  11.861  2.6864  2.7956  2.7874
10069TIP3   OH251621   1.266   1.489   4.700  0.1119  0.2616  0.0844
10069TIP3    H151622   1.171   1.482   4.715  0.2044  2.6593  2.6307
10069TIP3    H251623   1.302   1.410   4.739 -0.7913 -0.6024 -0.7690
10070TIP3   OH251624   2.222   6.701   5.130  0.5288  0.0628 -0.1464
10070TIP3    H151625   2.284   6.724   5.199  1.8292 -2.1133 -0.4907
10070TIP3    H251626   2.194   6.612   5.152 -2.0452  0.7397 -0.3568
10071TIP3   OH251627   0.718   2.295  11.636 -0.2836 -0.2441 -0.2540
10071TIP3    H151628   0.772   2.328  11.708 -0.2980 -0.4759 -0.1344
10071TIP3    H251629   0.628   2.300  11.670 -0.4695  1.2827 -0.8965
10072TIP3   OH251630   1.923   0.689  12.361  0.3205 -0.4408  0.0565
10072TIP3    H151631   1.942   0.683  12.454  1.8706 -2.2255 -0.3095
10072TIP3    H251632   1.973   0.765  12.331  1.1291 -0.8126  0.4238
10073TIP3   OH251633   0.786   1.727  13.061 -0.3647 -0.3647 -0.0319
10073TIP3    H151634   0.758   1.805  13.012 -1.5358 -0.8931 -0.2496
10073TIP3    H251635   0.730   1.728  13.139 -0.5968 -1.1507 -0.1878
10074TIP3   OH251636   5.292   0.329  10.588  0.5621 -0.0769 -0.2240
10074TIP3    H151637   5.247   0.263  10.535 -0.3384 -1.9284  2.6357
10074TIP3    H251638   5.374   0.287  10.613  1.5433  1.2521 -1.0827
10075TIP3   OH251639   6.666   5.178   4.524 -0.3638 -0.1889  0.2915
10075TIP3    H151640   6.630   5.097   4.560 -0.6479  0.0028  0.4388
10075TIP3    H251641   6.753   5.184   4.563 -0.2345 -0.5636  0.0689
10076TIP3   OH251642   0.634   1.311   3.414  0.8996 -0.7221 -0.1517
10076TIP3    H151643   0.713   1.326   3.361  2.0197 -1.7799  1.1686
10076TIP3    H251644   0.627   1.216   3.421  0.7680 -0.6018  1.5824
10077TIP3   OH251645   0.791   3.565  16.914  0.2969  0.1545 -0.0404
10077TIP3    H151646   0.717   3.619  16.886  0.6290  0.6789  0.0834
10077TIP3    H251647   0.849   3.563  16.838  1.5897  2.2502  0.7939
10078TIP3   OH251648   1.476   1.487   5.971  0.3043 -0.4715 -0.4836
10078TIP3    H151649   1.523   1.491   6.055  0.2964 -1.8962 -0.3908
10078TIP3    H251650   1.418   1.563   5.973 -0.2477 -0.8803  1.1480
10079TIP3   OH251651   1.874   3.889  13.701  0.5771  0.3615 -0.2730
10079TIP3    H151652   1.915   3.974  13.684 -0.6472  0.7413 -1.4394
10079TIP3    H251653   1.781   3.904  13.689 -0.1949 -0.1355  3.7035
10080TIP3   OH251654   3.409   6.040   3.136  0.0163 -0.4865 -0.0614
10080TIP3    H151655   3.382   5.964   3.187  0.1081 -0.7732 -0.4360
10080TIP3    H251656   3.365   6.029   3.051  2.3255 -1.6647 -1.1690
10081TIP3   OH251657   0.413   4.783   4.529 -0.0187 -0.6706  0.4181
10081TIP3    H151658   0.494   4.768   4.479 -0.0968  2.3676 -0.8412
10081TIP3    H251659   0.352   4.717   4.496  0.3983  0.2660 -2.5626
10082TIP3   OH251660   1.914   1.161   4.572  0.4972  0.3892  0.1824
10082TIP3    H151661   1.851   1.222   4.533 -0.7207 -0.3318  0.9461
10082TIP3    H251662   1.984   1.216   4.605  0.5095  1.1810 -1.1163
10083TIP3   OH251663   2.121   0.568  15.754  0.2051 -0.3152  0.0059
10083TIP3    H151664   2.146   0.557  15.662 -0.7362 -2.9384 -0.0174
10083TIP3    H251665   2.056   0.500  15.770 -0.1330  0.4819  2.4748
10084TIP3   OH251666   0.266   1.325  12.283  0.3717  0.1885 -0.3271
10084TIP3    H151667   0.329   1.306  12.213 -1.0732 -2.2055 -1.1007
10084TIP3    H251668   0.194   1.264  12.268 -1.4091  1.6899  1.4951
10085TIP3   OH251669   4.910   0.906  15.791  0.4180 -0.3706 -0.7175
10085TIP3    H151670   4.867   0.868  15.714 -2.7256 -0.2799  0.8429
10085TIP3    H251671   4.905   0.838  15.858 -1.0528  1.0312  0.7064
10086TIP3   OH251672   3.889   2.196   5.293  0.3599  0.0368  0.4991
10086TIP3    H151673   3.853   2.202   5.382  2.3074  2.1192  1.2405
10086TIP3    H251674   3.847   2.118   5.256 -3.4834  1.2182  1.8361
10087TIP3   OH251675   1.445   5.076  11.253  1.0791 -0.0031 -0.2016
10087TIP3    H151676   1.356   5.099  11.226  0.7166  0.8416  1.5525
10087TIP3    H251677   1.494   5.068  11.172 -0.7460 -1.1667 -1.2690
10088TIP3   OH251678   5.813   1.290   6.732 -0.3473  0.5097  0.4261
10088TIP3    H151679   5.892   1.254   6.772 -1.2311 -0.6291  1.2357
10088TIP3    H251680   5.822   1.385   6.741  1.4379  0.4757 -0.5514
10089TIP3   OH251681   1.033   5.840   0.643 -0.2194 -0.1929  0.3292
10089TIP3    H151682   1.128   5.839   0.631 -0.2693 -1.0570 -0.0747
10089TIP3    H251683   1.019   5.900   0.716  0.5222  1.0222 -0.4728
10090TIP3   OH251684   5.873   2.311   0.755 -0.4970 -0.9229  0.1716
10090TIP3    H151685   5.797   2.368   0.754 -1.8285 -2.5437  1.7380
10090TIP3    H251686   5.934   2.353   0.815 -0.3011  0.1617 -0.7538
10091TIP3   OH251687   2.146   0.487   5.592 -0.2582 -0.3870  0.0162
10091TIP3    H151688   2.214   0.422   5.574 -1.2207 -1.1756 -0.9316
10091TIP3    H251689   2.131   0.482   5.686  1.4099  0.2474  0.3469
10092TIP3   OH251690   6.062   5.793  16.410  0.2592  0.1176 -0.0151
10092TIP3    H151691   6.003   5.744  16.354  2.4746 -1.2791 -1.2782
10092TIP3    H251692   6.093   5.729  16.474  0.5775  0.7665  0.4971
10093TIP3   OH251693   0.659   4.866   6.318  0.5206 -0.4464 -0.6169
10093TIP3    H151694   0.589   4.857   6.254  0.2467 -0.1750 -0.3577
10093TIP3    H251695   0.621   4.833   6.400  0.1834  1.1050 -0.1271
10094TIP3   OH251696   6.020   1.113  14.476  0.1849 -0.0818  0.4244
10094TIP3    H151697   6.072   1.047  14.521  1.6981  1.0667  0.4583
10094TIP3    H251698   5.943   1.066  14.443  0.6237 -1.5796  1.4621
10095TIP3   OH251699   6.725   4.732   5.053  0.2044 -0.0824  0.2246
10095TIP3    H151700   6.777   4.660   5.088 -1.1388 -1.3186 -0.2473
10095TIP3    H251701   6.673   4.762   5.128  0.1638 -0.1516  0.2243
10096TIP3   OH251702   2.095   2.792   5.174  0.8767  0.0136  0.5704
10096TIP3    H151703   2.029   2.827   5.233  0.7858 -2.0474  1.7699
10096TIP3    H251704   2.179   2.816   5.214  0.8359  0.1308  0.5865
10097TIP3   OH251705   3.174   5.646  17.044  0.1073 -0.1736  0.4212
10097TIP3    H151706   3.133   5.645  17.130 -0.1335 -1.2396  0.3145
10097TIP3    H251707   3.102   5.634  16.983  0.4179 -0.7081  0.1524
10098TIP3   OH251708   4.823   5.950  13.186  0.3518  0.3485  0.3536
10098TIP3    H151709   4.903   5.924  13.141  0.5244 -0.1540  0.9465
10098TIP3    H251710   4.778   6.008  13.124  0.1329 -1.0580 -0.8421
10099TIP3   OH251711   1.824   6.678  16.152  0.1214 -0.4529  0.3979
10099TIP3    H151712   1.779   6.634  16.079  0.4809  0.4245 -0.3880
10099TIP3    H251713   1.905   6.629  16.164  0.6359  0.1113 -0.6322
10100TIP3   OH251714   1.811   5.834   2.754  0.8988  0.1120  0.4062
10100TIP3    H151715   1.833   5.823   2.847  1.0139 -1.6235  0.2016
10100TIP3    H251716   1.856   5.762   2.710 -1.7701 -1.0809 -0.5689
10101TIP3   OH251717   0.971   6.506   0.533 -0.6663  0.0819  0.2070
10101TIP3    H151718   1.061   6.474   0.528 -1.2737 -1.6084 -0.9217
10101TIP3    H251719   0.955   6.518   0.626  0.3349 -0.8326  0.5204
10102TIP3   OH251720   0.118   4.792  17.343  0.9315  0.2999  0.1503
10102TIP3    H151721   0.083   4.838  17.266 -1.7505 -1.0412  0.4635
10102TIP3    H251722   0.059   4.817  17.414  1.4582 -0.9906  1.0657
10103TIP3   OH251723   4.190   6.618  11.952 -0.0104 -0.0852 -0.0931
10103TIP3    H151724   4.177   6.541  12.006 -0.5490  0.0335 -0.0466
10103TIP3    H251725   4.102   6.653  11.939  0.2804  0.8552  0.3775
10104TIP3   OH251726   4.177   2.671   5.085  0.4574  0.4374 -0.2851
10104TIP3    H151727   4.174   2.756   5.041  0.9062  1.8843  2.2695
10104TIP3    H251728   4.087   2.654   5.111  0.4755  0.4912 -0.1851
10105TIP3   OH251729   4.448   2.440   3.211 -1.0060 -0.3169 -0.9422
10105TIP3    H151730   4.509   2.387   3.263 -1.1349  1.3228  0.9867
10105TIP3    H251731   4.379   2.380   3.185 -0.2025 -1.4921 -0.4244
10106TIP3   OH251732   5.918   6.534   5.874 -0.1899 -0.4319  0.4163
10106TIP3    H151733   5.892   6.541   5.966  2.6811 -0.6426  1.3487
10106TIP3    H251734   5.894   6.618   5.836  1.0860  0.7600  2.1166
10107TIP3   OH251735   5.834   2.319  12.060  0.6494 -0.2118 -0.0193
10107TIP3    H151736   5.820   2.391  11.998 -1.0003  0.0989  0.6719
10107TIP3    H251737   5.839   2.362  12.145 -2.8821 -0.9853  0.7368
10108TIP3   OH251738   4.347   0.534  12.022  0.3359  0.2741  0.0684
10108TIP3    H151739   4.422   0.594  12.020  0.2103  0.4237 -0.0744
10108TIP3    H251740   4.371   0.464  11.961  0.0379  0.6991 -0.5412
10109TIP3   OH251741   6.461   5.094  15.592 -0.4495  0.3047 -0.6374
10109TIP3    H151742   6.370   5.085  15.618 -0.2347 -0.1352 -0.0132
10109TIP3    H251743   6.479   5.017  15.539 -0.2120 -0.0456 -0.0586
10110TIP3   OH251744   6.117   1.867   5.537  0.8006  0.1255  0.5773
10110TIP3    H151745   6.033   1.872   5.581 -0.0551 -0.9146 -0.8726
10110TIP3    H251746   6.133   1.774   5.523  0.3791  0.3914 -2.4109
10111TIP3   OH251747   5.914   3.696  14.236  0.3290 -0.0199 -0.4897
10111TIP3    H151748   5.928   3.679  14.142 -1.4280 -0.2347 -0.7583
10111TIP3    H251749   5.851   3.629  14.262  2.2089 -1.1935  1.3474
10112TIP3   OH251750   3.135   5.109  17.288  0.4157 -0.0056  0.4413
10112TIP3    H151751   3.122   5.178  17.222  0.0351  0.3286  0.8533
10112TIP3    H251752   3.158   5.032  17.238  0.5696  0.3567 -0.0556
10113TIP3   OH251753   2.972   3.199   4.841 -0.2103  0.5916 -0.5205
10113TIP3    H151754   2.880   3.178   4.856 -0.0557  1.1709  1.6976
10113TIP3    H251755   3.001   3.238   4.924  2.0238  0.4467 -1.1674
10114TIP3   OH251756   4.599   1.091   1.293 -0.0569  0.3135  0.2684
10114TIP3    H151757   4.684   1.052   1.272  0.0526  0.8896 -0.4017
10114TIP3    H251758   4.620   1.174   1.335 -0.2775  0.8993 -0.7481
10115TIP3   OH251759   4.890   0.312  13.452  0.8020 -0.1101  0.3072
10115TIP3    H151760   4.846   0.344  13.531 -0.8218 -1.7142  0.1187
10115TIP3    H251761   4.823   0.260  13.407  2.0452 -0.1909 -1.5421
10116TIP3   OH251762   4.804   6.542  12.566 -0.3121  0.1978 -0.1819
10116TIP3    H151763   4.868   6.477  12.594 -0.5159  0.4983  1.0106
10116TIP3    H251764   4.736   6.541  12.633 -1.5371 -0.0541 -1.3866
10117TIP3   OH251765   5.930   5.676  14.508  0.1883  0.0727  0.1126
10117TIP3    H151766   5.929   5.708  14.599 -2.5672 -1.2012  0.6447
10117TIP3    H251767   5.997   5.729  14.465  1.3073  1.0123  2.7783
10118TIP3   OH251768   0.696   3.634   1.848  0.0295  0.2252  0.5134
10118TIP3    H151769   0.615   3.682   1.864  0.5474  1.9509 -1.6316
10118TIP3    H251770   0.706   3.578   1.925 -2.2657  1.2405  1.6409
10119TIP3   OH251771   1.071   1.029   4.976  0.0339 -0.1359  0.3852
10119TIP3    H151772   1.090   1.115   5.014  0.5790 -0.3756  0.6731
10119TIP3    H251773   1.025   0.983   5.046  0.8425 -0.5013  0.6942
10120TIP3   OH251774   6.623   1.727  12.645 -0.0264  0.0720  0.1110
10120TIP3    H151775   6.615   1.781  12.566 -0.1688 -0.4993 -0.2674
10120TIP3    H251776   6.633   1.638  12.612  0.7145 -0.0745  0.7245
10121TIP3   OH251777   3.894   2.064   1.146 -0.6398  0.4406  0.1598
10121TIP3    H151778   3.828   2.133   1.152 -1.2417  0.0940 -1.8538
10121TIP3    H251779   3.848   1.988   1.111  0.4527 -0.3611  0.3842
10122TIP3   OH251780   1.627   6.525  14.439 -0.4442 -0.0279 -0.0904
10122TIP3    H151781   1.604   6.615  14.462  1.4550  0.8124 -1.2546
10122TIP3    H251782   1.705   6.506  14.491  0.5025 -0.1560 -1.5078
10123TIP3   OH251783   4.006   4.054   5.759 -0.2119  0.1546  0.2171
10123TIP3    H151784   3.938   3.987   5.762  0.2083 -0.2624  0.3683
10123TIP3    H251785   4.069   4.022   5.695 -0.3020  0.6891 -0.1525
10124TIP3   OH251786   1.682   6.470   0.884 -0.0613  0.4136  0.0257
10124TIP3    H151787   1.718   6.422   0.958  0.0076 -0.9781 -0.8814
10124TIP3    H251788   1.652   6.553   0.922  2.8440  1.1122  1.0588
10125TIP3   OH251789   4.636   4.602   0.849 -0.3978 -0.0336 -0.3290
10125TIP3    H151790   4.601   4.610   0.938  0.7855 -0.5013  0.1884
10125TIP3    H251791   4.591   4.526   0.813  1.4758 -1.9238  1.0528
10126TIP3   OH251792   3.440   5.200  16.056  0.3406  0.6964 -0.1182
10126TIP3    H151793   3.412   5.137  16.123 -0.8493 -0.4543 -1.6104
10126TIP3    H251794   3.407   5.284  16.088 -1.1266  0.0164  0.2694
10127TIP3   OH251795   3.368   3.748  10.712  0.2409  0.0661  0.2831
10127TIP3    H151796   3.443   3.758  10.652  1.0688 -0.3320  1.2190
10127TIP3    H251797   3.298   3.797  10.671  1.0338  0.4855 -0.6127
10128TIP3   OH251798   3.214   3.841  11.878 -0.4933 -0.2304 -0.0932
10128TIP3    H151799   3.120   3.857  11.864 -0.5075  1.1113  1.2703
10128TIP3    H251800   3.258   3.904  11.821 -0.4322 -0.3176 -0.1424
10129TIP3   OH251801   1.677   6.730   1.467  0.0807 -0.0823  0.3063
10129TIP3    H151802   1.721   6.702   1.387 -0.4562 -0.6545  0.2138
10129TIP3    H251803   1.596   6.680   1.470 -0.6821  1.1231  0.3695
10130TIP3   OH251804   0.434   5.659  10.826  0.6062  0.0060  0.0968
10130TIP3    H151805   0.423   5.649  10.731 -2.5984 -1.3196  0.4886
10130TIP3    H251806   0.444   5.570  10.859 -1.1066  0.1679  1.1926
10131TIP3   OH251807   4.218   4.239  11.961 -0.2248 -0.3563  0.1417
10131TIP3    H151808   4.259   4.195  12.036 -0.0761 -1.0456 -0.3298
10131TIP3    H251809   4.229   4.332  11.979  1.1261 -0.5215  0.2743
10132TIP3   OH251810   1.074   6.424  11.116 -0.1468 -0.7237  0.1986
10132TIP3    H151811   0.985   6.458  11.109 -0.4605 -1.2724  1.2709
10132TIP3    H251812   1.128   6.488  11.070 -0.8140  0.7957  1.4201
10133TIP3   OH251813   0.337   2.891   5.279 -0.4352 -0.0348  0.3578
10133TIP3    H151814   0.394   2.852   5.345  0.0670 -0.9765 -0.6014
10133TIP3    H251815   0.318   2.979   5.313  1.2578  0.1585  0.9105
10134TIP3   OH251816   3.196   6.267   5.360 -0.5140 -0.0336  0.3216
10134TIP3    H151817   3.111   6.265   5.405 -1.6735 -2.8538 -1.6662
10134TIP3    H251818   3.183   6.327   5.287  0.3721  2.1213  1.8390
10135TIP3   OH251819   3.660   0.413  12.786 -1.2197  0.3392  0.4232
10135TIP3    H151820   3.627   0.337  12.738 -0.4090 -0.1440  0.6199
10135TIP3    H251821   3.744   0.384  12.822  0.0682  1.9606 -1.1219
10136TIP3   OH251822   6.633   3.032   2.877 -0.0120 -0.2706  0.1813
10136TIP3    H151823   6.659   2.988   2.958 -0.2355  0.3448  0.5969
10136TIP3    H251824   6.715   3.051   2.832  0.3059  1.4522  1.3726
10137TIP3   OH251825   1.999   0.133   3.498 -0.0279  0.3416 -0.1035
10137TIP3    H151826   2.080   0.083   3.506 -0.4710 -0.3501  0.0959
10137TIP3    H251827   1.930   0.070   3.516 -0.5916  1.0505  0.2412
10138TIP3   OH251828   6.259   5.503  14.213 -0.1630 -0.0843 -0.7846
10138TIP3    H151829   6.272   5.514  14.307  0.5609 -0.1423 -0.8747
10138TIP3    H251830   6.174   5.543  14.196 -1.1757 -1.6702  0.1971
10139TIP3   OH251831   2.952   3.213  11.857  0.8088 -0.6678  0.1423
10139TIP3    H151832   3.028   3.213  11.799  0.1777 -4.6772 -1.0035
10139TIP3    H251833   2.985   3.179  11.940  1.1554  2.4317  1.3709
10140TIP3   OH251834   1.099   6.467  12.972 -0.3031 -0.5594  0.0437
10140TIP3    H151835   1.115   6.542  13.029  0.3700 -0.3757 -0.3792
10140TIP3    H251836   1.185   6.429  12.958 -0.6230 -1.3468  0.1542
10141TIP3   OH251837   2.496   3.941   6.429 -0.0110 -0.0778  0.3427
10141TIP3    H151838   2.520   3.983   6.512 -0.0745 -0.0682  0.3562
10141TIP3    H251839   2.577   3.901   6.399  0.2579  0.7716 -0.0984
10142TIP3   OH251840   5.518   1.342   0.596  0.2907  0.4775  0.3791
10142TIP3    H151841   5.608   1.370   0.608  0.6037 -0.4546  0.3367
10142TIP3    H251842   5.522   1.246   0.600 -0.6547  0.4121  0.1139
10143TIP3   OH251843   2.180   2.033   5.077 -0.6236  0.3720 -0.0835
10143TIP3    H151844   2.223   1.948   5.064 -0.1595  0.7005 -0.7561
10143TIP3    H251845   2.237   2.095   5.032 -2.0485  0.7570 -1.4296
10144TIP3   OH251846   3.009   0.823   2.038  0.5329 -0.2750 -0.3553
10144TIP3    H151847   2.964   0.829   1.954 -0.2220 -1.3108 -0.0357
10144TIP3    H251848   2.950   0.866   2.100  0.4410 -0.7649 -0.1043
10145TIP3   OH251849   2.296   5.210  14.211  0.4811 -0.3108  0.3167
10145TIP3    H151850   2.246   5.130  14.221  0.3267 -0.1273  1.0821
10145TIP3    H251851   2.253   5.273  14.268  2.3523 -0.5226  2.0849
10146TIP3   OH251852   1.415   6.287   5.720  0.4984 -0.0830 -0.1413
10146TIP3    H151853   1.332   6.334   5.719  0.6041  0.1145  0.0822
10146TIP3    H251854   1.427   6.262   5.812  0.8622  0.2093 -0.1072
10147TIP3   OH251855   3.230   6.027  14.827  0.1175  0.0210  0.1920
10147TIP3    H151856   3.291   5.990  14.890  0.4842  0.8446  0.3336
10147TIP3    H251857   3.280   6.095  14.782  0.1798 -1.2161 -1.7020
10148TIP3   OH251858   0.712   1.578  13.293  0.5458  0.1506  0.2201
10148TIP3    H151859   0.776   1.510  13.273  1.4310 -0.0211  3.1638
10148TIP3    H251860   0.629   1.542  13.262  1.2313 -1.6120  0.3176
10149TIP3   OH251861   0.094   4.733  16.924  0.2869  0.5660 -0.4446
10149TIP3    H151862   0.005   4.702  16.939 -0.6378  2.2818 -1.9129
10149TIP3    H251863   0.113   4.707  16.834  2.3619 -2.0658  0.6144
10150TIP3   OH251864   4.904   1.056   1.224  0.1984  0.4442 -0.4347
10150TIP3    H151865   4.982   1.099   1.258  0.7438  0.0820 -1.1947
10150TIP3    H251866   4.881   1.107   1.146 -0.4883  0.7148 -0.0562
10151TIP3   OH251867   4.324   4.411  15.940 -0.1888  0.3866  0.2597
10151TIP3    H151868   4.361   4.372  15.860  0.2267  1.7143 -0.2347
10151TIP3    H251869   4.238   4.372  15.948 -0.5911  0.8294 -1.3483
10152TIP3   OH251870   5.345   1.460  17.321  0.1787  0.8054 -0.1030
10152TIP3    H151871   5.329   1.366  17.322 -1.1459  1.0217  0.9603
10152TIP3    H251872   5.392   1.475  17.238 -1.1472 -0.5369 -1.1608
10153TIP3   OH251873   4.003   0.622  12.788  0.0767 -0.5226 -0.1867
10153TIP3    H151874   3.972   0.567  12.716 -0.1308  0.6520 -1.0303
10153TIP3    H251875   4.094   0.641  12.767 -0.1614  0.3511 -0.5190
10154TIP3   OH251876   0.133   2.256   2.041  0.4541 -0.2913 -0.2190
10154TIP3    H151877   0.074   2.249   2.116  0.7955  0.2694  0.1179
10154TIP3    H251878   0.184   2.336   2.059  0.3017  0.0422 -1.2198
10155TIP3   OH251879   3.206   0.029  15.461 -0.5416  0.0963 -0.1299
10155TIP3    H151880   3.111   0.038  15.466 -0.4670  2.3952 -1.3379
10155TIP3    H251881   3.236   0.113  15.426  1.8316 -1.0152 -0.9956
10156TIP3   OH251882   0.876   0.567  12.752  0.4429 -0.6933  0.1501
10156TIP3    H151883   0.841   0.540  12.837 -2.0716 -1.5302 -1.0600
10156TIP3    H251884   0.831   0.511  12.689 -0.4795  2.2868 -2.0223
10157TIP3   OH251885   2.069   6.479   3.562 -0.9474  0.4184  0.0146
10157TIP3    H151886   2.084   6.447   3.650  0.3721 -0.1025 -0.3672
10157TIP3    H251887   2.153   6.519   3.536 -1.1843  0.2310 -1.1259
10158TIP3   OH251888   0.081   6.040   5.906 -0.1111 -0.1549 -0.5667
10158TIP3    H151889   0.175   6.027   5.895 -0.5072 -1.6333 -3.0073
10158TIP3    H251890   0.054   5.969   5.965  0.5466  1.5734  1.9402
10159TIP3   OH251891   0.312   1.814   1.001  0.1084 -0.2452 -0.1517
10159TIP3    H151892   0.361   1.746   1.049  1.5490  0.2168 -0.8963
10159TIP3    H251893   0.286   1.772   0.919 -2.2788 -1.0080  0.9207
10160TIP3   OH251894   2.266   2.687  15.034 -0.8745 -0.3852 -0.7266
10160TIP3    H151895   2.338   2.726  15.084 -0.1230  0.9179 -2.7111
10160TIP3    H251896   2.203   2.659  15.101 -0.0722  1.5424  0.9437
10161TIP3   OH251897   4.705   1.852   2.907  0.0187  0.1151  0.0827
10161TIP3    H151898   4.646   1.780   2.928 -2.8994  1.9298 -1.2796
10161TIP3    H251899   4.727   1.891   2.992 -0.7763 -0.5792  0.6203
10162TIP3   OH251900   0.241   1.898   1.799  0.7440  0.3398  0.2264
10162TIP3    H151901   0.312   1.945   1.755  1.1592  0.8726  1.4233
10162TIP3    H251902   0.264   1.902   1.892 -0.6570  0.1710  0.5992
10163TIP3   OH251903   3.428   3.176  15.909  0.0606 -0.2444 -0.3282
10163TIP3    H151904   3.399   3.097  15.954  0.4718 -0.5275 -0.5526
10163TIP3    H251905   3.357   3.239  15.923 -0.1855 -0.5910  0.0092
10164TIP3   OH251906   1.155   6.553  16.645  0.5290 -0.1364 -0.0429
10164TIP3    H151907   1.067   6.569  16.611  0.9817  1.0190 -0.7169
10164TIP3    H251908   1.213   6.602  16.587  1.4087  1.2779  1.9342
10165TIP3   OH251909   3.173   5.443   1.021 -0.6046  0.0166  0.2488
10165TIP3    H151910   3.174   5.474   1.111 -0.4346  0.1464  0.2036
10165TIP3    H251911   3.093   5.392   1.013 -1.6565  1.6622 -0.0815
10166TIP3   OH251912   5.718   5.056   4.563  0.8713  0.1766 -0.1778
10166TIP3    H151913   5.765   5.102   4.494  1.0871 -2.8942 -2.3058
10166TIP3    H251914   5.627   5.086   4.555  1.2847  1.4455 -0.3065
10167TIP3   OH251915   3.501   4.443   2.663 -0.4724  1.3722  0.1000
10167TIP3    H151916   3.577   4.439   2.605 -0.0224 -1.3365  0.7430
10167TIP3    H251917   3.539   4.465   2.749 -0.6109  1.3894  0.1569
10168TIP3   OH251918   1.596   3.614   5.653 -0.5375  0.7270  0.3082
10168TIP3    H151919   1.529   3.554   5.621 -0.8471  0.1947  1.8643
10168TIP3    H251920   1.613   3.586   5.743  1.5549  1.0415  0.0811
10169TIP3   OH251921   3.098   3.075   1.278 -0.3034 -0.3890 -0.0453
10169TIP3    H151922   3.150   3.002   1.312  1.2643  0.3387 -0.8137
10169TIP3    H251923   3.106   3.143   1.344  1.1383  0.3282 -0.9380
10170TIP3   OH251924   4.768   6.341  16.500 -0.3812 -0.3376  0.3211
10170TIP3    H151925   4.798   6.259  16.538  0.7554 -0.7633 -1.3718
10170TIP3    H251926   4.788   6.407  16.567  2.1015 -0.9667  0.3002
10171TIP3   OH251927   6.444   1.912   3.887  0.1229  0.9715 -0.3340
10171TIP3    H151928   6.390   1.866   3.823 -1.9392 -1.6696  2.9801
10171TIP3    H251929   6.404   1.999   3.894 -0.7128  0.6828 -1.3619
10172TIP3   OH251930   5.107   3.069   1.796 -0.2572 -0.4960  0.1559
10172TIP3    H151931   5.067   3.105   1.717 -1.1078 -0.8612  0.4124
10172TIP3    H251932   5.033   3.037   1.848  0.4236 -2.5669 -0.0366
10173TIP3   OH251933   3.411   6.399   1.850  0.1661 -0.4829  0.1749
10173TIP3    H151934   3.371   6.460   1.788  0.3818 -0.4827  0.0365
10173TIP3    H251935   3.351   6.399   1.925  1.8567  2.6077  1.7459
10174TIP3   OH251936   3.172   2.642  13.828  0.8307  0.1408 -0.0742
10174TIP3    H151937   3.222   2.560  13.832 -0.8673 -1.0399 -1.4605
10174TIP3    H251938   3.197   2.682  13.744 -0.6257 -0.5732 -0.8873
10175TIP3   OH251939   4.849   2.593   1.977  0.3516  0.0217 -0.0277
10175TIP3    H151940   4.872   2.540   2.054 -1.3211 -1.4228 -0.4639
10175TIP3    H251941   4.755   2.582   1.968 -0.1478  3.3611  0.0169
10176TIP3   OH251942   2.914   5.909   4.002  0.6194  0.1270 -0.0665
10176TIP3    H151943   2.957   5.857   3.934 -0.1079  0.3739 -0.7326
10176TIP3    H251944   2.921   5.856   4.081  1.3620 -0.2271 -0.3622
10177TIP3   OH251945   0.071   1.255   5.905 -0.1170  0.3948  0.1519
10177TIP3    H151946   0.005   1.218   5.847  0.6712  1.1644 -1.2812
10177TIP3    H251947   0.101   1.334   5.861  1.7515  0.0792  0.7430
10178TIP3   OH251948   5.398   5.245   2.072  0.6770 -0.3319  0.1652
10178TIP3    H151949   5.322   5.212   2.120  0.4780  0.4067  0.3771
10178TIP3    H251950   5.463   5.175   2.079 -1.0016 -2.3868 -2.6941
10179TIP3   OH251951   4.611   6.238   4.646 -0.2650  0.8107 -0.2694
10179TIP3    H151952   4.600   6.333   4.653  0.0239  0.8713 -0.6302
10179TIP3    H251953   4.543   6.210   4.584 -0.5404  0.7393  0.0588
10180TIP3   OH251954   3.352   3.295  17.073 -0.6344 -0.1012  0.1036
10180TIP3    H151955   3.337   3.319  16.982 -1.6452 -0.8998  0.0314
10180TIP3    H251956   3.356   3.378  17.120 -3.3585  0.2826 -0.2107
10181TIP3   OH251957   0.371   1.194  11.043  0.2851  0.5421 -0.0335
10181TIP3    H151958   0.354   1.221  10.953 -2.6270 -0.8798 -0.0279
10181TIP3    H251959   0.407   1.105  11.036 -1.0734 -0.0488  0.1829
10182TIP3   OH251960   1.116   0.980   4.254  0.4306 -0.1349  0.0463
10182TIP3    H151961   1.024   0.957   4.244  0.2075  1.3522 -1.7423
10182TIP3    H251962   1.123   1.011   4.345 -0.5634 -1.2823  0.5409
10183TIP3   OH251963   2.840   0.459  16.201  0.6732  0.6244  0.4306
10183TIP3    H151964   2.842   0.539  16.148 -3.1587  0.8944  0.4332
10183TIP3    H251965   2.847   0.388  16.138 -0.3754  0.9655 -0.0882
10184TIP3   OH251966   2.520   1.247  15.057 -0.5604  0.2356  0.3314
10184TIP3    H151967   2.525   1.180  14.989  1.7139  1.0257 -0.3673
10184TIP3    H251968   2.446   1.303  15.031 -0.3217 -0.0271 -0.9691
10185TIP3   OH251969   4.640   3.084   4.226 -0.0470 -0.1101  0.4660
10185TIP3    H151970   4.699   3.109   4.156 -3.2958  0.0481 -2.4911
10185TIP3    H251971   4.639   2.989   4.225  1.9625 -0.2210  2.3185
10186TIP3   OH251972   2.170   5.190  13.753  0.4053  0.3178 -0.0994
10186TIP3    H151973   2.130   5.277  13.760  0.6102  0.5340 -1.4803
10186TIP3    H251974   2.140   5.156  13.669  1.8809 -0.1477 -0.4713
10187TIP3   OH251975   0.995   3.386   4.451 -0.2608  0.6269  0.4701
10187TIP3    H151976   1.008   3.406   4.544 -1.7619 -0.0207  0.8458
10187TIP3    H251977   0.903   3.408   4.435 -0.4248 -0.6829 -0.4810
10188TIP3   OH251978   5.637   0.327  16.566 -0.5757  0.1436 -0.1059
10188TIP3    H151979   5.710   0.366  16.613 -0.3043 -0.4104 -0.0576
10188TIP3    H251980   5.575   0.399  16.552 -0.2348  0.5100  0.2699
10189TIP3   OH251981   4.233   1.582  16.681 -0.2579 -0.0218 -0.2636
10189TIP3    H151982   4.265   1.497  16.711  0.0686  0.4895  0.8900
10189TIP3    H251983   4.168   1.608  16.747 -0.8883  0.2930 -0.9980
10190TIP3   OH251984   6.478   4.211   3.690 -0.2488  0.3070 -0.2166
10190TIP3    H151985   6.486   4.182   3.600 -0.5384 -0.1796 -0.0860
10190TIP3    H251986   6.566   4.240   3.714 -0.6154  2.5953 -1.3709
10191TIP3   OH251987   2.920   6.488  15.792  0.2149 -0.1468 -0.1340
10191TIP3    H151988   2.913   6.412  15.850  2.0095  0.1638  0.5622
10191TIP3    H251989   2.954   6.558  15.848 -0.9556  1.0712 -0.8669
10192TIP3   OH251990   5.955   3.141   5.437 -0.1773  0.2328 -0.4574
10192TIP3    H151991   5.881   3.091   5.471 -2.3946  1.8647 -2.5507
10192TIP3    H251992   5.967   3.212   5.500 -2.0518  1.3165 -1.2295
10193TIP3   OH251993   3.307   0.664   0.890 -0.4278 -0.3592  0.2763
10193TIP3    H151994   3.226   0.654   0.841 -0.1673  2.0464 -0.8063
10193TIP3    H251995   3.281   0.704   0.973 -0.3941 -0.0635  0.1435
10194TIP3   OH251996   5.588   3.559   0.329 -0.1733  0.1589  0.4472
10194TIP3    H151997   5.679   3.568   0.357 -0.0539 -0.2572  0.2114
10194TIP3    H251998   5.592   3.499   0.255 -0.5551  0.7690 -0.0761
10195TIP3   OH251999   6.268   5.654  12.071 -0.0697  0.0307 -0.5008
10195TIP3    H152000   6.297   5.729  12.019 -0.8049  0.3114 -0.5112
10195TIP3    H252001   6.349   5.607  12.092  0.7386  2.1684  1.6623
10196TIP3   OH252002   4.737   0.964  16.968  0.8952  0.4425  0.3523
10196TIP3    H152003   4.707   0.884  17.011 -0.7086  0.8129 -0.0118
10196TIP3    H252004   4.718   0.951  16.875  1.5767  0.8370  0.1466
10197TIP3   OH252005   2.661   0.206  11.906 -0.0958 -0.2416  0.4348
10197TIP3    H152006   2.645   0.176  11.817 -1.1266  0.8852  0.2064
10197TIP3    H252007   2.701   0.293  11.894 -0.2759 -0.0700  1.0660
10198TIP3   OH252008   1.811   5.038  10.910  0.2006 -0.4076 -0.0148
10198TIP3    H152009   1.841   5.056  10.821  0.5575 -0.5031  0.0836
10198TIP3    H252010   1.828   4.945  10.923 -0.7985 -0.6245 -0.2025
10199TIP3   OH252011   0.651   1.632   0.239 -0.4702  0.2614 -0.4138
10199TIP3    H152012   0.634   1.592   0.154 -0.8361 -0.7896  0.1406
10199TIP3    H252013   0.718   1.698   0.221  2.4111 -2.5438 -0.9480
10200TIP3   OH252014   5.098   1.737  13.250  0.1759 -0.0651 -0.3225
10200TIP3    H152015   5.038   1.663  13.262 -0.0231  0.0164 -0.8235
10200TIP3    H252016   5.182   1.704  13.281 -0.4444  0.3447  1.9911
10201TIP3   OH252017   5.669   3.831  15.106 -0.3605 -0.4350  0.2437
10201TIP3    H152018   5.684   3.919  15.140 -0.5418 -0.3297  0.0604
10201TIP3    H252019   5.611   3.790  15.170  0.1027 -0.5889  0.5719
10202TIP3   OH252020   2.913   2.141  14.032 -0.3310  0.3523 -0.2460
10202TIP3    H152021   2.941   2.101  14.114  0.9506  1.0924 -0.2902
10202TIP3    H252022   2.852   2.210  14.058 -0.0603  0.4717  0.0905
10203TIP3   OH252023   5.629   4.684   5.389 -0.2446 -0.0839 -0.8293
10203TIP3    H152024   5.677   4.764   5.367 -0.6358 -0.0960 -1.7887
10203TIP3    H252025   5.564   4.713   5.454 -0.9853  0.5804 -1.8446
10204TIP3   OH252026   2.865   1.952  17.233  0.0933  0.3399  0.2993
10204TIP3    H152027   2.876   1.877  17.176  0.8817  1.5039 -1.1482
10204TIP3    H252028   2.771   1.970  17.230 -0.1357 -0.7242  0.8599
10205TIP3   OH252029   5.174   4.259  11.167 -0.0754  0.1359  0.1174
10205TIP3    H152030   5.158   4.168  11.192 -0.6782  0.0166 -0.6902
10205TIP3    H252031   5.191   4.256  11.073  3.4828  0.4044  0.6044
10206TIP3   OH252032   6.090   2.732  11.722  0.5058 -0.0242  0.3280
10206TIP3    H152033   6.027   2.668  11.754  0.4178  0.0973  0.3960
10206TIP3    H252034   6.175   2.692  11.738  0.5544  0.7776  2.3514
10207TIP3   OH252035   4.164   1.689   2.382 -0.0217  0.5800  0.5027
10207TIP3    H152036   4.180   1.753   2.452  0.8051 -1.4613  2.2788
10207TIP3    H252037   4.231   1.709   2.316 -0.9871  2.7115  0.0749
10208TIP3   OH252038   3.923   6.452   0.827  0.2192 -0.0578  0.0808
10208TIP3    H152039   3.901   6.483   0.739 -5.0110 -0.7023  0.8104
10208TIP3    H252040   3.940   6.358   0.815  2.5389  0.3860 -0.4961
10209TIP3   OH252041   2.853   4.502   0.857 -0.7573  0.0791 -0.1014
10209TIP3    H152042   2.882   4.512   0.948  0.2642 -2.1244 -0.1286
10209TIP3    H252043   2.813   4.415   0.854 -1.5020  0.4356 -1.6119
10210TIP3   OH252044   0.261   5.731   0.580  0.1247  0.4181 -0.5879
10210TIP3    H152045   0.335   5.791   0.593 -0.1027  0.6600 -0.4040
10210TIP3    H252046   0.220   5.724   0.666  0.1888 -0.0577 -0.5919
10211TIP3   OH252047   5.294   6.316  15.000 -0.6366 -0.0370 -0.4290
10211TIP3    H152048   5.325   6.231  14.968  0.1903  0.2966 -0.5441
10211TIP3    H252049   5.353   6.380  14.960  0.3431  0.4062  1.5915
10212TIP3   OH252050   1.570   5.797   2.617  0.3088  0.4032 -0.0948
10212TIP3    H152051   1.514   5.751   2.680  0.3909  0.9028  0.3579
10212TIP3    H252052   1.637   5.839   2.671 -0.5221  2.1435 -0.3114
10213TIP3   OH252053   3.356   4.843   1.826  0.1700 -0.0412 -0.0893
10213TIP3    H152054   3.352   4.939   1.834 -0.2763  0.2324 -2.7834
10213TIP3    H252055   3.442   4.825   1.788  0.2384 -0.7282  0.3698
10214TIP3   OH252056   4.024   0.259  14.030 -0.5173  0.3178 -0.2208
10214TIP3    H152057   4.012   0.325  14.099  0.2741  0.8276 -0.5616
10214TIP3    H252058   4.075   0.190  14.072 -1.3342 -0.0928  0.1321
10215TIP3   OH252059   5.621   6.205   0.375  0.3892  0.2689 -0.0467
10215TIP3    H152060   5.717   6.202   0.382  0.4586 -1.0086 -1.0301
10215TIP3    H252061   5.598   6.293   0.404  1.8033  0.3980  0.8054
10216TIP3   OH252062   5.371   4.175   2.694 -0.1321 -0.1796  0.4484
10216TIP3    H152063   5.460   4.139   2.687 -0.5275 -0.8597 -2.3620
10216TIP3    H252064   5.332   4.157   2.608 -3.0406 -0.0036  1.6525
10217TIP3   OH252065   0.882   5.194  16.226 -0.2793  0.0914 -0.2637
10217TIP3    H152066   0.816   5.264  16.223 -2.4933 -1.7187  1.9274
10217TIP3    H252067   0.860   5.137  16.152 -1.8215 -0.9321  0.9121
10218TIP3   OH252068   0.529   1.883   2.570  0.0997 -0.1686 -0.0395
10218TIP3    H152069   0.461   1.834   2.524  0.9093 -0.8846 -0.4968
10218TIP3    H252070   0.552   1.953   2.511  0.5003 -0.5528 -0.3432
10219TIP3   OH252071   3.483   6.545  12.335  0.1383  0.0991  0.1704
10219TIP3    H152072   3.469   6.471  12.394  1.1158 -0.4893 -0.3173
10219TIP3    H252073   3.471   6.509  12.247 -1.6492  1.0397 -0.0298
10220TIP3   OH252074   3.060   5.200   2.752  0.8487 -0.9274  0.2770
10220TIP3    H152075   3.083   5.107   2.746 -1.4174 -1.5684  0.7277
10220TIP3    H252076   2.991   5.212   2.687  0.7442  0.3122  0.5924
10221TIP3   OH252077   3.159   4.929   2.860 -0.1382  0.4281 -0.0051
10221TIP3    H152078   3.106   4.854   2.833 -0.0356  0.5160 -0.4572
10221TIP3    H252079   3.246   4.910   2.824  0.3906 -0.1494  1.4601
10222TIP3   OH252080   1.597   1.117   2.355 -0.0446 -0.3567 -0.2151
10222TIP3    H152081   1.607   1.048   2.421  1.1551 -0.3297 -0.3454
10222TIP3    H252082   1.524   1.087   2.300 -0.4101 -0.8573  0.5308
10223TIP3   OH252083   1.044   0.955  13.892 -0.5525 -0.2027  0.2249
10223TIP3    H152084   1.133   0.922  13.904 -1.4293 -3.6094 -1.3195
10223TIP3    H252085   1.035   0.965  13.797 -2.2681 -1.4432  0.2209
10224TIP3   OH252086   2.299   2.503   2.987  0.3413 -0.1701 -0.3003
10224TIP3    H152087   2.228   2.448   2.956 -0.1812  0.0566  0.4625
10224TIP3    H252088   2.365   2.499   2.917  0.4461 -1.9637 -0.1457
10225TIP3   OH252089   4.789   3.201   4.964 -0.1069 -0.1111  0.4919
10225TIP3    H152090   4.726   3.137   4.997  0.2736 -1.5417 -1.3378
10225TIP3    H252091   4.787   3.272   5.028 -2.6374 -0.6520  1.1407
10226TIP3   OH252092   5.405   0.002  15.827 -0.2637 -0.5343 -0.3448
10226TIP3    H152093   5.426   0.070  15.764  0.7906 -0.7990 -0.2898
10226TIP3    H252094   5.478  -0.060  15.822 -1.2287 -1.7098 -0.4516
10227TIP3   OH252095   3.506   0.083  11.774  0.5307  0.1757 -0.6161
10227TIP3    H152096   3.571   0.106  11.707 -0.8131  3.0858 -1.0741
10227TIP3    H252097   3.511   0.154  11.838 -0.6263 -0.7399  0.5457
10228TIP3   OH252098   4.938   1.196  16.324 -0.2318  0.2263  0.9509
10228TIP3    H152099   4.943   1.244  16.406  1.9205  0.8382  0.5282
10228TIP3    H252100   4.969   1.258  16.258 -0.5367 -0.7191 -0.1080
10229TIP3   OH252101   0.638   4.011  12.707 -0.1907  0.4931  0.0810
10229TIP3    H152102   0.680   4.095  12.725 -0.4018  0.5239  0.4409
10229TIP3    H252103   0.572   4.032  12.641 -0.4470  0.6711  0.3884
10230TIP3   OH252104   3.416   4.179   5.666 -0.4871 -0.1451  0.0432
10230TIP3    H152105   3.387   4.228   5.589  0.1846  0.3937  0.1159
10230TIP3    H252106   3.380   4.091   5.654  0.0424 -0.2234 -1.1575
10231TIP3   OH252107   4.031   1.189   0.115 -0.3839  0.5830 -0.0906
10231TIP3    H152108   4.076   1.263   0.157 -0.0140  0.5662 -0.4532
10231TIP3    H252109   4.093   1.117   0.122 -0.0654  0.7370 -1.2054
10232TIP3   OH252110   2.846   3.382   5.447 -0.5522  0.2561  0.0898
10232TIP3    H152111   2.865   3.455   5.505  1.6280  0.4625 -0.7654
10232TIP3    H252112   2.926   3.372   5.395 -0.5015 -3.0773  0.5559
10233TIP3   OH252113   6.467   5.911   2.643 -0.2363 -0.8042 -0.0856
10233TIP3    H152114   6.451   5.889   2.735  1.1559 -2.3430 -0.1687
10233TIP3    H252115   6.399   5.863   2.595 -0.1390 -1.0798  0.0517
10234TIP3   OH252116   4.213   6.456  15.561  0.1716 -0.3614 -0.0141
10234TIP3    H152117   4.149   6.417  15.621 -0.6850 -0.5441 -1.0314
10234TIP3    H252118   4.220   6.547  15.591  0.2238 -0.6025  0.7405
10235TIP3   OH252119   0.460   2.300  11.755  0.2345 -0.0626 -0.5239
10235TIP3    H152120   0.437   2.326  11.665 -0.9474  0.4734 -0.0793
10235TIP3    H252121   0.459   2.383  11.804 -3.3975 -0.7821  0.8950
10236TIP3   OH252122   1.820   6.291   5.152  0.0910 -0.6227 -0.4904
10236TIP3    H152123   1.806   6.342   5.072  3.0493 -0.1889 -0.8377
10236TIP3    H252124   1.811   6.200   5.123  0.1232 -0.4477 -1.0727
10237TIP3   OH252125   2.716   5.682  14.888 -0.3664 -0.7394  0.4854
10237TIP3    H152126   2.673   5.613  14.839 -0.6337 -0.3406  0.1512
10237TIP3    H252127   2.664   5.760  14.870  2.1244  0.4700 -2.4359
10238TIP3   OH252128   3.096   5.050   2.407 -0.0649 -0.2252  0.0384
10238TIP3    H152129   3.008   5.013   2.399 -0.0950 -0.1752  0.1472
10238TIP3    H252130   3.148   4.979   2.445 -0.1031 -0.1866  0.1637
10239TIP3   OH252131   1.263   1.528  16.345  0.1202  0.1996  0.0863
10239TIP3    H152132   1.203   1.489  16.408  0.5681  1.4917  1.3553
10239TIP3    H252133   1.309   1.453  16.306 -0.0805 -0.6091  1.3552
10240TIP3   OH252134   5.962   0.053   2.038  0.0830  0.0219 -0.0023
10240TIP3    H152135   6.056   0.043   2.030  0.2231  1.0295  0.3075
10240TIP3    H252136   5.928  -0.037   2.038  1.1657 -0.4187  1.3369
10241TIP3   OH252137   1.263   6.547   6.037  0.5849  0.1631  0.2558
10241TIP3    H152138   1.221   6.542   5.951  0.5546  0.4967  0.2534
10241TIP3    H252139   1.346   6.501   6.025  0.4008 -0.1491  0.1560
10242TIP3   OH252140   2.027   0.107   2.402  0.5507 -0.1698 -0.2527
10242TIP3    H152141   1.992   0.024   2.369 -4.8380 -0.1476  3.9725
10242TIP3    H252142   1.979   0.174   2.353  1.1025  0.2568 -0.2148
10243TIP3   OH252143   4.453   2.413  15.311 -0.1487 -0.3030 -0.7315
10243TIP3    H152144   4.529   2.395  15.366 -0.0340  1.3295 -0.2963
10243TIP3    H252145   4.442   2.508  15.316 -1.4502 -0.3660 -1.8109
10244TIP3   OH252146   2.523   5.377  13.702 -0.5482  0.5272 -0.0459
10244TIP3    H152147   2.542   5.470  13.687 -1.6236  0.6614 -0.6828
10244TIP3    H252148   2.504   5.372  13.795 -1.3467  1.1255 -0.1597
10245TIP3   OH252149   2.634   6.519  12.550  0.6078  0.4698  0.1552
10245TIP3    H152150   2.725   6.542  12.531  1.2023 -1.2399  0.7458
10245TIP3    H252151   2.603   6.473  12.471  0.5869  0.1912  0.3215
10246TIP3   OH252152   5.410   0.995   1.960  0.2016  0.1071  0.2467
10246TIP3    H152153   5.415   0.945   1.878  2.2948  1.0825 -0.3111
10246TIP3    H252154   5.349   0.946   2.015 -0.4762 -1.1300 -1.5207
10247TIP3   OH252155   4.992   6.198   5.080  0.5510 -0.3289  0.2719
10247TIP3    H152156   4.948   6.258   5.140 -0.1980  0.0560 -0.6371
10247TIP3    H252157   4.926   6.131   5.061  0.9207 -0.6799  0.2050
10248TIP3   OH252158   1.828   4.021   0.001  0.2221  0.3059 -0.3221
10248TIP3    H152159   1.843   4.089   0.066 -1.7184 -0.2264  0.7756
10248TIP3    H252160   1.777   4.064  -0.069  1.6743  0.6976 -1.1747
10249TIP3   OH252161   5.007   4.477  11.231  0.2741 -0.1029  0.3539
10249TIP3    H152162   4.945   4.413  11.195 -0.2916 -0.4178  1.8187
10249TIP3    H252163   5.086   4.466  11.178  0.0440 -1.7298  0.2727
10250TIP3   OH252164   3.160   4.792  14.480 -0.6862 -0.1086  0.2246
10250TIP3    H152165   3.078   4.787  14.430 -0.5926  0.5969 -0.0008
10250TIP3    H252166   3.222   4.835  14.421  0.4125 -2.3208 -0.3314
10251TIP3   OH252167   1.320   2.994  13.152  0.7001 -0.1909 -0.0494
10251TIP3    H152168   1.225   3.007  13.152  0.8390  0.9994  0.1247
10251TIP3    H252169   1.333   2.911  13.197 -0.2419 -0.1858  0.2597
10252TIP3   OH252170   3.827   6.356  11.001 -0.0653 -0.1110  0.2456
10252TIP3    H152171   3.827   6.451  10.987 -0.7583 -0.1643 -0.1515
10252TIP3    H252172   3.809   6.320  10.914 -0.2753 -0.5944  0.4892
10253TIP3   OH252173   0.956   0.976   2.296 -0.5055  0.5856  0.3403
10253TIP3    H152174   0.862   0.988   2.282 -0.6603 -0.8088  0.0156
10253TIP3    H252175   0.962   0.906   2.360  0.3012 -0.9328 -1.3242
10254TIP3   OH252176   1.775   1.400   2.284  0.2651  0.8628  0.1537
10254TIP3    H152177   1.861   1.378   2.320  1.0079  3.4642  0.1745
10254TIP3    H252178   1.714   1.381   2.355  0.5979 -2.0177 -0.2084
10255TIP3   OH252179   4.940   3.227  13.445  0.2356 -0.5851  0.2830
10255TIP3    H152180   4.999   3.296  13.417  0.1530  0.0425  1.5816
10255TIP3    H252181   4.866   3.273  13.485  0.3238 -1.4012  1.4555
10256TIP3   OH252182   0.620   0.546  16.440  0.0245 -0.3099 -0.7090
10256TIP3    H152183   0.616   0.596  16.359 -0.2167  2.3307  0.8290
10256TIP3    H252184   0.705   0.503  16.438  0.2068  0.0915 -2.1264
10257TIP3   OH252185   3.389   0.922  14.963 -0.0954 -0.1074 -0.3056
10257TIP3    H152186   3.333   1.000  14.960 -0.5754 -0.4206  0.3820
10257TIP3    H252187   3.466   0.950  15.012  0.5109  0.4082 -1.4979
10258TIP3   OH252188   5.404   5.187   5.080  0.1169 -0.4124 -0.1045
10258TIP3    H152189   5.435   5.170   5.169 -2.2543 -0.1792  0.8349
10258TIP3    H252190   5.441   5.273   5.058  0.6330 -0.4148  0.7054
10259TIP3   OH252191   1.972   4.271  14.495 -0.1952  0.0973  0.0991
10259TIP3    H152192   1.965   4.184  14.455  1.2798 -1.2363  2.5170
10259TIP3    H252193   2.031   4.319  14.437 -0.3250 -0.7997 -0.8076
10260TIP3   OH252194   4.562   1.150  14.373  0.1739 -0.1077  0.3432
10260TIP3    H152195   4.622   1.197  14.431  1.7470 -1.9418  0.3007
10260TIP3    H252196   4.475   1.178  14.401  0.9796  1.2878  1.6140
10261TIP3   OH252197   0.370   4.862   5.589 -0.2512 -0.0432 -0.0296
10261TIP3    H152198   0.396   4.893   5.502  0.4994  0.6807  0.4264
10261TIP3    H252199   0.390   4.769   5.589 -1.6870 -0.3811 -1.1338
10262TIP3   OH252200   1.385   6.463   0.127 -0.5469 -0.1283  0.0383
10262TIP3    H152201   1.393   6.521   0.051  0.3604  1.2914  1.1760
10262TIP3    H252202   1.391   6.521   0.203  0.0528 -1.6620  1.2173
10263TIP3   OH252203   1.089   5.466   0.683 -0.1581 -0.0105 -0.6627
10263TIP3    H152204   0.996   5.448   0.692 -0.4860  2.1366  1.3631
10263TIP3    H252205   1.127   5.437   0.766  0.9703 -0.7066 -1.3989
10264TIP3   OH252206   4.742   1.321   3.158 -0.2895 -0.2423 -0.2906
10264TIP3    H152207   4.760   1.378   3.233 -0.1890 -0.5004 -0.1165
10264TIP3    H252208   4.647   1.315   3.155 -0.3149  0.2615 -0.5574
10265TIP3   OH252209   5.162   3.226  15.928 -0.1143 -0.0812 -0.0420
10265TIP3    H152210   5.182   3.319  15.936 -0.3943 -0.0736  0.6420
10265TIP3    H252211   5.070   3.218  15.953 -0.3981 -0.4055 -1.1296
10266TIP3   OH252212   0.269   6.563   1.289 -0.6135  0.6819 -0.4618
10266TIP3    H152213   0.319   6.522   1.359 -0.4379  1.7444  0.0533
10266TIP3    H252214   0.222   6.491   1.247  0.9482 -0.2659 -0.6410
10267TIP3   OH252215   4.920   3.481   4.948  0.7265  0.2721  0.1225
10267TIP3    H152216   4.984   3.409   4.953 -1.2343 -1.7111 -1.3300
10267TIP3    H252217   4.938   3.522   4.863  0.6318  0.2555  0.0942
10268TIP3   OH252218   4.676   0.507  16.644  0.1265  0.4722 -0.2793
10268TIP3    H152219   4.638   0.458  16.717  0.0365 -0.0813 -0.6901
10268TIP3    H252220   4.652   0.598  16.661 -3.7662 -0.0778 -1.8799
10269TIP3   OH252221   0.953   2.735   6.063 -0.2454 -0.1426 -0.1287
10269TIP3    H152222   0.983   2.825   6.078 -1.1087  0.1211  0.0715
10269TIP3    H252223   0.996   2.683   6.131  1.2399 -0.1047 -0.9973
10270TIP3   OH252224   6.336   0.447  14.112  0.0824  0.5667 -0.6548
10270TIP3    H152225   6.250   0.460  14.150 -0.1807 -0.3697 -0.8990
10270TIP3    H252226   6.386   0.401  14.180 -0.1200 -0.3286 -1.0961
10271TIP3   OH252227   2.734   6.581   2.221 -0.1692  0.0217  0.0781
10271TIP3    H152228   2.670   6.632   2.171  0.1039  1.7993  1.4540
10271TIP3    H252229   2.805   6.643   2.240  0.2328 -0.8863  1.7329
10272TIP3   OH252230   5.748   0.170   5.016  0.0145 -0.2374 -0.0843
10272TIP3    H152231   5.689   0.140   4.947 -1.7930  0.3709  1.1391
10272TIP3    H252232   5.757   0.095   5.075 -1.4473  0.3667  0.9549
10273TIP3   OH252233   0.696   5.168   4.929  0.6315  0.7094 -0.1030
10273TIP3    H152234   0.649   5.249   4.950  0.5346  0.8359 -0.7803
10273TIP3    H252235   0.706   5.171   4.834 -1.7596 -1.3171 -0.5312
10274TIP3   OH252236   4.319   5.768   0.537 -0.1826 -0.0511 -0.0261
10274TIP3    H152237   4.407   5.768   0.499 -0.4107  2.6801 -0.8056
10274TIP3    H252238   4.262   5.798   0.466 -0.9334  3.2815  1.7624
10275TIP3   OH252239   0.558   1.833  11.777  0.7598 -0.6664  0.1615
10275TIP3    H152240   0.471   1.811  11.809  0.9844 -1.5650  0.1768
10275TIP3    H252241   0.543   1.873  11.691  0.3165 -0.5104  0.3104
10276TIP3   OH252242   3.722   2.132   0.742 -0.5063  0.4257 -0.2667
10276TIP3    H152243   3.756   2.221   0.744 -0.0346  0.3501 -2.5508
10276TIP3    H252244   3.794   2.079   0.709 -0.5395 -0.9832  1.7084
10277TIP3   OH252245   4.467   0.386  15.472  0.7725 -0.1868  0.1065
10277TIP3    H152246   4.526   0.372  15.398 -0.3341  2.3159 -1.3676
10277TIP3    H252247   4.526   0.407  15.545  1.7995  0.1330 -0.7804
10278TIP3   OH252248   3.525   5.498  14.540  0.5640  0.8155  0.3351
10278TIP3    H152249   3.480   5.554  14.477  0.2010  1.5205  1.2013
10278TIP3    H252250   3.551   5.557  14.610  0.2157 -0.0863  1.2526
10279TIP3   OH252251   2.244   5.510   3.502 -0.5938  0.0383  0.2158
10279TIP3    H152252   2.176   5.460   3.456 -1.0305 -0.2076  1.1193
10279TIP3    H252253   2.259   5.586   3.445 -1.2263 -0.1843 -0.2672
10280TIP3   OH252254   2.064   6.392  15.355  0.3203 -0.4125  0.3528
10280TIP3    H152255   2.116   6.341  15.417 -0.3459 -1.0325  0.4119
10280TIP3    H252256   2.129   6.443  15.305  0.8884 -0.1850  1.2963
10281TIP3   OH252257   1.356   6.092  13.988  0.2573  0.9500 -0.2238
10281TIP3    H152258   1.300   6.018  14.013  2.1074 -0.3826  0.2497
10281TIP3    H252259   1.316   6.168  14.030 -3.6318  0.9808 -3.4145
10282TIP3   OH252260   2.983   0.724  13.194 -0.5043 -0.4032 -0.1038
10282TIP3    H152261   2.970   0.761  13.106 -0.6279  0.5195  0.2867
10282TIP3    H252262   2.936   0.641  13.193  1.9724 -1.9540 -1.8917
10283TIP3   OH252263   2.586   5.318  11.108  0.3154 -0.3876  0.2402
10283TIP3    H152264   2.507   5.357  11.069 -1.4005 -1.9004  1.9933
10283TIP3    H252265   2.615   5.253  11.044  0.5117  0.5751 -0.6728
10284TIP3   OH252266   1.078   4.473  12.252 -0.7014  0.1925  0.3231
10284TIP3    H152267   1.107   4.422  12.176 -1.2200 -0.2958  0.4461
10284TIP3    H252268   1.014   4.535  12.217  1.5218  2.3445 -0.2305
10285TIP3   OH252269   4.390   4.163   6.055 -0.0985 -0.4877 -0.3544
10285TIP3    H152270   4.478   4.194   6.035  0.8075 -3.1497 -0.8938
10285TIP3    H252271   4.403   4.078   6.098 -2.3816 -0.4110  0.6650
10286TIP3   OH252272   1.757   0.655   5.609  0.6700  0.1857  0.0014
10286TIP3    H152273   1.800   0.675   5.525  2.8486 -0.6082  0.8483
10286TIP3    H252274   1.689   0.591   5.586 -1.3370  2.7013 -1.6249
10287TIP3   OH252275   2.636   3.721  13.459 -0.4450  0.0906  0.2037
10287TIP3    H152276   2.581   3.654  13.419 -2.1113  0.3962  1.8198
10287TIP3    H252277   2.672   3.679  13.537  1.8471 -0.1569 -0.9292
10288TIP3   OH252278   2.088   2.490  11.306 -0.3160 -0.7363  0.3431
10288TIP3    H152279   2.089   2.395  11.290 -1.8232 -0.8589  0.7648
10288TIP3    H252280   2.068   2.498  11.400  0.0239  0.0038  0.3571
10289TIP3   OH252281   3.411   0.703   0.220 -0.2456 -0.1955 -0.0467
10289TIP3    H152282   3.398   0.608   0.230  0.9475 -0.3503  0.1251
10289TIP3    H252283   3.485   0.710   0.159  2.3012  0.5373  2.8901
10290TIP3   OH252284   4.046   5.466   1.582  0.5042 -0.3692  0.3976
10290TIP3    H152285   4.059   5.547   1.533 -0.3250 -1.4862 -1.7862
10290TIP3    H252286   4.009   5.405   1.519  0.7547 -2.3676  2.0689
10291TIP3   OH252287   5.248   4.330   4.049 -0.2173 -0.4860  0.1039
10291TIP3    H152288   5.296   4.300   3.971 -0.6492 -0.5038 -0.1603
10291TIP3    H252289   5.165   4.283   4.044 -1.2035  1.2661 -0.6973
10292TIP3   OH252290   1.878   2.218   0.518 -0.2979  0.1597 -0.6928
10292TIP3    H152291   1.963   2.191   0.483 -0.3949 -1.5046  0.2516
10292TIP3    H252292   1.883   2.313   0.523  3.0377  0.0405  2.8730
10293TIP3   OH252293   0.152   2.934  11.084  0.4195  0.2820  0.4369
10293TIP3    H152294   0.157   2.937  10.989 -0.4048 -1.5091  0.2977
10293TIP3    H252295   0.178   2.845  11.107 -0.2188  0.4239  1.8356
10294TIP3   OH252296   4.581   3.501  14.049  0.2466 -0.4397 -0.1450
10294TIP3    H152297   4.530   3.536  14.121  1.3349  0.6113  0.1549
10294TIP3    H252298   4.534   3.529  13.970  0.0837  0.0656  0.1272
10295TIP3   OH252299   6.457   1.384   5.108  0.1407  0.0698 -0.3609
10295TIP3    H152300   6.445   1.308   5.166 -0.5887 -0.3573 -1.0462
10295TIP3    H252301   6.368   1.418   5.096  0.5514  1.6633  0.7393
10296TIP3   OH252302   4.908   4.693   1.747  0.0756  0.1791 -0.0105
10296TIP3    H152303   4.843   4.623   1.744  0.1122  0.1505 -0.1441
10296TIP3    H252304   4.877   4.756   1.682 -0.4229  0.6918  0.7043
10297TIP3   OH252305   6.113   5.011   1.246 -0.3849  1.0347 -0.5088
10297TIP3    H152306   6.059   5.076   1.201  0.2448  2.4872  0.7572
10297TIP3    H252307   6.163   5.061   1.311  1.6279 -0.4098 -0.8389
10298TIP3   OH252308   0.305   0.174  14.915 -0.2354 -0.0709 -0.4719
10298TIP3    H152309   0.325   0.202  14.826 -0.4432 -0.5678 -0.6757
10298TIP3    H252310   0.275   0.083  14.906 -0.0297 -0.2034  0.1273
10299TIP3   OH252311   4.492   1.880  13.410 -0.1538 -0.1343 -0.4958
10299TIP3    H152312   4.556   1.853  13.345  0.1785  0.8091 -0.5723
10299TIP3    H252313   4.408   1.852  13.374  0.2323 -1.9244 -0.1147
10300TIP3   OH252314   1.561   2.370  16.195 -0.3142 -0.1780 -0.5761
10300TIP3    H152315   1.612   2.418  16.129  0.9484 -1.0695 -0.2818
10300TIP3    H252316   1.474   2.410  16.191  0.0267  0.5111 -2.0224
10301TIP3   OH252317   5.847   5.849   4.019  0.5477  0.4258  0.2544
10301TIP3    H152318   5.900   5.854   4.100 -0.2066  0.5022  0.7529
10301TIP3    H252319   5.768   5.899   4.040  0.4329  0.6047 -0.6074
10302TIP3   OH252320   2.043   2.507   3.213  0.2245  0.1985 -0.1216
10302TIP3    H152321   2.135   2.501   3.241 -0.0466 -0.2570  0.7070
10302TIP3    H252322   2.012   2.416   3.216 -0.3647  0.4061 -0.0175
10303TIP3   OH252323   0.104   0.546  12.510  0.1940 -0.4604 -0.1278
10303TIP3    H152324   0.151   0.529  12.592 -0.5612  0.4206  0.5143
10303TIP3    H252325   0.012   0.532  12.532 -0.5238  3.7014  0.4132
10304TIP3   OH252326   3.175   4.935  13.511 -0.0488  0.3235  0.5588
10304TIP3    H152327   3.207   4.934  13.420  1.0202 -0.4484  0.9297
10304TIP3    H252328   3.244   4.893  13.561 -1.5194 -1.1473  1.4519
10305TIP3   OH252329   0.909   1.461   3.048  0.8575  0.3021 -0.7230
10305TIP3    H152330   0.834   1.485   2.993  1.7498 -0.8504 -2.5076
10305TIP3    H252331   0.873   1.398   3.111  0.0140  0.9770 -0.4989
10306TIP3   OH252332   3.977   6.190   2.612 -0.4217  0.0801 -0.2460
10306TIP3    H152333   3.906   6.137   2.577 -0.3546 -0.9673  1.1094
10306TIP3    H252334   3.962   6.191   2.706  0.7921  0.6917 -0.0378
10307TIP3   OH252335   5.238   6.627  17.115 -0.1193 -0.1287  0.3845
10307TIP3    H152336   5.254   6.625  17.021  0.9517 -0.9410  0.5573
10307TIP3    H252337   5.143   6.628  17.124 -0.2515  1.4975 -0.7047
10308TIP3   OH252338   1.683   5.853  13.226 -0.5696  0.0676 -0.3259
10308TIP3    H152339   1.630   5.909  13.168  1.0428  2.5154  0.3717
10308TIP3    H252340   1.638   5.856  13.310 -1.7419 -1.7100 -0.8349
10309TIP3   OH252341   3.527   4.600   3.172 -0.2368  0.3830  0.3294
10309TIP3    H152342   3.468   4.591   3.098 -0.8381  1.8329  0.6018
10309TIP3    H252343   3.583   4.674   3.150  1.0607 -0.5449  0.3757
10310TIP3   OH252344   4.041   2.910  12.158 -0.0863 -0.2511 -0.0710
10310TIP3    H152345   3.961   2.943  12.119  0.4671  0.2609 -0.8035
10310TIP3    H252346   4.036   2.815  12.148 -1.2259 -0.3465  1.1444
10311TIP3   OH252347   4.978   0.718   3.598 -0.3749 -0.2605  0.2538
10311TIP3    H152348   4.924   0.727   3.676 -3.4355  0.2809 -1.7439
10311TIP3    H252349   4.989   0.808   3.565  1.6169 -0.3844  0.4448
10312TIP3   OH252350   5.781   2.019   2.195 -0.2905  0.4096 -0.3388
10312TIP3    H152351   5.689   2.018   2.170 -0.4332 -2.7691 -0.0078
10312TIP3    H252352   5.828   2.030   2.112 -0.9509 -0.9575 -0.9257
10313TIP3   OH252353   1.611   2.425   3.942 -0.5385  0.1239  0.1834
10313TIP3    H152354   1.562   2.358   3.989 -1.1057  0.0545 -0.4874
10313TIP3    H252355   1.557   2.504   3.950 -0.7680  0.0511 -0.5457
10314TIP3   OH252356   4.696   5.471   1.383  0.1659 -0.0895 -0.5348
10314TIP3    H152357   4.708   5.381   1.415 -0.3382  0.6405  1.8450
10314TIP3    H252358   4.762   5.522   1.428  0.1778  0.8455 -1.5699
10315TIP3   OH252359   5.774   1.678   0.550 -0.0297  0.3947 -0.0723
10315TIP3    H152360   5.856   1.700   0.593  0.4089 -0.3806 -0.4829
10315TIP3    H252361   5.768   1.582   0.556 -0.9071  0.4366 -0.0460
10316TIP3   OH252362   1.472   4.210  12.090 -0.6004 -0.2003  0.0363
10316TIP3    H152363   1.496   4.287  12.038  1.4924 -0.0302  1.1550
10316TIP3    H252364   1.537   4.144  12.067 -1.0976 -0.9277  0.6626
10317TIP3   OH252365   1.487   2.285   4.385  0.7967 -0.4699 -0.3225
10317TIP3    H152366   1.546   2.291   4.310 -1.4772 -0.2218 -2.2199
10317TIP3    H252367   1.489   2.192   4.409  1.4490 -0.5810 -0.7736
10318TIP3   OH252368   0.851   3.962  16.793  0.1441  0.3424  0.1052
10318TIP3    H152369   0.827   4.054  16.783 -0.8884  0.0929  0.1931
10318TIP3    H252370   0.779   3.913  16.753  1.0021 -0.4262 -0.5536
10319TIP3   OH252371   3.313   6.710  12.015 -0.5157 -0.4396  0.3138
10319TIP3    H152372   3.403   6.675  12.014 -0.5838 -0.6491 -1.7449
10319TIP3    H252373   3.322   6.796  12.056  1.2528  0.9574 -2.6796
10320TIP3   OH252374   4.215   1.390   5.924  0.8006  0.0931 -0.0207
10320TIP3    H152375   4.302   1.383   5.964  0.9580 -0.3249 -0.4349
10320TIP3    H252376   4.167   1.316   5.960 -0.1248  1.5716  1.9953
10321TIP3   OH252377   0.111   1.944   2.313 -0.2188 -0.2448  0.4096
10321TIP3    H152378   0.137   2.007   2.381 -0.9069  1.3985 -0.7701
10321TIP3    H252379   0.178   1.876   2.316 -0.5531 -0.5699  3.1211
10322TIP3   OH252380   5.791   2.196   6.190 -0.0171  0.5069  0.2647
10322TIP3    H152381   5.709   2.245   6.185 -0.1860  0.1950 -0.0337
10322TIP3    H252382   5.765   2.104   6.179  0.4722  0.4868 -0.8108
10323TIP3   OH252383   1.593   0.935   6.850  0.4382  0.5423  0.0230
10323TIP3    H152384   1.679   0.947   6.809  1.1974 -1.0257  1.0567
10323TIP3    H252385   1.552   0.864   6.800 -0.6115  1.7936 -0.9508
10324TIP3   OH252386   4.657   1.315   3.492 -0.4724  0.1166 -0.5253
10324TIP3    H152387   4.632   1.408   3.493  0.3961  0.5052  3.6540
10324TIP3    H252388   4.744   1.314   3.453 -0.6202  1.0127 -0.8986
10325TIP3   OH252389   6.448   1.107   2.646 -0.3217 -0.4369 -0.1711
10325TIP3    H152390   6.491   1.034   2.601  0.7096  0.2890 -0.3874
10325TIP3    H252391   6.360   1.108   2.609  0.2558 -0.3560 -1.6348
10326TIP3   OH252392   5.963   2.905   3.381  0.0546  0.5636 -0.3153
10326TIP3    H152393   5.991   2.842   3.314 -2.2484  0.0784 -0.9168
10326TIP3    H252394   5.927   2.850   3.451  1.5414  1.1159  0.9544
10327TIP3   OH252395   4.161   5.550   0.334 -0.2833  0.1353  0.1048
10327TIP3    H152396   4.116   5.468   0.354 -0.9978  0.1161 -1.4125
10327TIP3    H252397   4.150   5.603   0.414 -0.9995 -0.7369  0.6094
10328TIP3   OH252398   5.036   1.145  15.780  0.2198  0.3504  0.2177
10328TIP3    H152399   4.954   1.179  15.815  0.3881 -1.1391  2.2900
10328TIP3    H252400   5.019   1.051  15.767  1.2687  0.2239 -0.3775
10329TIP3   OH252401   4.135   2.085   0.905 -0.2879 -0.3323 -0.0420
10329TIP3    H152402   4.205   2.069   0.968 -2.4482 -2.0811  2.1017
10329TIP3    H252403   4.082   2.154   0.946 -1.5340 -1.2506 -0.0633
10330TIP3   OH252404   4.708   0.384   0.928 -0.1133 -0.1730  0.2709
10330TIP3    H152405   4.691   0.302   0.974  1.2706 -0.1710  0.8289
10330TIP3    H252406   4.781   0.424   0.976 -0.9544  1.5492  0.2215
10331TIP3   OH252407   6.593   5.939  16.744  0.6895 -0.5969  0.3943
10331TIP3    H152408   6.555   5.971  16.661 -0.4002  1.9803  1.7607
10331TIP3    H252409   6.663   6.001  16.763 -1.5474  1.3509  3.2077
10332TIP3   OH252410   1.372   4.992  10.968  0.5989  0.1798 -0.0759
10332TIP3    H152411   1.353   5.085  10.950  2.9524  0.2648 -2.9801
10332TIP3    H252412   1.315   4.945  10.907  0.5092 -0.2091  0.3105
10333TIP3   OH252413   6.211   5.041  15.730 -0.7262 -0.6859 -0.3724
10333TIP3    H152414   6.181   5.020  15.819 -1.2114 -1.4761 -0.7110
10333TIP3    H252415   6.179   4.968  15.677 -0.3248 -0.2809 -1.1748
10334TIP3   OH252416   2.205   3.366  16.287  0.0089  0.3236  0.1239
10334TIP3    H152417   2.236   3.300  16.224 -0.2457 -1.0461  1.3898
10334TIP3    H252418   2.142   3.418  16.237  1.7341  0.9699 -1.5088
10335TIP3   OH252419   3.658   0.737   0.118  0.0787  0.1039 -0.3883
10335TIP3    H152420   3.697   0.799   0.056  0.7688 -0.2757 -0.3475
10335TIP3    H252421   3.729   0.675   0.136 -0.1521  0.1415  0.6866
10336TIP3   OH252422   1.942   2.800   1.433  0.0313  0.3129  0.0219
10336TIP3    H152423   2.009   2.849   1.483 -0.9656  1.2085  0.5171
10336TIP3    H252424   1.873   2.782   1.497 -0.0602 -0.9266 -0.3960
10337TIP3   OH252425   6.028   4.048   1.833 -0.2783  0.4929  0.9264
10337TIP3    H152426   6.068   4.108   1.771  0.9323 -0.8733  0.3325
10337TIP3    H252427   6.064   4.073   1.918  1.4124 -0.3197  0.4807
10338TIP3   OH252428   3.857   4.050  16.696 -0.2931 -0.4822 -0.1909
10338TIP3    H152429   3.882   4.136  16.662 -1.1611 -0.1416  0.0118
10338TIP3    H252430   3.806   4.010  16.626  0.1477 -0.8624 -0.3045
10339TIP3   OH252431   4.067   3.852  13.999 -0.6192 -0.2754 -0.1102
10339TIP3    H152432   3.981   3.895  13.994 -1.1051 -1.3257 -1.2595
10339TIP3    H252433   4.060   3.794  14.074 -1.0267 -0.5790 -0.3780
10340TIP3   OH252434   5.271   5.723   3.623 -0.0281 -0.3311  0.0222
10340TIP3    H152435   5.269   5.638   3.579  0.2691 -0.6017  0.5140
10340TIP3    H252436   5.181   5.755   3.617 -0.6250 -1.5852  1.5083
10341TIP3   OH252437   1.211   2.656  15.563 -0.1413 -0.0724  0.2935
10341TIP3    H152438   1.269   2.583  15.542 -2.1619 -1.5991 -0.2685
10341TIP3    H252439   1.226   2.673  15.656  1.7229  0.0999 -0.0111
10342TIP3   OH252440   3.108   0.576   0.228 -0.1756 -0.1180  0.1538
10342TIP3    H152441   3.118   0.664   0.265 -0.7764  0.5199 -1.1069
10342TIP3    H252442   3.186   0.529   0.256 -0.5275  0.3405  2.0882
10343TIP3   OH252443   1.171   4.773  11.892  0.7366  0.5172  0.1276
10343TIP3    H152444   1.246   4.760  11.949  1.1179  1.2846 -0.1819
10343TIP3    H252445   1.208   4.796  11.807  0.1756 -0.6415 -0.4479
10344TIP3   OH252446   3.197   5.439  13.267  0.5780  0.6756  0.0110
10344TIP3    H152447   3.139   5.410  13.198  2.0366 -0.0149 -0.9796
10344TIP3    H252448   3.156   5.409  13.348 -1.5610  2.1817 -0.4245
10345TIP3   OH252449   2.099   5.038  15.957  1.1126  0.3408  0.2674
10345TIP3    H152450   2.073   5.014  15.868  0.0104  0.2923  0.5859
10345TIP3    H252451   2.095   5.134  15.958  0.9197  0.3319  0.3255
10346TIP3   OH252452   5.863   2.187  12.726  0.4304  0.5062 -0.3736
10346TIP3    H152453   5.815   2.105  12.715 -1.2392  1.2867  0.5780
10346TIP3    H252454   5.925   2.169  12.797  0.7845 -0.2051 -0.8516
10347TIP3   OH252455   5.429   1.963   3.596 -0.2987 -0.6774  0.2090
10347TIP3    H152456   5.412   1.869   3.592  2.4185 -1.2362 -0.2612
10347TIP3    H252457   5.494   1.973   3.665 -0.5399  0.8696  0.2436
10348TIP3   OH252458   1.575   0.011   0.152 -0.1018 -0.1257 -0.0741
10348TIP3    H152459   1.527  -0.022   0.076 -0.6544  1.0857 -0.2844
10348TIP3    H252460   1.580   0.106   0.138  1.6475 -0.1196  0.3700
10349TIP3   OH252461   5.031   0.024  10.835 -0.2974  0.1076 -0.1883
10349TIP3    H152462   5.077   0.055  10.913 -1.9840  0.8660  0.5400
10349TIP3    H252463   4.975   0.097  10.810 -0.4665 -0.4661 -1.5905
10350TIP3   OH252464   2.582   4.009  14.116 -0.1867  0.0595 -0.6989
10350TIP3    H152465   2.613   3.918  14.118 -0.5271 -0.0945 -1.8334
10350TIP3    H252466   2.512   4.012  14.182 -1.3326 -0.9527 -1.8280
10351TIP3   OH252467   5.173   4.216  11.908 -0.1762 -0.4862  0.4802
10351TIP3    H152468   5.227   4.151  11.952 -0.1807 -0.8132 -0.0016
10351TIP3    H252469   5.124   4.258  11.979  1.0050  0.1082  0.9803
10352TIP3   OH252470   5.307   1.628   1.383 -0.1608  0.1218  0.4902
10352TIP3    H152471   5.356   1.607   1.463  1.3794 -3.0856 -1.1196
10352TIP3    H252472   5.348   1.708   1.350 -0.3347  1.0830  2.4530
10353TIP3   OH252473   0.803   2.902   6.682 -0.0805  0.1944  0.5821
10353TIP3    H152474   0.793   2.882   6.775 -1.9392  2.6295  1.0009
10353TIP3    H252475   0.841   2.990   6.680  0.1730  0.0782 -0.9894
10354TIP3   OH252476   2.542   3.686  15.313 -0.1862  0.2502  0.0286
10354TIP3    H152477   2.521   3.766  15.361  1.2867  1.1837 -0.8331
10354TIP3    H252478   2.623   3.706  15.266 -0.3276 -1.4147 -1.0050
10355TIP3   OH252479   0.080   5.763   2.112  0.1911 -0.2307  0.1236
10355TIP3    H152480   0.062   5.683   2.162 -1.2648 -0.3238 -0.4970
10355TIP3    H252481   0.175   5.771   2.112  0.4973 -2.9641 -1.3283
10356TIP3   OH252482   1.652   3.973   1.517 -0.2156 -0.2066 -0.1803
10356TIP3    H152483   1.645   4.020   1.434 -0.4490 -0.8631 -0.5410
10356TIP3    H252484   1.564   3.978   1.554 -0.2289 -0.3078 -0.1967
10357TIP3   OH252485   3.819   5.701   0.987  0.0728 -0.2911  0.6717
10357TIP3    H152486   3.745   5.668   0.936  0.3990 -0.2516  0.1576
10357TIP3    H252487   3.860   5.766   0.929  0.8647 -0.7541  0.6968
10358TIP3   OH252488   3.152   4.703  12.383  0.1095  0.2446  0.3285
10358TIP3    H152489   3.102   4.782  12.402 -0.1613  0.3583 -0.7925
10358TIP3    H252490   3.130   4.682  12.293  0.4480 -0.9197  0.5057
10359TIP3   OH252491   4.580   3.793   1.620 -0.0906  0.1874  0.0595
10359TIP3    H152492   4.548   3.807   1.709  0.2055 -0.0496  0.2066
10359TIP3    H252493   4.602   3.880   1.588  1.0724  0.1580  0.7104
10360TIP3   OH252494   2.967   2.730   2.823 -0.1438 -0.3682 -0.1232
10360TIP3    H152495   2.977   2.794   2.893 -0.5703  0.4889 -0.8285
10360TIP3    H252496   3.053   2.727   2.780 -0.1633 -0.1612 -0.1767
10361TIP3   OH252497   5.323   3.385  16.253 -0.0943 -0.6584 -0.0483
10361TIP3    H152498   5.398   3.355  16.202 -0.2288 -1.9057  0.4667
10361TIP3    H252499   5.284   3.306  16.289 -1.2392  0.0280  0.2937
10362TIP3   OH252500   2.861   2.084   1.081  0.6519 -0.8327 -0.6670
10362TIP3    H152501   2.852   2.031   1.002  0.0426  0.1110 -1.2458
10362TIP3    H252502   2.945   2.057   1.118  1.5728 -0.4086 -2.3324
10363TIP3   OH252503   4.283   5.520  17.007 -0.4077  0.4700 -0.6792
10363TIP3    H152504   4.285   5.427  16.984 -0.8480  0.5641 -1.1167
10363TIP3    H252505   4.214   5.529  17.072  1.8280 -0.0527  1.9757
10364TIP3   OH252506   0.347   5.222   2.120 -0.0115 -0.2161  0.4756
10364TIP3    H152507   0.352   5.229   2.215 -0.8358  0.8797  0.4577
10364TIP3    H252508   0.423   5.271   2.089  0.3870 -0.7693  0.5664
10365TIP3   OH252509   2.730   4.279  12.051 -0.4004 -0.0869 -0.3989
10365TIP3    H152510   2.783   4.356  12.073  0.3546 -0.3525 -1.2429
10365TIP3    H252511   2.792   4.206  12.056 -0.8087 -0.4692 -0.9000
10366TIP3   OH252512   6.636   2.516  17.233  0.4239  0.7946  0.7353
10366TIP3    H152513   6.619   2.521  17.139 -2.6718 -0.6769  1.0800
10366TIP3    H252514   6.641   2.422  17.251  0.2172  1.0278  2.1458
10367TIP3   OH252515   6.006   6.713  15.937  0.2012 -0.4639 -0.0263
10367TIP3    H152516   6.072   6.659  15.981  0.3631  0.2366  0.6072
10367TIP3    H252517   6.013   6.798  15.979 -0.9242 -0.3015 -0.1465
10368TIP3   OH252518   4.624   6.258  12.010 -0.0393 -0.3089  0.3951
10368TIP3    H152519   4.545   6.277  12.060 -0.2105 -0.0931  0.0445
10368TIP3    H252520   4.612   6.169  11.978 -1.1728  0.4983 -1.5564
10369TIP3   OH252521   3.727   0.342   0.961  0.5318  0.2213  0.2739
10369TIP3    H152522   3.677   0.264   0.939  0.3522  0.8483 -1.7332
10369TIP3    H252523   3.683   0.413   0.914  2.2413  1.0788 -0.1009
10370TIP3   OH252524   6.067   0.937  10.572 -0.9579  0.4219 -0.0972
10370TIP3    H152525   5.995   0.994  10.544 -1.4979  0.7084  1.7609
10370TIP3    H252526   6.040   0.850  10.543 -0.7184  0.8753 -1.8418
10371TIP3   OH252527   1.239   1.497  13.409  0.2291  0.1328 -0.6100
10371TIP3    H152528   1.267   1.574  13.458 -1.4637  2.5004 -3.0859
10371TIP3    H252529   1.277   1.508  13.322 -1.4699 -0.8723 -1.5332
10372TIP3   OH252530   5.320   4.844  11.167 -0.1797  0.4410  0.0748
10372TIP3    H152531   5.278   4.903  11.104 -0.6110  0.0002 -0.0498
10372TIP3    H252532   5.383   4.794  11.115 -0.2893  0.3194  0.0608
10373TIP3   OH252533   4.601   0.319  11.242 -0.1964 -0.5939 -0.2200
10373TIP3    H152534   4.530   0.306  11.179  0.2241 -1.3781 -0.5521
10373TIP3    H252535   4.671   0.360  11.191 -0.9710  1.7887  0.4852
10374TIP3   OH252536   3.292   0.884   3.042 -0.0376  0.1460  0.1692
10374TIP3    H152537   3.297   0.819   2.972 -2.5234  1.5870 -1.5211
10374TIP3    H252538   3.333   0.962   3.006 -1.9020  1.0989 -0.0361
10375TIP3   OH252539   2.634   6.223   1.931  0.5411  0.5742 -0.6232
10375TIP3    H152540   2.637   6.209   2.025  1.4355 -0.5063 -0.7926
10375TIP3    H252541   2.545   6.253   1.914  0.5249  1.3009  0.6237
10376TIP3   OH252542   3.738   5.380   4.517 -0.2119 -0.5960 -0.5836
10376TIP3    H152543   3.695   5.461   4.491 -0.4995 -0.0134  1.5138
10376TIP3    H252544   3.828   5.391   4.489  0.5305  1.8445  2.1787
10377TIP3   OH252545   5.235   2.125   6.011 -0.0308  0.2841  0.1327
10377TIP3    H152546   5.315   2.176   6.005  0.5624 -0.4855  1.1567
10377TIP3    H252547   5.176   2.164   5.946  0.6308  1.8272  0.4196
10378TIP3   OH252548   3.715   4.749   3.898  0.3981  0.2329 -0.4232
10378TIP3    H152549   3.623   4.730   3.914  0.3450  0.4330 -0.4853
10378TIP3    H252550   3.744   4.796   3.976  0.7557 -0.8480  0.1131
10379TIP3   OH252551   3.570   0.309  11.957  0.3401  0.0718 -0.2542
10379TIP3    H152552   3.662   0.335  11.953  0.4301 -0.3247 -1.1437
10379TIP3    H252553   3.522   0.391  11.956  0.6973  0.3314  1.6179
10380TIP3   OH252554   5.956   6.473  16.257  0.2026 -0.5804  0.1400
10380TIP3    H152555   5.941   6.501  16.347  0.0583 -1.4239  0.3937
10380TIP3    H252556   6.048   6.491  16.241 -0.3399  2.0219 -0.4623
10381TIP3   OH252557   1.372   0.149  16.077  0.0117  0.1064  0.1176
10381TIP3    H152558   1.442   0.099  16.119 -0.0172 -1.5904 -1.7289
10381TIP3    H252559   1.292   0.106  16.105  0.0265 -1.5732 -2.1999
10382TIP3   OH252560   2.450   2.939  16.137  0.1584 -0.4871  0.1225
10382TIP3    H152561   2.406   2.976  16.214  2.9533  0.3231  1.4802
10382TIP3    H252562   2.415   2.990  16.063 -0.2881  0.9257  1.2560
10383TIP3   OH252563   1.457   1.482   5.695 -0.4816  0.4821  0.2271
10383TIP3    H152564   1.464   1.494   5.789 -2.4367 -0.6826  0.5721
10383TIP3    H252565   1.411   1.560   5.664  0.5448  1.0704  0.1484
10384TIP3   OH252566   3.458   0.136  13.402 -0.3072  0.2369  0.0373
10384TIP3    H152567   3.408   0.152  13.482 -0.6661 -0.1307 -0.1074
10384TIP3    H252568   3.412   0.187  13.335 -1.3951 -1.2506 -0.4028
10385TIP3   OH252569   5.656   5.257  11.500 -0.0585 -0.0147 -0.0868
10385TIP3    H152570   5.653   5.212  11.416  1.1461  1.2945 -0.8731
10385TIP3    H252571   5.679   5.189  11.563  0.8270 -0.6839 -1.1078
10386TIP3   OH252572   3.255   5.360   2.842 -0.5049  0.0708  0.4465
10386TIP3    H152573   3.250   5.434   2.781 -0.7101  0.5703  1.0532
10386TIP3    H252574   3.181   5.304   2.819 -0.2101 -0.0707 -0.1713
10387TIP3   OH252575   2.095   1.202  15.550 -0.0356 -0.1262 -0.2040
10387TIP3    H152576   2.118   1.283  15.595 -0.4143  0.0925 -0.3986
10387TIP3    H252577   2.178   1.154  15.543  0.0549 -0.1051  0.5953
10388TIP3   OH252578   6.028   0.100  15.084 -0.7411 -0.3219  0.3156
10388TIP3    H152579   6.020   0.028  15.146  2.1716 -2.2354 -1.3399
10388TIP3    H252580   6.122   0.114  15.074 -1.1287  1.1964 -2.1870
10389TIP3   OH252581   2.704   3.480   0.092  0.4100 -0.3769  0.5585
10389TIP3    H152582   2.663   3.467   0.178 -0.6052 -2.8434 -0.2153
10389TIP3    H252583   2.694   3.574   0.075 -0.7218 -0.0950  2.4490
10390TIP3   OH252584   2.604   0.609  12.398  0.2302 -0.0103 -0.3048
10390TIP3    H152585   2.553   0.673  12.349  0.6481 -0.2075 -0.9990
10390TIP3    H252586   2.547   0.532  12.405  0.3112 -0.1143 -0.7994
10391TIP3   OH252587   2.062   3.715  11.449 -0.2089 -0.3962  0.1225
10391TIP3    H152588   1.968   3.698  11.443 -0.1453 -0.3900 -3.9310
10391TIP3    H252589   2.071   3.810  11.440  0.1717 -0.3373  1.0615
10392TIP3   OH252590   0.474   4.970   3.958 -0.1699  0.3649  0.4668
10392TIP3    H152591   0.387   4.943   3.928 -0.7638  2.7195 -0.1236
10392TIP3    H252592   0.483   5.061   3.929  3.0517 -0.1659 -0.6851
10393TIP3   OH252593   6.399   1.312  15.281 -0.0765  0.4478  0.2258
10393TIP3    H152594   6.349   1.231  15.284  0.0094  0.3366 -0.8530
10393TIP3    H252595   6.458   1.301  15.206 -1.2165  2.1386 -1.0199
10394TIP3   OH252596   2.949   1.533   1.609 -0.6263 -0.6978 -0.3280
10394TIP3    H152597   2.988   1.594   1.672  0.9162  0.0075 -1.8845
10394TIP3    H252598   2.880   1.583   1.566 -2.1067 -1.3730  1.1552
10395TIP3   OH252599   5.812   4.353  13.298  0.5576 -0.4413 -0.7833
10395TIP3    H152600   5.725   4.360  13.336 -0.4204 -0.1238 -2.9708
10395TIP3    H252601   5.871   4.373  13.371 -1.0774 -2.2435  1.1654
10396TIP3   OH252602   1.551   5.111   1.309 -0.3155  0.1140 -0.4232
10396TIP3    H152603   1.554   5.194   1.260  0.2973 -0.8258 -2.0517
10396TIP3    H252604   1.468   5.071   1.282 -0.1582 -0.2396 -0.3844
10397TIP3   OH252605   1.539   3.992   4.193 -0.1494  0.5110 -0.0804
10397TIP3    H152606   1.453   4.027   4.170  0.6874  1.3266 -2.1779
10397TIP3    H252607   1.547   3.913   4.139  0.3617  0.3448  0.2362
10398TIP3   OH252608   6.515   5.123  16.452  0.2298 -0.1301 -0.2159
10398TIP3    H152609   6.512   5.160  16.363  2.9127 -1.0303 -0.7697
10398TIP3    H252610   6.554   5.193  16.505 -0.1958 -0.0524 -0.0016
10399TIP3   OH252611   2.427   1.577  11.817  0.2661 -0.3472 -0.3652
10399TIP3    H152612   2.479   1.575  11.897  0.1434 -1.0479 -0.2975
10399TIP3    H252613   2.481   1.627  11.755  0.2680  0.3782  0.2059
10400TIP3   OH252614   2.420   4.891   4.046 -0.7143  0.1669 -0.1146
10400TIP3    H152615   2.325   4.883   4.059 -0.8318 -1.1340 -1.4234
10400TIP3    H252616   2.442   4.816   3.990  0.8977  1.1268 -0.8194
10401TIP3   OH252617   2.358   1.369   2.664  0.1862 -0.9656  0.4373
10401TIP3    H152618   2.330   1.368   2.756  0.5653  0.5647  0.5908
10401TIP3    H252619   2.431   1.306   2.661  0.6143 -0.5386  1.3480
10402TIP3   OH252620   1.119   1.623  13.794  0.6338  0.0415  0.4695
10402TIP3    H152621   1.079   1.550  13.747  2.8173 -0.8059 -0.1526
10402TIP3    H252622   1.160   1.582  13.871 -1.4478  1.1848  2.3363
10403TIP3   OH252623   2.795   0.417   3.584  0.2547  0.3750  0.1177
10403TIP3    H152624   2.722   0.458   3.537 -0.3961  0.6261  1.3164
10403TIP3    H252625   2.831   0.354   3.521 -0.4218  0.8810 -0.8070
10404TIP3   OH252626   4.677   5.698   5.145 -0.6241  0.0536 -0.1763
10404TIP3    H152627   4.665   5.729   5.236 -0.8620 -0.2025 -0.1194
10404TIP3    H252628   4.772   5.696   5.133 -0.5793 -0.4180  0.2409
10405TIP3   OH252629   6.521   4.451  16.931  1.1234 -0.1735 -0.3306
10405TIP3    H152630   6.606   4.409  16.923  0.2027 -2.2126 -0.1238
10405TIP3    H252631   6.540   4.545  16.932  3.3219 -0.5700 -0.4956
10406TIP3   OH252632   6.344   5.546   3.399  0.4781  0.1650  0.5042
10406TIP3    H152633   6.426   5.511   3.435 -0.3081 -1.2769  0.9830
10406TIP3    H252634   6.308   5.474   3.347  0.0577  1.1786 -0.6517
10407TIP3   OH252635   4.333   5.402   2.556  0.8842 -0.2768 -0.1725
10407TIP3    H152636   4.284   5.483   2.570  3.6211  1.3627  0.7170
10407TIP3    H252637   4.394   5.423   2.485  0.8191 -2.0031 -0.7807
10408TIP3   OH252638   3.565   4.932  17.114  0.1923  0.3598  0.0339
10408TIP3    H152639   3.537   4.949  17.024  1.3276  1.6407 -0.1171
10408TIP3    H252640   3.531   5.006  17.164 -0.6900 -0.4939  0.7396
10409TIP3   OH252641   0.396   6.648  14.103  0.3116 -0.2950 -0.2423
10409TIP3    H152642   0.335   6.709  14.063  0.7500  0.1657 -0.2185
10409TIP3    H252643   0.385   6.567  14.054 -1.4565 -0.7160  0.7691
10410TIP3   OH252644   0.719   5.743  16.745 -0.4996  0.7684  0.5306
10410TIP3    H152645   0.658   5.805  16.704  0.5641  1.1722 -0.5135
10410TIP3    H252646   0.725   5.772  16.836 -0.6213  1.7315  0.2498
10411TIP3   OH252647   4.203   4.003   4.336  0.3395 -0.0756  0.2928
10411TIP3    H152648   4.230   3.985   4.246  0.3289 -0.6456  0.4000
10411TIP3    H252649   4.280   4.041   4.377  0.2990  0.3253  0.0040
10412TIP3   OH252650   1.689   3.051  15.140  0.5795  0.0754  0.0490
10412TIP3    H152651   1.779   3.081  15.131  0.6235 -0.0593  0.0464
10412TIP3    H252652   1.684   2.973  15.085  0.6939 -0.4247  0.7436
10413TIP3   OH252653   2.291   6.492   3.195  0.3931  0.4241  0.4915
10413TIP3    H152654   2.348   6.560   3.158  0.7838 -0.3564 -0.3721
10413TIP3    H252655   2.202   6.523   3.179  0.5651  0.3893 -0.5600
10414TIP3   OH252656   0.575   2.877   0.336 -0.4764 -0.0499  0.1298
10414TIP3    H152657   0.642   2.940   0.308  1.4776 -2.9812 -2.4276
10414TIP3    H252658   0.622   2.815   0.391 -1.7327 -0.6863  0.5060
10415TIP3   OH252659   4.171   6.536   6.107 -0.1152  0.0160  0.1737
10415TIP3    H152660   4.238   6.593   6.146 -0.7605  2.1098 -1.5491
10415TIP3    H252661   4.221   6.472   6.056  0.6260 -0.0320  0.9472
10416TIP3   OH252662   3.422   6.263  12.437 -0.2420 -0.5589  0.2373
10416TIP3    H152663   3.403   6.209  12.514  0.2461  1.0260  1.5190
10416TIP3    H252664   3.424   6.201  12.364  0.6011 -2.3218  1.6816
10417TIP3   OH252665   1.555   0.934   3.313  0.0137 -0.0505  0.0294
10417TIP3    H152666   1.631   0.905   3.364 -0.3061  0.2952  0.7103
10417TIP3    H252667   1.565   0.890   3.229  1.1710  0.2852 -0.0198
10418TIP3   OH252668   5.796   4.674   3.684  0.1727  0.2379  0.3464
10418TIP3    H152669   5.708   4.663   3.649  0.7682  2.2619 -2.0669
10418TIP3    H252670   5.809   4.768   3.687  1.7715  0.0126  2.0329
10419TIP3   OH252671   0.883   3.142  13.217  0.2748 -0.5303 -0.2154
10419TIP3    H152672   0.952   3.093  13.173  2.2134  0.8272  1.1498
10419TIP3    H252673   0.871   3.221  13.164  1.8790  0.6085  1.0256
10420TIP3   OH252674   2.307   2.571   3.944 -0.4383 -0.2046 -0.3257
10420TIP3    H152675   2.356   2.621   4.010 -2.3705 -0.9787  1.8214
10420TIP3    H252676   2.224   2.617   3.936 -1.8682 -2.3921  0.9587
10421TIP3   OH252677   6.166   4.560  15.467  0.1488 -0.2154 -0.1710
10421TIP3    H152678   6.237   4.496  15.480  2.0224  1.6670 -0.5979
10421TIP3    H252679   6.156   4.567  15.373 -1.0510 -0.8792 -0.1120
10422TIP3   OH252680   2.783   4.437   5.845  0.1243  0.0126  0.0601
10422TIP3    H152681   2.790   4.402   5.934  3.7097 -0.9453 -0.4309
10422TIP3    H252682   2.793   4.360   5.788  1.3562  1.0005 -1.1173
10423TIP3   OH252683   4.134   2.425  16.113  0.2135  0.0509  0.0878
10423TIP3    H152684   4.197   2.489  16.147  0.4287 -0.1806  0.1297
10423TIP3    H252685   4.089   2.393  16.191 -0.7898  1.0827 -0.0529
10424TIP3   OH252686   1.820   2.522   3.787  0.3460 -1.7022  0.2515
10424TIP3    H152687   1.756   2.473   3.839 -0.5430  1.0821  1.9708
10424TIP3    H252688   1.775   2.540   3.704 -0.9553 -0.2054  1.2527
10425TIP3   OH252689   5.674   6.521   0.383  0.4211  0.3347  0.1576
10425TIP3    H152690   5.696   6.495   0.472 -0.7108 -0.7897  0.1419
10425TIP3    H252691   5.708   6.610   0.374  3.9350 -0.8405  0.4231
10426TIP3   OH252692   2.869   6.349   2.239 -0.1579  0.6927  0.5693
10426TIP3    H152693   2.891   6.311   2.154 -0.6725 -0.8246  1.0763
10426TIP3    H252694   2.837   6.437   2.218  0.4222  0.6163 -0.7300
10427TIP3   OH252695   4.616   5.038  13.730  0.4092 -0.0279 -0.0743
10427TIP3    H152696   4.686   4.978  13.707 -1.8167 -3.0679  0.4029
10427TIP3    H252697   4.547   5.020  13.665 -1.5411 -0.3796  1.9535
10428TIP3   OH252698   4.717   2.609   2.500  0.8237 -0.3678  0.6120
10428TIP3    H152699   4.742   2.526   2.458  0.1624  0.3606 -1.3427
10428TIP3    H252700   4.770   2.675   2.456  0.5000  0.3844  1.3379
10429TIP3   OH252701   4.325   6.151   0.391 -0.0611  0.4225  0.2640
10429TIP3    H152702   4.374   6.075   0.424  1.3864  1.1444 -0.1155
10429TIP3    H252703   4.384   6.225   0.405 -1.6302  1.5762  1.0824
10430TIP3   OH252704   1.837   0.139   0.960  0.1167 -0.3787  0.5417
10430TIP3    H152705   1.879   0.072   1.014  1.2435  0.7763  1.1464
10430TIP3    H252706   1.908   0.177   0.908 -0.6247 -0.1112 -0.3180
10431TIP3   OH252707   5.808   4.940   4.860  0.2444 -0.0442  0.6536
10431TIP3    H152708   5.784   5.033   4.853  0.4070 -0.0985 -1.1684
10431TIP3    H252709   5.728   4.893   4.836  0.0506 -0.4020  1.9569
10432TIP3   OH252710   0.849   4.359   2.552 -0.3281 -0.0210 -0.0224
10432TIP3    H152711   0.876   4.382   2.463  1.1112 -0.9992  0.1264
10432TIP3    H252712   0.900   4.417   2.608  1.2014 -1.5343  0.2445
10433TIP3   OH252713   1.077   5.833  17.282 -0.1424 -0.6045 -0.2317
10433TIP3    H152714   1.085   5.798  17.371  1.6565 -1.1263 -0.5649
10433TIP3    H252715   0.993   5.799  17.251  0.3360 -2.5080  0.3924
10434TIP3   OH252716   5.510   5.703   5.558  0.5077 -0.0596 -0.0789
10434TIP3    H152717   5.547   5.774   5.506  0.0070 -0.3854 -0.9085
10434TIP3    H252718   5.575   5.633   5.552  1.4171  0.5909  1.4617
10435TIP3   OH252719   2.611   4.620  15.628 -0.2430 -0.1611 -0.1820
10435TIP3    H152720   2.662   4.698  15.650 -0.2285  0.0068 -0.7812
10435TIP3    H252721   2.677   4.556  15.602 -0.1434 -0.8439  1.5945
10436TIP3   OH252722   5.283   2.423  17.283 -0.7417  0.2500 -0.3946
10436TIP3    H152723   5.299   2.424  17.189 -1.8611  1.2728 -0.5970
10436TIP3    H252724   5.321   2.340  17.313 -0.2210 -0.0063 -1.7052
10437TIP3   OH252725   5.978   5.699  11.631  0.2734  0.1453 -0.2175
10437TIP3    H152726   5.948   5.615  11.668  0.3326  0.5135  0.7044
10437TIP3    H252727   5.900   5.736  11.590 -0.1797  0.3999  0.8411
10438TIP3   OH252728   1.122   3.642  16.063 -0.8737  0.0665  0.3100
10438TIP3    H152729   1.127   3.621  16.156  0.9702  0.1406  0.2714
10438TIP3    H252730   1.137   3.737  16.059  1.1703 -0.2167 -0.1383
10439TIP3   OH252731   5.592   3.128  16.937 -0.4077  0.6232  0.1458
10439TIP3    H152732   5.507   3.146  16.896  0.2007  0.2782 -1.3348
10439TIP3    H252733   5.622   3.212  16.970 -2.2722  0.4153  2.6765
10440TIP3   OH252734   4.842   0.121   3.224 -0.4648  0.2296 -0.3690
10440TIP3    H152735   4.925   0.170   3.217 -0.4212  0.1304 -0.5481
10440TIP3    H252736   4.834   0.077   3.140 -1.0817  0.8369 -0.6350
10441TIP3   OH252737   6.482   5.064  13.496  0.3271 -0.5850 -0.1764
10441TIP3    H152738   6.563   5.091  13.539  0.2018 -1.4409  0.6531
10441TIP3    H252739   6.509   4.993  13.438  0.2021 -0.7604 -0.0225
10442TIP3   OH252740   0.366   4.306   5.230  0.3453 -0.0469  0.2136
10442TIP3    H152741   0.399   4.342   5.313  1.8494  0.6467 -0.6530
10442TIP3    H252742   0.274   4.285   5.249  0.6203  0.1591  2.0307
10443TIP3   OH252743   4.743   1.489  15.798  0.8502 -1.3364 -0.2875
10443TIP3    H152744   4.686   1.523  15.867  2.7422  0.2665  0.5569
10443TIP3    H252745   4.750   1.395  15.818  0.6910 -1.0608  1.2154
10444TIP3   OH252746   4.528   3.062   3.886 -0.2927  0.4715 -0.1534
10444TIP3    H152747   4.446   3.049   3.839  0.8014 -0.2446 -1.9828
10444TIP3    H252748   4.580   2.985   3.865  0.6638  0.6537  1.4038
10445TIP3   OH252749   1.730   2.820  14.143  0.5722 -1.0165 -0.2821
10445TIP3    H152750   1.635   2.821  14.152  0.2887  1.1390 -2.3231
10445TIP3    H252751   1.763   2.818  14.233 -1.2772 -4.1055  0.4764
10446TIP3   OH252752   1.218   4.976  12.336  0.6472  0.2699  0.5733
10446TIP3    H152753   1.239   4.940  12.422  0.0888  0.4479  0.7840
10446TIP3    H252754   1.122   4.980  12.334  0.5808 -0.9693 -0.5517
10447TIP3   OH252755   2.283   5.111   2.765  0.3625  0.0777 -0.4651
10447TIP3    H152756   2.341   5.186   2.753  1.8784 -1.0670 -0.4372
10447TIP3    H252757   2.300   5.055   2.690 -0.1255 -0.6571 -0.0385
10448TIP3   OH252758   1.842   4.612  15.644 -0.2191 -0.1989  0.3901
10448TIP3    H152759   1.929   4.598  15.606  0.4971  0.3157  1.7542
10448TIP3    H252760   1.816   4.526  15.677  1.2615  0.1877  2.8731
10449TIP3   OH252761   5.445   1.987  11.892  1.1786  0.7685 -0.1987
10449TIP3    H152762   5.440   2.080  11.869  0.7229  1.4179  2.2111
10449TIP3    H252763   5.367   1.972  11.946  1.7529 -0.7832  0.2368
10450TIP3   OH252764   5.868   4.461   1.437  0.4624  0.1233 -0.2420
10450TIP3    H152765   5.937   4.467   1.503  1.0946 -0.6019 -0.8081
10450TIP3    H252766   5.914   4.442   1.355 -0.3340  0.6134 -0.8235
10451TIP3   OH252767   6.251   2.319   0.008  0.1661 -0.2192  0.0840
10451TIP3    H152768   6.159   2.295   0.016  0.3111 -0.5286  0.8096
10451TIP3    H252769   6.294   2.279   0.083  1.2528 -1.7892 -1.2908
10452TIP3   OH252770   1.783   6.051  17.198  0.1457 -0.1521  0.2565
10452TIP3    H152771   1.770   6.082  17.288  1.9549  2.6575 -0.3163
10452TIP3    H252772   1.701   6.073  17.153 -0.2210 -0.2302  0.8782
10453TIP3   OH252773   6.256   5.298  16.666  0.1080  0.2659  0.2674
10453TIP3    H152774   6.264   5.389  16.640 -0.8042  0.0326 -0.9281
10453TIP3    H252775   6.162   5.282  16.668  0.2629 -0.9904 -0.8802
10454TIP3   OH252776   3.688   3.604   2.251  0.1230 -0.1259 -0.0279
10454TIP3    H152777   3.654   3.555   2.176 -0.2990  0.7363 -0.4095
10454TIP3    H252778   3.656   3.556   2.327 -1.0421  0.0472 -0.3903
10455TIP3   OH252779   1.072   4.639  12.507  0.5313  0.0289 -0.0148
10455TIP3    H152780   1.041   4.567  12.452  1.4524 -0.5576  0.2209
10455TIP3    H252781   1.052   4.612  12.597 -0.6803  0.8435 -0.0161
10456TIP3   OH252782   1.481   4.773  13.740  0.0850  0.5144  0.1007
10456TIP3    H152783   1.441   4.686  13.742 -1.5770  1.2328 -0.5217
10456TIP3    H252784   1.562   4.761  13.691  1.9240 -1.4249  3.2506
10457TIP3   OH252785   4.313   3.087   1.428  0.7674  0.2419  0.3277
10457TIP3    H152786   4.380   3.117   1.367  2.2403 -0.1715  1.6942
10457TIP3    H252787   4.358   3.080   1.512 -1.2662  1.0618  1.5588
10458TIP3   OH252788   1.285   3.542  15.365  0.5001  0.2529 -0.0165
10458TIP3    H152789   1.272   3.633  15.338  1.1164  0.2036 -0.4938
10458TIP3    H252790   1.197   3.510  15.386  0.2553  0.8925 -0.0542
10459TIP3   OH252791   0.083   0.785  14.531  0.7217  0.6373  0.6657
10459TIP3    H152792   0.000   0.738  14.542  1.1940 -0.6377 -0.9093
10459TIP3    H252793   0.137   0.727  14.477  2.1856  2.0041  0.5831
10460TIP3   OH252794   3.316   2.494  16.985 -0.2442  0.5393 -0.7735
10460TIP3    H152795   3.268   2.571  17.016  0.8693  0.7726  0.4759
10460TIP3    H252796   3.254   2.448  16.929 -1.3017  1.7692 -0.6660
10461TIP3   OH252797   6.523   4.257  17.321  0.1750  0.0396  0.0572
10461TIP3    H152798   6.462   4.309  17.373 -1.7002 -3.5018  1.7973
10461TIP3    H252799   6.584   4.219  17.385 -0.3221 -2.0684 -0.6292
10462TIP3   OH252800   4.539   5.610   2.613 -0.0095  0.1091 -0.2647
10462TIP3    H152801   4.496   5.695   2.624  0.5295  0.2725  0.7485
10462TIP3    H252802   4.466   5.548   2.604 -0.4116  0.8512 -2.9802
10463TIP3   OH252803   1.044   2.872   5.452 -0.6261  0.1809  0.1004
10463TIP3    H152804   1.055   2.912   5.538 -1.1939  0.3588  0.0969
10463TIP3    H252805   1.127   2.829   5.434  0.1558  1.6978 -0.0676
10464TIP3   OH252806   3.704   1.196   4.585  0.3945  0.3006  0.0822
10464TIP3    H152807   3.798   1.210   4.591  0.1353  1.5465  1.8972
10464TIP3    H252808   3.695   1.110   4.544  2.3239 -0.1054  0.4299
10465TIP3   OH252809   0.549   4.848  16.526  0.0113 -0.2296 -0.0704
10465TIP3    H152810   0.634   4.865  16.485  0.6412  1.4726  1.7336
10465TIP3    H252811   0.486   4.898  16.474  0.7814  1.8546  0.8771
10466TIP3   OH252812   4.753   4.487   2.206  0.1814 -0.1650  0.2096
10466TIP3    H152813   4.848   4.482   2.200  0.0970  0.2549 -2.9602
10466TIP3    H252814   4.732   4.578   2.188 -0.8772 -0.5834 -0.8177
10467TIP3   OH252815   4.883   1.199  17.042 -0.1107 -0.4468 -0.3699
10467TIP3    H152816   4.863   1.115  16.999 -0.5090  0.4764 -2.0782
10467TIP3    H252817   4.923   1.252  16.973  0.2613  0.7375  0.7163
10468TIP3   OH252818   4.712   1.466  11.052 -0.0360  0.0345 -0.3451
10468TIP3    H152819   4.653   1.440  10.980 -0.3516 -1.2012  0.3321
10468TIP3    H252820   4.728   1.385  11.100  2.6400  0.2330 -0.7665
10469TIP3   OH252821   2.479   2.480   4.967  0.1303 -0.0636 -0.7112
10469TIP3    H152822   2.396   2.527   4.953  0.9188  1.0235 -1.9884
10469TIP3    H252823   2.519   2.524   5.042 -0.5662 -0.7859  0.0990
10470TIP3   OH252824   0.008   3.880  13.400 -0.3694 -0.0936 -0.0351
10470TIP3    H152825  -0.035   3.843  13.476 -0.1785  0.8007  0.5256
10470TIP3    H252826  -0.051   3.950  13.370 -0.7178 -0.8034 -1.0614
10471TIP3   OH252827   5.697   3.367  15.702  0.3221  0.4174 -0.5164
10471TIP3    H152828   5.691   3.453  15.660 -2.7854  1.0424  0.9293
10471TIP3    H252829   5.607   3.333  15.701  1.1513 -2.0553  0.5024
10472TIP3   OH252830   4.627   4.921   3.959  0.4032 -0.1245 -0.0663
10472TIP3    H152831   4.635   4.934   4.053  1.8497 -0.6112 -0.0881
10472TIP3    H252832   4.646   4.828   3.946 -0.1227 -0.1367 -0.8053
10473TIP3   OH252833   1.582   6.298   3.189  0.3815 -0.5988 -0.9071
10473TIP3    H152834   1.521   6.268   3.122  1.4849 -0.0383 -2.2249
10473TIP3    H252835   1.580   6.394   3.182  0.7717 -0.5512 -0.3844
10474TIP3   OH252836   0.516   3.291   1.762 -0.1933 -0.3794  0.0492
10474TIP3    H152837   0.504   3.213   1.707  0.0080 -0.4258  0.0710
10474TIP3    H252838   0.575   3.263   1.831  3.5353  0.8549 -2.3054
10475TIP3   OH252839   6.454   2.479   3.873 -0.5620 -0.1212 -0.5883
10475TIP3    H152840   6.421   2.489   3.783 -0.8605  0.9491 -0.3727
10475TIP3    H252841   6.483   2.388   3.877 -0.0158 -0.0349 -1.9502
10476TIP3   OH252842   2.252   1.319  14.193 -0.0219  0.5714  0.0113
10476TIP3    H152843   2.328   1.300  14.247 -0.3007  0.9383  0.5466
10476TIP3    H252844   2.288   1.355  14.112  0.4974 -1.7392 -0.8633
10477TIP3   OH252845   1.154   3.771   0.937  0.8936 -0.1080  0.2099
10477TIP3    H152846   1.192   3.696   0.892  1.7748  0.0100  0.7390
10477TIP3    H252847   1.122   3.736   1.020 -0.3112 -0.2327 -0.2773
10478TIP3   OH252848   6.592   6.086  13.376 -0.3544  0.2377  0.6599
10478TIP3    H152849   6.553   6.056  13.458 -1.7893  1.3115  0.4262
10478TIP3    H252850   6.520   6.081  13.313  0.5122  0.1780 -0.3451
10479TIP3   OH252851   6.652   4.623   6.267  0.0736 -0.5489 -0.0132
10479TIP3    H152852   6.618   4.581   6.346 -0.4739 -0.6266 -0.2846
10479TIP3    H252853   6.627   4.715   6.276  1.0944 -0.3162  0.4852
10480TIP3   OH252854   4.317   1.274   0.527 -0.8459 -0.1203 -0.7132
10480TIP3    H152855   4.392   1.328   0.552  0.3565 -0.8349 -2.6060
10480TIP3    H252856   4.319   1.200   0.588  0.5719 -0.5993 -1.3080
10481TIP3   OH252857   6.319   0.479  12.455  0.2782  0.2088 -0.2187
10481TIP3    H152858   6.238   0.513  12.416  0.4908  2.0835  0.8637
10481TIP3    H252859   6.335   0.536  12.530  2.5808 -0.1654 -0.3616
10482TIP3   OH252860   0.003   6.753  12.095  0.7272  0.5409  0.0338
10482TIP3    H152861  -0.080   6.711  12.119  1.0144  0.7291  1.4071
10482TIP3    H252862   0.024   6.717  12.008  0.6703 -1.7009  0.8998
10483TIP3   OH252863   2.452   0.296   3.649 -0.3870 -0.1308  0.1830
10483TIP3    H152864   2.366   0.338   3.654 -0.2395  0.1225  0.5583
10483TIP3    H252865   2.506   0.343   3.712 -0.4692 -1.4611  1.2893
10484TIP3   OH252866   5.887   1.432  16.597 -0.0040  0.2096 -0.4977
10484TIP3    H152867   5.908   1.514  16.642  3.9475 -0.8958  0.0971
10484TIP3    H252868   5.971   1.402  16.563 -2.1621 -0.5965 -6.1946
10485TIP3   OH252869   5.472   0.982  16.894  0.3523 -0.1005  0.3605
10485TIP3    H152870   5.397   0.939  16.937  3.0520 -2.7855  2.9048
10485TIP3    H252871   5.516   1.029  16.964  1.0602  1.5262 -1.1057
10486TIP3   OH252872   1.882   0.951  12.602 -0.3588  0.1772 -0.2255
10486TIP3    H152873   1.944   1.010  12.559 -1.6421  0.6644 -1.4836
10486TIP3    H252874   1.804   0.954  12.546 -1.6410 -0.1405  1.4752
10487TIP3   OH252875   5.669   1.924   0.460 -0.1836  0.4744  0.5696
10487TIP3    H152876   5.713   1.839   0.468  1.2776  1.1362 -0.0667
10487TIP3    H252877   5.650   1.932   0.366 -2.2342 -0.0308  0.8880
10488TIP3   OH252878   4.705   0.395   5.294  0.1941 -0.0700 -0.1932
10488TIP3    H152879   4.618   0.426   5.319  0.3911  0.8879 -0.6761
10488TIP3    H252880   4.730   0.334   5.364 -0.1863  0.8769  0.7886
10489TIP3   OH252881   5.017   1.099   2.240  0.4033 -0.3107 -0.3550
10489TIP3    H152882   4.940   1.113   2.185 -1.4158 -3.4790  1.1385
10489TIP3    H252883   5.021   1.177   2.295 -1.5433  0.0738 -0.6961
10490TIP3   OH252884   2.352   6.357   6.079 -0.0340 -0.3782 -0.9130
10490TIP3    H152885   2.372   6.329   5.990  1.1531  1.4066 -1.2595
10490TIP3    H252886   2.437   6.383   6.116 -0.5924 -0.4600  0.5200
10491TIP3   OH252887   4.895   2.505  11.812 -0.2012 -0.6311  0.7334
10491TIP3    H152888   4.888   2.524  11.718  0.2655  2.2944  1.1848
10491TIP3    H252889   4.811   2.533  11.848  0.3576  0.1865  1.4266
10492TIP3   OH252890   4.362   2.974  16.971 -0.0946  0.4686  0.4725
10492TIP3    H152891   4.402   2.915  17.036  1.4530 -1.5528 -2.0758
10492TIP3    H252892   4.285   3.010  17.015  0.8779 -0.7176  3.4006
10493TIP3   OH252893   3.225   6.278  12.087 -0.5262  0.1132  0.0948
10493TIP3    H152894   3.261   6.328  12.013  0.8104  0.0256  0.6505
10493TIP3    H252895   3.292   6.212  12.106 -1.8435 -1.3217 -0.0231
10494TIP3   OH252896   2.918   1.415  11.184 -0.0510  0.1094 -0.1907
10494TIP3    H152897   2.982   1.463  11.237  0.1610 -0.7086  0.3260
10494TIP3    H252898   2.864   1.482  11.144 -0.2827  0.7645  1.1623
10495TIP3   OH252899   6.566   3.673  14.271 -0.1664 -0.8074  0.0355
10495TIP3    H152900   6.637   3.695  14.331 -0.9540 -1.8573  1.3896
10495TIP3    H252901   6.536   3.758  14.239 -1.8084  0.1376  3.5944
10496TIP3   OH252902   0.137   2.071   7.221  0.5656 -0.6431  0.6673
10496TIP3    H152903   0.100   2.154   7.250 -0.8121 -1.3697  1.0861
10496TIP3    H252904   0.122   2.069   7.127  2.4957  0.4703  0.2817
10497TIP3   OH252905   6.599   3.314  11.848  0.0821 -0.2939  0.1885
10497TIP3    H152906   6.531   3.371  11.812  0.4556 -1.2006 -2.0973
10497TIP3    H252907   6.676   3.331  11.794  1.4748  0.0533  2.1564
10498TIP3   OH252908   6.754   1.277   3.676  0.2460  0.0439 -0.2145
10498TIP3    H152909   6.829   1.248   3.729 -0.3575 -0.9690  0.0917
10498TIP3    H252910   6.715   1.197   3.643 -1.2521  0.5054  0.3651
10499TIP3   OH252911   5.497   0.433   6.544 -0.1354  0.4600  0.0151
10499TIP3    H152912   5.473   0.500   6.480 -2.6415  0.9358  1.3246
10499TIP3    H252913   5.537   0.482   6.616  1.6272  0.0499 -0.6336
10500TIP3   OH252914   3.691   5.340  15.712 -0.2024 -0.7948  0.0636
10500TIP3    H152915   3.764   5.346  15.651 -0.6097  0.7550 -0.3253
10500TIP3    H252916   3.724   5.378  15.793 -0.5913 -0.0252 -0.1355
10501TIP3   OH252917   3.404   2.384  13.071 -0.2340  0.2334 -0.0647
10501TIP3    H152918   3.489   2.340  13.083 -0.7217 -0.9916 -0.9663
10501TIP3    H252919   3.386   2.376  12.978 -0.6491  1.8319 -0.1396
10502TIP3   OH252920   0.743   4.886   0.992 -0.3584 -0.1945  0.1216
10502TIP3    H152921   0.770   4.800   0.958  0.9874 -0.0250  0.6885
10502TIP3    H252922   0.804   4.948   0.952 -0.9664  0.4321  0.1476
10503TIP3   OH252923   3.004   1.266   2.394 -0.3499 -0.5068  0.6400
10503TIP3    H152924   2.951   1.342   2.417 -0.3839 -1.1173  2.8458
10503TIP3    H252925   3.026   1.278   2.302 -0.1700  2.2761  0.9780
10504TIP3   OH252926   3.461   4.029  13.253  0.2283  0.3635  0.0889
10504TIP3    H152927   3.457   4.036  13.158  2.2722  0.6308 -0.0223
10504TIP3    H252928   3.389   4.083  13.284 -1.2079 -0.6741 -1.2960
10505TIP3   OH252929   6.531   0.900   5.703 -0.2513  0.7571  0.1216
10505TIP3    H152930   6.565   0.842   5.635 -0.4611 -0.7857  1.2932
10505TIP3    H252931   6.606   0.917   5.759  0.1439  2.7486 -0.9123
10506TIP3   OH252932   0.837   0.692   0.887 -0.0919 -0.0489 -0.4063
10506TIP3    H152933   0.821   0.599   0.902  0.0597  0.0521  0.4075
10506TIP3    H252934   0.925   0.708   0.921  0.0225  0.3237 -0.8585
10507TIP3   OH252935   0.166   1.986  12.508  0.4080  0.3361  0.0757
10507TIP3    H152936   0.091   1.968  12.450 -0.1817  1.6900  0.3943
10507TIP3    H252937   0.204   1.899  12.524  0.2845 -0.1337 -1.9121
10508TIP3   OH252938   3.025   5.527   1.243 -0.7737 -0.3056 -0.1613
10508TIP3    H152939   2.980   5.459   1.193  3.2162 -2.1348 -1.7368
10508TIP3    H252940   2.980   5.608   1.220 -1.9998 -1.6901 -3.0944
10509TIP3   OH252941   1.137   6.705  13.115 -0.1681 -0.7287 -0.3338
10509TIP3    H152942   1.201   6.706  13.185 -0.8785 -0.8531  0.3338
10509TIP3    H252943   1.059   6.747  13.152  0.0255  0.8818 -1.6381
10510TIP3   OH252944   3.691   3.074  15.953  0.2881  0.5059  0.0589
10510TIP3    H152945   3.623   3.135  15.927 -0.1264  0.0608  0.0893
10510TIP3    H252946   3.719   3.105  16.039 -1.5494 -0.6611  1.1444
10511TIP3   OH252947   6.261   0.952  14.717  0.0012  0.7661  0.5212
10511TIP3    H152948   6.263   0.889  14.645  0.3582  0.5952  0.6789
10511TIP3    H252949   6.201   0.913  14.781 -0.0578  0.7605  0.4629
10512TIP3   OH252950   3.818   0.376   1.223  0.5985  0.3389 -0.6796
10512TIP3    H152951   3.827   0.467   1.251  0.1651  0.2951 -0.3954
10512TIP3    H252952   3.815   0.380   1.127  0.4823  0.6326 -0.6639
10513TIP3   OH252953   2.685   1.091   0.997 -0.2178  0.5534 -0.3651
10513TIP3    H152954   2.617   1.026   0.976  0.3195 -1.0713  2.4145
10513TIP3    H252955   2.758   1.038   1.028  1.2980  2.4258 -0.6132
10514TIP3   OH252956   0.632   5.152   6.487  0.0178 -0.0771  0.3254
10514TIP3    H152957   0.556   5.098   6.506 -0.2295 -0.0468 -0.5500
10514TIP3    H252958   0.703   5.089   6.475 -0.4145 -0.2829 -1.3832
10515TIP3   OH252959   3.719   6.091   2.641 -0.3905 -0.0776 -0.4021
10515TIP3    H152960   3.709   6.186   2.632 -2.0438 -0.2014 -0.2447
10515TIP3    H252961   3.647   6.066   2.700 -0.3721 -1.5049 -0.9582
10516TIP3   OH252962   2.901   0.956   3.896 -0.1644  0.0324 -0.1531
10516TIP3    H152963   2.807   0.950   3.876 -0.7773  0.6384  2.2335
10516TIP3    H252964   2.914   0.893   3.967  1.0354  0.6253  0.1773
10517TIP3   OH252965   3.068   6.560  15.042 -0.1050 -0.3465 -0.3680
10517TIP3    H152966   3.070   6.473  15.082 -0.1234 -1.2440 -2.1883
10517TIP3    H252967   3.114   6.549  14.958  0.3352  1.5252 -0.4323
10518TIP3   OH252968   2.216   4.418  11.900 -0.2149  0.2133 -0.0757
10518TIP3    H152969   2.205   4.324  11.909  1.1313  0.1736  1.7010
10518TIP3    H252970   2.130   4.450  11.871 -0.6614 -1.5446 -0.7855
10519TIP3   OH252971   0.931   0.164   1.613  0.4143 -0.1657 -0.3038
10519TIP3    H152972   0.857   0.210   1.572  0.0816  0.2661  0.7587
10519TIP3    H252973   1.003   0.226   1.608  0.3981 -0.1468 -0.3023
10520TIP3   OH252974   1.369   3.115   4.506 -0.0711 -0.2983  0.2963
10520TIP3    H152975   1.392   3.112   4.598 -2.2686  2.0037  1.0379
10520TIP3    H252976   1.373   3.208   4.483 -1.5222 -0.5739 -1.3274
10521TIP3   OH252977   1.267   2.910  17.200 -0.2338  0.4506 -0.2275
10521TIP3    H152978   1.183   2.871  17.224 -0.4489  0.4239 -1.0060
10521TIP3    H252979   1.322   2.897  17.277 -0.8781  0.2825  0.2124
10522TIP3   OH252980   4.551   2.140  16.385  0.3401  0.0469  0.1812
10522TIP3    H152981   4.544   2.201  16.459  2.0135 -0.0256  0.4363
10522TIP3    H252982   4.504   2.062  16.414  1.9481 -0.4204  1.6898
10523TIP3   OH252983   1.746   6.159  12.161 -0.2754  0.1619  0.3648
10523TIP3    H152984   1.743   6.165  12.256  0.6334 -1.4060  0.5146
10523TIP3    H252985   1.675   6.099  12.138 -0.0018 -0.0655  0.1124
10524TIP3   OH252986   5.152   0.481   2.172 -0.0552 -0.4358 -0.0077
10524TIP3    H152987   5.185   0.548   2.231 -0.8157  0.4660 -0.5756
10524TIP3    H252988   5.062   0.465   2.201  0.2879 -1.6241  0.4636
10525TIP3   OH252989   0.834   3.092   3.110  0.6910 -0.2465 -0.1094
10525TIP3    H152990   0.877   3.142   3.180 -0.4535 -1.1929  1.3512
10525TIP3    H252991   0.835   3.002   3.142  1.0815 -0.8845 -1.8425
10526TIP3   OH252992   1.142   3.911  14.821 -0.0161 -0.5586  0.2171
10526TIP3    H152993   1.222   3.940  14.779  1.5235 -1.8936  2.0494
10526TIP3    H252994   1.083   3.891  14.749  0.9809  1.2041 -1.1621
10527TIP3   OH252995   4.119   2.386  13.972  0.7336 -0.6035 -0.3184
10527TIP3    H152996   4.095   2.313  14.029  1.5459 -1.7420 -1.3556
10527TIP3    H252997   4.186   2.433  14.020  0.0454 -0.4082  0.4597
10528TIP3   OH252998   1.992   5.870  16.477 -0.7008 -0.0019  0.0226
10528TIP3    H152999   2.047   5.935  16.522  0.5536 -2.2006  1.9140
10528TIP3    H253000   2.050   5.828  16.414 -0.6024 -1.2489  0.9020
10529TIP3   OH253001   5.811   1.935   2.696 -0.5822  0.2010 -0.4022
10529TIP3    H153002   5.869   1.926   2.620  1.5018  1.8653  0.8926
10529TIP3    H253003   5.749   2.004   2.670 -0.6620 -0.0953 -1.0233
10530TIP3   OH253004   0.580   6.770  17.053  0.1699 -0.4797  0.6575
10530TIP3    H153005   0.589   6.864  17.071 -1.4388  0.7270 -3.4753
10530TIP3    H253006   0.664   6.744  17.016  0.0346 -0.1119  0.0687
10531TIP3   OH253007   2.693   4.809   0.666  0.0650 -0.1968 -0.0879
10531TIP3    H153008   2.655   4.741   0.722 -0.9512 -0.4936 -1.1032
10531TIP3    H253009   2.763   4.764   0.618  1.9175  0.3864  1.8937
10532TIP3   OH253010   4.145   5.796  10.676  0.1873  0.2213 -0.5880
10532TIP3    H153011   4.075   5.861  10.670 -0.2630 -0.2842 -0.9901
10532TIP3    H253012   4.103   5.714  10.648  0.6381 -0.3157  0.2609
10533TIP3   OH253013   4.325   1.080  13.646  0.3144 -0.2553 -0.5373
10533TIP3    H153014   4.273   1.104  13.569  0.2155 -1.1237 -0.7505
10533TIP3    H253015   4.261   1.072  13.717  0.0776 -1.6178 -0.8640
10534TIP3   OH253016   0.204   6.756  13.926  0.2392  0.2297  0.4375
10534TIP3    H153017   0.126   6.749  13.981 -0.8124 -1.3151 -1.1642
10534TIP3    H253018   0.213   6.850  13.908 -2.5598  0.3031 -1.0778
10535TIP3   OH253019   3.934   1.043  16.842  0.4378  0.6361 -0.0765
10535TIP3    H153020   3.843   1.073  16.844  0.7941  1.9730 -1.6127
10535TIP3    H253021   3.970   1.070  16.926 -1.2761 -2.5054  1.8440
10536TIP3   OH253022   4.491   5.999   1.141 -0.0158 -0.2651 -0.1831
10536TIP3    H153023   4.512   5.930   1.079 -0.0124 -1.3100  0.9458
10536TIP3    H253024   4.563   5.997   1.204  0.2158  1.0780 -0.3708
10537TIP3   OH253025   5.951   5.566   1.109 -0.3963  0.4834 -0.1510
10537TIP3    H153026   6.042   5.584   1.134 -0.1052 -0.3638 -0.5674
10537TIP3    H253027   5.912   5.531   1.189  0.2440 -1.1971 -0.5277
10538TIP3   OH253028   2.322   4.306   2.590  0.2344  0.1779 -0.1125
10538TIP3    H153029   2.378   4.261   2.526 -1.0477 -0.3294 -0.9076
10538TIP3    H253030   2.294   4.386   2.546 -1.3079 -0.5572 -0.5408
10539TIP3   OH253031   0.080   1.338  11.052  0.2102  0.6331  0.1574
10539TIP3    H153032   0.053   1.429  11.037 -2.9790 -0.4109 -1.4066
10539TIP3    H253033   0.015   1.286  11.005  1.4188 -2.5299  1.6971
10540TIP3   OH253034   5.566   1.213   1.978  0.1055 -0.1933 -0.4593
10540TIP3    H153035   5.533   1.282   1.920 -1.1948 -0.9116 -0.6159
10540TIP3    H253036   5.504   1.141   1.966  0.1069 -0.5510  1.4150
10541TIP3   OH253037   6.729   5.743  11.447  0.1179  0.0507  0.0657
10541TIP3    H153038   6.667   5.804  11.487 -1.9784 -1.0283 -1.3435
10541TIP3    H253039   6.683   5.707  11.372  2.1974 -1.4365 -0.6126
10542TIP3   OH253040   5.097   2.463  12.199  0.1896  0.2519  0.2159
10542TIP3    H153041   5.027   2.431  12.142  1.7449 -1.1456 -1.0169
10542TIP3    H253042   5.127   2.543  12.156  0.8245 -0.3672 -0.5216
10543TIP3   OH253043   2.476   0.893   2.860  0.5304  0.1805 -0.0913
10543TIP3    H153044   2.503   0.802   2.849 -0.1685  0.0173 -0.5240
10543TIP3    H253045   2.493   0.934   2.775 -2.4310 -0.4376 -1.1047
10544TIP3   OH253046   4.011   5.353   4.445  0.5218  0.3840  0.2587
10544TIP3    H153047   4.049   5.353   4.357  2.0208 -0.5517  0.8708
10544TIP3    H253048   4.001   5.446   4.466  0.9999  0.6299 -0.5401
10545TIP3   OH253049   0.874   5.093  15.696  0.1393 -0.1439 -0.1665
10545TIP3    H153050   0.955   5.045  15.715 -0.0411 -0.2729  0.2788
10545TIP3    H253051   0.901   5.185  15.696 -0.2400  0.0634  2.9670
10546TIP3   OH253052   2.375   5.307   3.027 -0.2786 -0.1337 -0.0359
10546TIP3    H153053   2.446   5.370   3.014  0.6786 -1.1711  0.0978
10546TIP3    H253054   2.314   5.325   2.955  0.0005  0.9056 -0.0308
10547TIP3   OH253055   2.449   3.656   3.462  0.4422  0.2926 -0.0549
10547TIP3    H153056   2.374   3.667   3.404  0.8419 -1.2993 -0.9393
10547TIP3    H253057   2.479   3.745   3.480 -0.9272  0.9027 -0.6430
10548TIP3   OH253058   3.067   2.650   3.222 -0.2423  0.5669  0.0604
10548TIP3    H153059   3.017   2.726   3.191  1.5167  1.7084 -0.1251
10548TIP3    H253060   3.150   2.686   3.252  0.0071 -1.1125  1.5574
10549TIP3   OH253061   5.442   1.005   4.730 -0.1083  0.2743 -0.3010
10549TIP3    H153062   5.499   0.958   4.790 -0.5199 -0.3585 -0.3933
10549TIP3    H253063   5.500   1.066   4.684  0.2115  0.7580  0.7151
10550TIP3   OH253064   4.243   6.708  16.249  0.0875 -0.8197  0.3162
10550TIP3    H153065   4.206   6.739  16.167 -0.3082  0.7310  1.0544
10550TIP3    H253066   4.264   6.616  16.232  2.6034  0.1062 -2.4078
10551TIP3   OH253067   3.972   2.093  11.659 -0.0566 -0.2755 -0.3819
10551TIP3    H153068   3.998   2.176  11.621  2.4846 -0.7734  0.0719
10551TIP3    H253069   3.984   2.104  11.754 -3.4432 -0.0013  0.1461
10552TIP3   OH253070   1.157   6.644  15.138  0.4437 -0.6191 -0.1016
10552TIP3    H153071   1.216   6.701  15.188 -0.0067 -1.6072  1.6202
10552TIP3    H253072   1.087   6.622  15.199  0.4806 -2.8465 -0.7742
10553TIP3   OH253073   0.252   1.582  12.389 -0.4980 -0.1582  0.2490
10553TIP3    H153074   0.242   1.492  12.360 -0.8477  0.3967 -1.4961
10553TIP3    H253075   0.296   1.626  12.316 -3.5455  1.8592 -0.6101
10554TIP3   OH253076   3.870   4.856  13.564  0.0513  0.0959  0.0055
10554TIP3    H153077   3.863   4.936  13.617  0.0748  0.1146 -0.0194
10554TIP3    H253078   3.929   4.880  13.492 -0.8601  0.4110 -0.6574
10555TIP3   OH253079   6.184   3.651  16.388  0.2245  0.3997 -0.3674
10555TIP3    H153080   6.124   3.669  16.460 -0.2782 -0.1351 -0.6398
10555TIP3    H253081   6.258   3.710  16.402  0.2025  0.1939  0.6672
10556TIP3   OH253082   1.026   3.834   3.501  0.1669 -0.2048 -0.5896
10556TIP3    H153083   1.098   3.824   3.439 -0.0362  1.5320 -1.1717
10556TIP3    H253084   1.053   3.906   3.558 -0.3141 -0.7732  0.3708
10557TIP3   OH253085   3.102   3.373   2.362  0.0557  0.1648  0.3063
10557TIP3    H153086   3.120   3.283   2.389  0.2438 -0.7025 -2.4228
10557TIP3    H253087   3.174   3.395   2.304 -1.8323  0.6855 -1.9925
10558TIP3   OH253088   0.848   6.737   0.453  0.1255  0.1786 -0.1956
10558TIP3    H153089   0.808   6.705   0.372  0.8419  0.9391 -0.8775
10558TIP3    H253090   0.911   6.669   0.477  1.9512  1.1748 -1.8720
10559TIP3   OH253091   0.116   6.376   4.851 -0.3896 -0.3244 -0.3679
10559TIP3    H153092   0.175   6.448   4.873  1.1858 -1.5661 -0.3568
10559TIP3    H253093   0.075   6.403   4.769  1.2060  0.0245 -1.0876
10560TIP3   OH253094   1.723   4.707  13.663 -0.2370  0.3564 -0.3535
10560TIP3    H153095   1.757   4.622  13.691 -0.7670  0.3025  0.1362
10560TIP3    H253096   1.780   4.732  13.590  1.9496  1.0354  1.4673
10561TIP3   OH253097   4.607   5.377  14.716 -0.0805  0.3277 -0.2274
10561TIP3    H153098   4.627   5.465  14.683 -1.8750  1.2910  1.0847
10561TIP3    H253099   4.678   5.358  14.777  1.5156 -0.1179 -2.1394
10562TIP3   OH253100   5.631   3.126  15.148 -0.5106 -0.2998 -0.4682
10562TIP3    H153101   5.624   3.046  15.200 -0.7558  0.3886  0.6121
10562TIP3    H253102   5.725   3.142  15.140 -0.4694 -0.0716  0.3491
10563TIP3   OH253103   1.250   4.822   5.366  0.4429  0.4840 -0.3600
10563TIP3    H153104   1.262   4.741   5.316  0.2562  1.5647 -2.2286
10563TIP3    H253105   1.167   4.858   5.334 -0.7293  0.2544  2.1778
10564TIP3   OH253106   0.768   0.344  11.921  0.0039  0.2276  0.2234
10564TIP3    H153107   0.799   0.266  11.968  0.8658 -0.4261 -1.3593
10564TIP3    H253108   0.777   0.415  11.985  0.6555 -0.7118  1.2179
10565TIP3   OH253109   0.546   2.097   4.684  0.4394  0.1601 -0.2904
10565TIP3    H153110   0.641   2.102   4.694  0.3769  1.1208 -0.0894
10565TIP3    H253111   0.523   2.176   4.634 -0.5108  1.1976  1.6922
10566TIP3   OH253112   4.516   4.963   2.825  0.2107 -0.2734 -0.3047
10566TIP3    H153113   4.498   5.057   2.825 -0.3623 -0.3794 -0.4798
10566TIP3    H253114   4.513   4.938   2.732 -0.4712 -0.6152 -0.1974
10567TIP3   OH253115   4.132   1.871   1.577 -0.4911  0.1503 -0.2028
10567TIP3    H153116   4.093   1.786   1.600  0.4071 -0.0681  0.6038
10567TIP3    H253117   4.064   1.916   1.527 -1.6278 -0.3676  0.8228
10568TIP3   OH253118   5.146   3.587   0.200  0.2299 -0.4347  0.1627
10568TIP3    H153119   5.182   3.665   0.242  2.2751 -0.1802 -1.8351
10568TIP3    H253120   5.103   3.539   0.271 -0.5653  2.1791  1.5504
10569TIP3   OH253121   2.131   1.311  13.905  0.2140 -0.5148 -0.3549
10569TIP3    H153122   2.112   1.286  13.996  1.2063 -0.6297 -0.1667
10569TIP3    H253123   2.108   1.235  13.853 -1.4274 -0.0635 -0.3423
10570TIP3   OH253124   1.053   4.710  15.352 -0.2708  0.2505  0.0199
10570TIP3    H153125   1.142   4.702  15.388 -0.0674  0.2257 -0.4767
10570TIP3    H253126   1.034   4.804  15.356 -0.2999  0.2317  0.3120
10571TIP3   OH253127   0.407   2.377  11.487  0.2379  0.0968 -0.1062
10571TIP3    H153128   0.313   2.388  11.475 -0.4250 -3.1594  1.0598
10571TIP3    H253129   0.436   2.326  11.411  0.9873  0.6522 -0.2088
10572TIP3   OH253130   1.300   6.346  14.101 -0.1699 -0.4576  0.3240
10572TIP3    H153131   1.208   6.365  14.118 -0.6223 -1.7808 -0.5026
10572TIP3    H253132   1.347   6.420  14.139 -1.6252  0.7539 -0.1403
10573TIP3   OH253133   1.767   4.010  15.333  0.0767  0.1622 -0.1109
10573TIP3    H153134   1.811   4.087  15.368  2.6419 -1.1025 -0.2422
10573TIP3    H253135   1.768   3.947  15.405 -2.7050  0.4167  0.2627
10574TIP3   OH253136   5.869   2.967   0.979  0.0426  0.2885  0.1711
10574TIP3    H153137   5.826   2.924   1.053  1.8625  0.3209  1.3284
10574TIP3    H253138   5.878   3.058   1.007  1.6086  0.1008  0.3673
10575TIP3   OH253139   5.128   6.409  16.731  0.0106  0.2398 -0.3462
10575TIP3    H153140   5.223   6.413  16.725  0.1355  0.7473  1.3524
10575TIP3    H253141   5.102   6.346  16.664  1.6373 -0.9121  0.0526
10576TIP3   OH253142   5.096   0.777   5.362  0.5633  0.6613 -0.2818
10576TIP3    H153143   5.159   0.754   5.294 -0.5247  1.6807 -1.6771
10576TIP3    H253144   5.050   0.695   5.381  1.7612  0.0786  0.2212
10577TIP3   OH253145   5.871   2.368   0.487 -0.8054 -0.8293  0.1055
10577TIP3    H153146   5.927   2.303   0.445  3.7997  3.0566 -0.6273
10577TIP3    H253147   5.887   2.356   0.581  1.6616  0.3399 -0.0956
10578TIP3   OH253148   2.001   4.168   2.528 -0.8554 -0.1090 -0.3008
10578TIP3    H153149   1.923   4.162   2.583  0.2810 -0.3297  1.3907
10578TIP3    H253150   2.041   4.081   2.535 -0.1234  0.1964 -0.6076
10579TIP3   OH253151   3.378   5.805  15.452 -0.7889 -0.3068  0.1533
10579TIP3    H153152   3.332   5.823  15.370 -0.1336 -1.2597 -0.4572
10579TIP3    H253153   3.347   5.718  15.477  0.4371 -0.8459 -0.1262
10580TIP3   OH253154   5.311   5.614   2.533 -0.2284 -0.2384  0.2915
10580TIP3    H153155   5.392   5.568   2.554 -0.3888 -1.2616 -1.2208
10580TIP3    H253156   5.241   5.557   2.565 -0.4084 -0.6771 -0.8502
10581TIP3   OH253157   4.918   5.958  14.389 -0.0488 -0.7009  0.0783
10581TIP3    H153158   4.882   5.879  14.349 -1.2627 -0.1648  0.0708
10581TIP3    H253159   4.920   6.022  14.318  0.0707 -0.4601  0.2978
10582TIP3   OH253160   0.640   6.024   2.027  0.5097 -0.5965 -0.1203
10582TIP3    H153161   0.613   6.054   2.114 -1.0942 -2.8210  0.2478
10582TIP3    H253162   0.569   6.053   1.969  0.9818 -0.1632 -0.4893
10583TIP3   OH253163   4.165   4.270  11.594  0.6889  0.2940 -0.1014
10583TIP3    H153164   4.184   4.180  11.620  1.2600  0.2704 -0.5877
10583TIP3    H253165   4.246   4.301  11.554  0.2697  0.7873 -0.5800
10584TIP3   OH253166   0.672   4.752   5.552 -0.0268  0.2060 -0.8931
10584TIP3    H153167   0.717   4.832   5.581  1.2282 -0.1839 -1.6693
10584TIP3    H253168   0.629   4.718   5.630 -0.3056  1.4613 -0.4845
10585TIP3   OH253169   4.803   5.583  11.379  0.0371 -0.4104  0.1708
10585TIP3    H153170   4.894   5.581  11.408  0.2879 -1.1059 -0.6186
10585TIP3    H253171   4.806   5.549  11.290 -0.9735 -0.2471  0.0665
10586TIP3   OH253172   2.738   0.226   2.052 -0.4350  0.1570 -0.2578
10586TIP3    H153173   2.763   0.200   1.963 -0.8595 -2.6036  0.3498
10586TIP3    H253174   2.683   0.304   2.039  1.3147  1.1969 -2.1915
10587TIP3   OH253175   6.538   2.277   3.286 -0.0987  0.0942 -0.0508
10587TIP3    H153176   6.589   2.285   3.205 -0.4813 -0.8457 -0.3907
10587TIP3    H253177   6.605   2.274   3.355  0.2121  1.4898 -0.2610
10588TIP3   OH253178   3.786   6.411  11.951 -0.4554  0.0198  0.1920
10588TIP3    H153179   3.843   6.487  11.943  2.9465 -2.3587 -0.5363
10588TIP3    H253180   3.804   6.377  12.039 -2.1245  0.1414  0.6097
10589TIP3   OH253181   0.310   5.560  15.997  0.1023  0.5484 -0.1777
10589TIP3    H153182   0.279   5.581  15.909 -1.2270  0.6801  0.2990
10589TIP3    H253183   0.353   5.475  15.988 -2.1477 -0.6213 -0.5504
10590TIP3   OH253184   1.449   2.952   3.311  0.3883  0.1790  0.3775
10590TIP3    H153185   1.368   2.912   3.279  1.1882 -1.9665  0.9124
10590TIP3    H253186   1.459   2.920   3.400  1.9941  0.1305  0.2094
10591TIP3   OH253187   4.111   1.455  16.290 -0.2079 -0.0335 -0.3080
10591TIP3    H153188   4.109   1.550  16.298 -0.0621 -0.0841  0.3207
10591TIP3    H253189   4.037   1.435  16.232 -1.1158  0.3533  0.6876
10592TIP3   OH253190   0.695   5.953   0.180  0.5548 -0.7067 -0.0642
10592TIP3    H153191   0.651   5.869   0.167  0.9998 -0.8212 -0.9136
10592TIP3    H253192   0.761   5.936   0.246 -0.2640 -0.6839  0.7730
10593TIP3   OH253193   4.532   2.501  15.907  0.2583 -0.4687 -0.3598
10593TIP3    H153194   4.473   2.431  15.934  0.3079 -1.7415 -3.2415
10593TIP3    H253195   4.479   2.580  15.909 -1.8647 -1.6491 -3.3805
10594TIP3   OH253196   3.243   1.482  17.198 -0.9030 -0.0020 -0.6263
10594TIP3    H153197   3.150   1.467  17.217 -0.7188 -0.6829 -0.2372
10594TIP3    H253198   3.271   1.543  17.266 -0.9174 -0.2891 -0.3573
10595TIP3   OH253199   0.926   5.340  14.094  0.2254  0.1946  0.1490
10595TIP3    H153200   0.997   5.278  14.077  0.6377  0.3711  1.1267
10595TIP3    H253201   0.876   5.344  14.012  1.6555  0.4856 -0.7329
10596TIP3   OH253202   0.898   0.723   4.617  0.5943  0.2019 -0.7284
10596TIP3    H153203   0.809   0.711   4.585  1.0035  0.3953 -1.9917
10596TIP3    H253204   0.889   0.778   4.695 -0.5326 -1.2486  0.2204
10597TIP3   OH253205   4.949   5.855  16.139 -0.6082  0.0646  0.0802
10597TIP3    H153206   4.959   5.936  16.187 -1.1165  0.5745 -0.6515
10597TIP3    H253207   4.942   5.787  16.206 -1.1260  0.7363  0.7061
10598TIP3   OH253208   5.001   2.528   3.364  0.4670  0.4935  0.2193
10598TIP3    H153209   4.914   2.560   3.389  0.9275  1.5505  0.4947
10598TIP3    H253210   4.984   2.443   3.322 -0.6016  0.1771  1.2391
10599TIP3   OH253211   2.819   4.857   5.977 -0.3054 -0.1418 -0.4449
10599TIP3    H153212   2.810   4.938   5.926 -4.0413  0.3766  0.7655
10599TIP3    H253213   2.867   4.884   6.056  2.0045 -0.1096 -1.7577
10600TIP3   OH253214   4.727   2.820   3.912  0.1251  0.0265 -0.1309
10600TIP3    H153215   4.718   2.738   3.961  0.9292 -0.4965 -0.8298
10600TIP3    H253216   4.662   2.814   3.842 -1.6489  1.1605  1.3161
10601TIP3   OH253217   5.225   1.922  11.513 -0.5724 -1.0150 -0.0942
10601TIP3    H153218   5.277   2.002  11.506  0.7419 -1.6181  1.7593
10601TIP3    H253219   5.203   1.898  11.423 -0.0604  0.8109 -0.7374
10602TIP3   OH253220   2.372   5.920   1.174 -0.1876  0.0876  0.6820
10602TIP3    H153221   2.328   5.992   1.129  0.4438 -0.0010 -0.0966
10602TIP3    H253222   2.465   5.933   1.157 -0.1441 -2.0922 -1.3651
10603TIP3   OH253223   5.866   1.495  15.737 -0.1690 -0.0522 -0.3951
10603TIP3    H153224   5.883   1.407  15.772 -3.5908 -0.8265 -0.3786
10603TIP3    H253225   5.796   1.530  15.791 -0.3526  1.8468 -1.7510
10604TIP3   OH253226   2.628   3.227   1.788 -0.1966  0.0640 -0.1711
10604TIP3    H153227   2.550   3.216   1.733  0.3872 -2.2610 -0.6516
10604TIP3    H253228   2.668   3.140   1.789  0.2076  0.1738  3.3912
10605TIP3   OH253229   0.390   0.154   0.776 -0.0030 -0.2237 -0.5977
10605TIP3    H153230   0.460   0.146   0.840 -1.5430 -1.6255  1.0336
10605TIP3    H253231   0.434   0.145   0.691  2.1829  2.3239  0.1340
10606TIP3   OH253232   6.031   1.375   1.474 -0.2641  0.6042  0.0119
10606TIP3    H153233   5.956   1.320   1.455  0.4375 -0.7901  1.0842
10606TIP3    H253234   6.082   1.325   1.538  1.9031  1.2275 -1.1352
10607TIP3   OH253235   1.078   2.731   1.407 -0.0628  0.1555  0.1856
10607TIP3    H153236   1.004   2.785   1.435 -0.2780 -0.1481  0.2171
10607TIP3    H253237   1.040   2.669   1.345 -0.5739 -2.1675  2.5878
10608TIP3   OH253238   2.920   3.235   0.085  0.0639 -0.2913  0.3255
10608TIP3    H153239   2.882   3.190   0.160 -0.2851  0.1358  0.4061
10608TIP3    H253240   3.014   3.240   0.106  0.1861 -1.3598  0.1144
10609TIP3   OH253241   1.175   4.442   4.812 -0.9274 -0.4474 -0.6107
10609TIP3    H153242   1.100   4.499   4.827 -1.3508 -0.9423 -0.8440
10609TIP3    H253243   1.234   4.493   4.757 -0.9657  0.0426 -0.2032
10610TIP3   OH253244   0.784   5.596   0.322  0.2809 -0.1913 -0.6909
10610TIP3    H153245   0.827   5.519   0.360 -1.1761 -1.2973 -1.1911
10610TIP3    H253246   0.855   5.657   0.305  1.4203 -1.2090  0.2144
10611TIP3   OH253247   4.072   0.842   3.902  0.3491  0.7999 -0.1925
10611TIP3    H153248   4.136   0.859   3.833  1.2632 -1.6493 -0.0407
10611TIP3    H253249   4.112   0.875   3.982  1.6669 -1.0008 -0.0433
10612TIP3   OH253250   5.746   4.204  13.593  0.0612  0.0365 -0.7577
10612TIP3    H153251   5.784   4.281  13.552  0.4272  0.4792  0.4032
10612TIP3    H253252   5.819   4.159  13.635 -0.4066 -0.0551 -0.0205
10613TIP3   OH253253   0.385   1.336  16.635 -0.2176 -0.4274 -0.2816
10613TIP3    H153254   0.460   1.318  16.692  0.4226  0.9505 -0.6549
10613TIP3    H253255   0.320   1.377  16.693  0.3228  0.7125 -0.4626
10614TIP3   OH253256   5.319   4.021   4.874  0.5097  0.0673  0.3952
10614TIP3    H153257   5.342   4.114   4.883 -2.3492  0.8614  0.3133
10614TIP3    H253258   5.267   4.001   4.951  0.7873 -1.4146  0.2326
10615TIP3   OH253259   3.937   1.018  10.285 -0.8317 -0.1733  0.0494
10615TIP3    H153260   3.993   0.957  10.334 -1.3134 -0.8958 -0.2819
10615TIP3    H253261   3.972   1.105  10.306 -1.0884 -0.4469  1.7823
10616TIP3   OH253262   0.382   6.544   2.952 -0.5507 -0.0804 -0.1730
10616TIP3    H153263   0.360   6.634   2.976 -0.5903 -0.2454  0.4367
10616TIP3    H253264   0.393   6.546   2.857 -0.7727  0.5191 -0.1898
10617TIP3   OH253265   6.048   1.054   3.338  0.8420  0.1419  0.2208
10617TIP3    H153266   6.109   1.049   3.265  1.5441 -0.6362  0.8461
10617TIP3    H253267   6.039   1.147   3.356  1.3373  0.2931 -0.3054
10618TIP3   OH253268   6.248   4.506   4.591  0.0235  0.2982  0.1219
10618TIP3    H153269   6.243   4.424   4.638  2.6693 -2.3993 -3.6601
10618TIP3    H253270   6.173   4.504   4.531  0.0353  0.7110  0.0900
10619TIP3   OH253271   1.331   1.049   0.988 -0.2182 -0.3781 -0.1063
10619TIP3    H153272   1.255   0.992   1.000 -0.0488 -0.9039 -1.3177
10619TIP3    H253273   1.296   1.126   0.943 -0.5854  0.8781  2.1973
10620TIP3   OH253274   4.768   5.711   4.395 -0.0854 -0.0650  0.6151
10620TIP3    H153275   4.815   5.749   4.321 -1.6992 -0.1616 -0.5123
10620TIP3    H253276   4.835   5.663   4.444  0.9748 -0.2283 -0.9235
10621TIP3   OH253277   5.894   0.656  13.763 -0.0642  0.4803 -0.6293
10621TIP3    H153278   5.900   0.746  13.731 -0.0344  1.1244  1.0718
10621TIP3    H253279   5.975   0.644  13.814 -1.1770  0.3767  1.1950
10622TIP3   OH253280   4.345   5.481  15.824  0.5918  0.6595 -0.0867
10622TIP3    H153281   4.355   5.483  15.729  2.6067  0.9568  0.0893
10622TIP3    H253282   4.301   5.564  15.845  0.6124  0.8350 -0.7128
10623TIP3   OH253283   0.755   0.075   0.143 -0.2553 -0.1319 -0.1277
10623TIP3    H153284   0.758   0.006   0.077 -2.0265 -0.5504  0.1875
10623TIP3    H253285   0.833   0.128   0.126 -0.1476 -0.8078 -1.9056
10624TIP3   OH253286   0.371   1.985   4.382  0.3468 -0.6951  0.6129
10624TIP3    H153287   0.432   2.051   4.348  0.6247 -1.3094 -0.1074
10624TIP3    H253288   0.285   2.028   4.380  0.4815 -0.4578 -0.1455
10625TIP3   OH253289   5.774   5.279  17.294 -0.2055  0.0341 -0.6585
10625TIP3    H153290   5.701   5.231  17.332  0.8444 -0.6927  0.5392
10625TIP3    H253291   5.745   5.370  17.292 -0.5392  0.0277  1.4484
10626TIP3   OH253292   6.424   6.226   2.623  0.0583  0.6322 -0.1367
10626TIP3    H153293   6.473   6.238   2.542  0.0597  0.1380 -0.2166
10626TIP3    H253294   6.332   6.230   2.596  0.0456 -0.5554 -0.3483
10627TIP3   OH253295   2.564   5.941  14.878 -0.5131 -0.0143  0.4521
10627TIP3    H153296   2.541   5.957  14.970 -2.0683 -1.0834  0.2817
10627TIP3    H253297   2.480   5.937  14.832  0.1291 -1.5258 -0.6721
10628TIP3   OH253298   0.350   1.653  12.101 -0.6393 -0.2919  0.1814
10628TIP3    H153299   0.338   1.723  12.037  0.7211 -1.1602 -1.0807
10628TIP3    H253300   0.444   1.647  12.113 -0.7944 -1.2293  1.0432
10629TIP3   OH253301   2.055   4.611  13.133 -0.2001  0.0812 -0.1165
10629TIP3    H153302   2.127   4.659  13.174  3.3096 -2.2867 -2.8329
10629TIP3    H253303   2.057   4.525  13.174  1.4459 -1.3580 -2.8767
10630TIP3   OH253304   5.035   0.862  15.105  0.0163 -0.1317 -0.2277
10630TIP3    H153305   5.100   0.931  15.090  0.6031 -0.3837  1.0388
10630TIP3    H253306   4.954   0.897  15.068  0.7875  0.3284 -1.5301
10631TIP3   OH253307   5.990   0.293  15.813  0.2562 -0.1074  0.3406
10631TIP3    H153308   6.071   0.341  15.798  1.1216 -1.8768 -1.1897
10631TIP3    H253309   6.013   0.225  15.876 -0.8221  1.1248  2.1262
10632TIP3   OH253310   2.600   5.349   0.339  0.1357 -0.8189 -0.3303
10632TIP3    H153311   2.584   5.302   0.257  2.3502 -0.4503 -1.0394
10632TIP3    H253312   2.535   5.314   0.400 -0.2360 -2.6016 -1.6721
10633TIP3   OH253313   2.045   0.277  12.019  0.0825 -0.8755 -0.2686
10633TIP3    H153314   2.042   0.353  11.961  0.0241 -1.4068 -0.9778
10633TIP3    H253315   1.983   0.298  12.089  0.0467 -0.2823 -0.4706
10634TIP3   OH253316   2.354   3.040  16.389 -0.0939  0.6405  0.1641
10634TIP3    H153317   2.272   3.089  16.390 -0.0953  0.6328  0.6774
10634TIP3    H253318   2.329   2.951  16.412  0.1746  0.8317  1.2482
10635TIP3   OH253319   0.181   2.636   2.294 -0.1035 -0.2459 -0.1464
10635TIP3    H153320   0.219   2.614   2.379 -0.4103  0.4371  0.1729
10635TIP3    H253321   0.233   2.586   2.231 -0.9475 -2.1169  0.5666
10636TIP3   OH253322   4.132   1.357   4.408 -0.3838 -0.1060  0.1937
10636TIP3    H153323   4.202   1.418   4.388  0.6398 -0.6347  1.9566
10636TIP3    H253324   4.051   1.406   4.392  0.3878  1.8517  1.8559
10637TIP3   OH253325   5.140   1.983   6.631 -0.5724  0.4355 -0.2172
10637TIP3    H153326   5.187   2.024   6.558  0.7817  0.1716  0.4708
10637TIP3    H253327   5.083   1.918   6.589  0.4073  0.0718 -1.0467
10638TIP3   OH253328   1.383   0.646   4.520  0.4633 -0.2788  0.0771
10638TIP3    H153329   1.406   0.556   4.544  2.2508  0.5347  1.6946
10638TIP3    H253330   1.339   0.681   4.597  1.3653  0.7531  0.1379
10639TIP3   OH253331   4.966   3.891   0.761  0.0080  0.5619  0.5270
10639TIP3    H153332   4.968   3.830   0.687 -0.9015 -0.6122  1.4297
10639TIP3    H253333   4.878   3.882   0.798  0.4954  0.9764  1.8668
10640TIP3   OH253334   3.373   2.350   2.563  0.0854 -0.3523 -0.0284
10640TIP3    H153335   3.300   2.290   2.579  1.7092 -1.8414  2.3245
10640TIP3    H253336   3.394   2.387   2.649  0.4158  2.1584 -1.0917
10641TIP3   OH253337   3.744   5.085  13.791  0.1821  0.2067  0.1303
10641TIP3    H153338   3.829   5.124  13.812 -0.1259  0.1109  1.6497
10641TIP3    H253339   3.685   5.160  13.785  0.6565  0.4425 -2.6573
10642TIP3   OH253340   3.768   4.616   4.473 -0.6225 -0.4281  0.3339
10642TIP3    H153341   3.780   4.540   4.417 -0.9065 -0.9458  0.9662
10642TIP3    H253342   3.710   4.674   4.423  0.8607  0.1165 -0.8398
10643TIP3   OH253343   1.600   5.504  15.481 -0.3018 -0.3826  0.0657
10643TIP3    H153344   1.620   5.529  15.571 -0.4939  0.2521 -0.0641
10643TIP3    H253345   1.507   5.526  15.471 -0.9067 -2.5201  0.4067
10644TIP3   OH253346   5.757   3.450  13.892  0.0485 -0.0545  0.0843
10644TIP3    H153347   5.754   3.355  13.883  1.7431 -0.0663 -0.8668
10644TIP3    H253348   5.667   3.479  13.882 -0.2912 -1.4478 -1.1922
10645TIP3   OH253349   0.173   6.100  14.450 -0.2051 -0.4002 -0.7856
10645TIP3    H153350   0.248   6.093  14.392  0.4188 -1.3054  0.0968
10645TIP3    H253351   0.116   6.028  14.426 -2.0064  1.6283 -3.0505
10646TIP3   OH253352   1.227   0.206  14.264 -0.4894 -0.1477  0.3786
10646TIP3    H153353   1.152   0.213  14.205 -1.8176 -1.2412  1.8401
10646TIP3    H253354   1.188   0.192  14.350  1.4009 -1.1530  1.1262
10647TIP3   OH253355   6.495   3.056   3.553 -0.0851  0.5059  0.5721
10647TIP3    H153356   6.476   2.963   3.558  0.3364  0.1664 -2.2817
10647TIP3    H253357   6.414   3.099   3.582 -1.4071 -0.7996 -0.9688
10648TIP3   OH253358   1.708   6.454  11.186  0.5331  0.0972  0.4951
10648TIP3    H153359   1.762   6.379  11.163 -0.5044 -0.8658  1.0776
10648TIP3    H253360   1.639   6.456  11.120 -0.0210 -0.0882  1.0592
10649TIP3   OH253361   0.615   5.496  16.837 -0.3701 -0.1311 -0.8222
10649TIP3    H153362   0.599   5.430  16.770  1.3450 -0.6849 -0.7427
10649TIP3    H253363   0.637   5.575  16.789 -1.1418  0.0300 -0.9137
10650TIP3   OH253364   5.263   5.959  13.668  0.6528 -0.8763 -0.1219
10650TIP3    H153365   5.275   5.865  13.679 -0.9089 -1.1709 -0.6539
10650TIP3    H253366   5.272   5.973  13.574  3.5888 -0.0132  0.1779
10651TIP3   OH253367   4.197   6.648  16.574 -0.1578 -0.0900 -0.2818
10651TIP3    H153368   4.182   6.705  16.498 -1.0914 -0.3744 -0.3203
10651TIP3    H253369   4.246   6.574  16.539  1.3186  0.8130 -0.1767
10652TIP3   OH253370   2.301   3.251   4.216  0.3067  0.1701 -0.2575
10652TIP3    H153371   2.290   3.182   4.151  2.1747 -1.8420  1.4341
10652TIP3    H253372   2.392   3.279   4.207  0.0021  1.3457  0.1164
10653TIP3   OH253373   1.904   3.147   2.871  0.7322 -0.7482  0.5646
10653TIP3    H153374   1.910   3.052   2.866 -1.4905 -0.9898  1.1780
10653TIP3    H253375   1.898   3.176   2.781  1.3275 -1.1895  0.3772
10654TIP3   OH253376   5.830   4.892   5.457  0.1349  0.1673 -0.2892
10654TIP3    H153377   5.769   4.926   5.522 -1.4704 -4.2760  0.8428
10654TIP3    H253378   5.917   4.910   5.494 -0.7210 -1.0831  2.5671
10655TIP3   OH253379   1.933   2.818   0.472 -0.8289  0.2702  0.2189
10655TIP3    H153380   1.997   2.857   0.532  1.1144 -2.6595  0.2484
10655TIP3    H253381   1.963   2.843   0.385  0.6833 -1.3634  0.2136
10656TIP3   OH253382   5.481   1.886   1.326 -0.2828  0.0648 -0.2233
10656TIP3    H153383   5.478   1.906   1.233  0.9882  0.8640 -0.1214
10656TIP3    H253384   5.575   1.878   1.346 -0.5855 -2.7635  0.4609
10657TIP3   OH253385   2.262   0.977   2.400  0.2971  0.2341 -0.7329
10657TIP3    H153386   2.257   1.073   2.396  1.9309  0.3132 -1.3126
10657TIP3    H253387   2.350   0.958   2.430 -0.1394 -1.1044 -0.2208
10658TIP3   OH253388   3.756   0.710  11.737  0.0902  0.2841  0.2622
10658TIP3    H153389   3.799   0.699  11.823  0.6365  0.5963  0.0354
10658TIP3    H253390   3.826   0.741  11.680 -0.9243  3.1827  0.4392
10659TIP3   OH253391   2.325   6.178  12.908 -1.0235  0.1985  0.5708
10659TIP3    H153392   2.383   6.135  12.971 -0.9130  1.5050  1.4054
10659TIP3    H253393   2.357   6.149  12.822  1.1836  1.2116  0.9797
10660TIP3   OH253394   2.211   1.499   4.053 -0.1100 -0.0828 -0.8983
10660TIP3    H153395   2.219   1.557   3.977  0.9244  0.7909 -0.1530
10660TIP3    H253396   2.192   1.558   4.126 -0.0021 -0.7857 -0.2919
10661TIP3   OH253397   4.276   5.865   0.142  0.0650 -0.4628 -0.0983
10661TIP3    H153398   4.214   5.796   0.163 -0.0971 -0.2476  0.1313
10661TIP3    H253399   4.359   5.819   0.128  0.0071 -0.6802  0.2730
10662TIP3   OH253400   2.842   1.858  16.251  0.1905 -0.4143 -0.4935
10662TIP3    H153401   2.802   1.774  16.269  0.2347 -0.6568 -1.4611
10662TIP3    H253402   2.793   1.893  16.177 -0.6721  1.0139  0.6927
10663TIP3   OH253403   6.619   2.783  16.883 -0.0383 -0.0351 -0.1803
10663TIP3    H153404   6.702   2.785  16.930 -0.3178 -0.8061  0.3702
10663TIP3    H253405   6.592   2.691  16.886  0.5740 -0.3982 -2.9659
10664TIP3   OH253406   3.398   5.448  16.210  0.0218 -0.0996 -0.1489
10664TIP3    H153407   3.428   5.531  16.171  2.9932 -1.1998 -0.5046
10664TIP3    H253408   3.319   5.471  16.258  0.0949  2.7041 -1.1794
10665TIP3   OH253409   2.780   2.651   1.830  0.1982  0.0741  0.7681
10665TIP3    H153410   2.775   2.699   1.747 -1.9209 -0.4029  0.5729
10665TIP3    H253411   2.785   2.559   1.804 -3.0013 -0.2841  1.0850
10666TIP3   OH253412   3.788   5.259  11.500  0.0143  0.4842  0.4839
10666TIP3    H153413   3.772   5.247  11.406 -1.1831  1.0892  0.5850
10666TIP3    H253414   3.768   5.173  11.539 -2.4736  0.9883  0.5024
10667TIP3   OH253415   0.498   0.830  14.532 -1.0874  0.1790 -0.2143
10667TIP3    H153416   0.479   0.754  14.477 -1.7350 -1.1771  1.7249
10667TIP3    H253417   0.416   0.880  14.533 -1.8145 -0.9475  1.1333
10668TIP3   OH253418   3.909   4.362  14.473  0.0457 -0.0566 -0.1069
10668TIP3    H153419   4.004   4.374  14.465  0.3526 -0.9631  1.6345
10668TIP3    H253420   3.879   4.349  14.383  1.5361  0.4505 -0.7130
10669TIP3   OH253421   4.610   6.385   5.198 -0.6196 -0.4024 -0.2290
10669TIP3    H153422   4.681   6.399   5.136 -1.1245 -0.8120 -0.9146
10669TIP3    H253423   4.532   6.378   5.144 -1.3755  1.1881  0.5820
10670TIP3   OH253424   2.778   4.700   5.741 -0.2575  0.0271  0.2942
10670TIP3    H153425   2.766   4.752   5.821 -1.7363 -0.6981  0.5897
10670TIP3    H253426   2.770   4.609   5.771  0.8776 -0.3385 -0.4343
10671TIP3   OH253427   1.279   6.683  11.619  0.2272  0.0430 -0.0900
10671TIP3    H153428   1.319   6.676  11.706 -0.4956 -1.5872  0.1482
10671TIP3    H253429   1.211   6.749  11.629 -0.9288 -1.2551  1.0631
10672TIP3   OH253430   0.928   4.846   2.712  0.0432  0.3794 -0.3746
10672TIP3    H153431   0.959   4.772   2.764 -2.5531  0.3126  1.2312
10672TIP3    H253432   0.899   4.807   2.629 -1.1440 -0.4246  0.3935
10673TIP3   OH253433   0.867   2.680   2.142  0.2003 -0.6078  0.4305
10673TIP3    H153434   0.944   2.656   2.195 -1.3558 -1.3096  2.5182
10673TIP3    H253435   0.823   2.597   2.125  0.4442 -0.3527 -1.7746
10674TIP3   OH253436   0.072   1.341  11.696  0.0150 -0.6669  0.3128
10674TIP3    H153437   0.110   1.424  11.724 -1.3498  0.7675 -1.8392
10674TIP3    H253438   0.089   1.281  11.769  1.3780  1.3688  1.7619
10675TIP3   OH253439   4.156   1.512   2.721 -0.3750  0.2202 -0.1648
10675TIP3    H153440   4.174   1.424   2.687 -0.7858  0.7620 -1.8606
10675TIP3    H253441   4.061   1.519   2.722 -0.3479  0.5921  0.1067
10676TIP3   OH253442   4.156   4.067   0.622 -0.0279  0.1594  0.1816
10676TIP3    H153443   4.162   4.146   0.569  1.8553 -1.1577 -1.6962
10676TIP3    H253444   4.246   4.035   0.628 -0.6583 -1.5329  1.4345
10677TIP3   OH253445   0.740   5.155   3.366  0.0158  0.3346 -0.5951
10677TIP3    H153446   0.740   5.174   3.459 -0.0752 -0.1376 -0.4937
10677TIP3    H253447   0.792   5.075   3.358 -0.4197  0.0717 -0.8788
10678TIP3   OH253448   4.610   1.727   0.561  0.4740 -0.2201 -0.3969
10678TIP3    H153449   4.525   1.693   0.591  0.9930  0.1850  1.6848
10678TIP3    H253450   4.595   1.750   0.469 -1.5688 -0.5224 -0.1972
10679TIP3   OH253451   1.037   1.539   1.595 -0.3433  0.0586  0.9138
10679TIP3    H153452   0.973   1.528   1.525 -0.8958  0.8061  1.2834
10679TIP3    H253453   1.085   1.456   1.598  0.4176  0.3712 -1.0590
10680TIP3   OH253454   2.280   6.134  16.686 -0.5439 -0.2943  0.5477
10680TIP3    H153455   2.253   6.156  16.597 -0.9615  0.8574  0.9333
10680TIP3    H253456   2.208   6.080  16.720  0.0146 -1.4665 -0.0756
10681TIP3   OH253457   1.675   6.382   4.640 -0.7945  0.0834 -0.0591
10681TIP3    H153458   1.671   6.477   4.645 -0.0953  0.0992  0.3460
10681TIP3    H253459   1.745   6.364   4.577 -0.0838 -0.1544  0.7773
10682TIP3   OH253460   2.669   5.785   6.723 -0.5517 -0.4131  0.0385
10682TIP3    H153461   2.682   5.872   6.760 -1.4776  0.0376 -0.6472
10682TIP3    H253462   2.722   5.785   6.643  0.7829 -1.0882  0.9025
10683TIP3   OH253463   1.306   3.940  15.576 -0.4073  0.5671  0.2671
10683TIP3    H153464   1.315   3.911  15.486 -1.4646  1.3324 -0.1139
10683TIP3    H253465   1.380   3.999  15.590 -0.1593  0.3330 -0.0530
10684TIP3   OH253466   5.439   1.509   5.909  0.0714 -0.0840  0.3403
10684TIP3    H153467   5.416   1.443   5.975 -1.5025 -0.8088 -0.8690
10684TIP3    H253468   5.467   1.585   5.959 -1.2477 -0.5558  1.8436
10685TIP3   OH253469   3.028   5.440  16.270 -0.3181 -0.1568  0.1893
10685TIP3    H153470   2.995   5.365  16.318 -0.5017 -0.4734 -0.4163
10685TIP3    H253471   3.112   5.461  16.312  0.0899 -1.1522 -0.0838
10686TIP3   OH253472   3.289   6.012   2.319 -0.3713  0.0624  0.1368
10686TIP3    H153473   3.194   6.017   2.320 -0.3821  0.0165 -0.4679
10686TIP3    H253474   3.317   6.079   2.381 -0.8212 -0.7561  1.2765
10687TIP3   OH253475   1.090   4.226  11.188 -0.0956 -0.0676  0.0857
10687TIP3    H153476   1.144   4.167  11.135 -1.1035 -0.4742 -0.5453
10687TIP3    H253477   1.109   4.313  11.155 -1.7185 -0.4035 -2.0200
10688TIP3   OH253478   3.360   0.922  11.540 -1.1147  0.0463 -0.2055
10688TIP3    H153479   3.285   0.865  11.520 -1.7215  0.5707  0.5108
10688TIP3    H253480   3.382   0.902  11.631  0.7905 -1.3898 -0.9039
10689TIP3   OH253481   2.235   4.042  15.485  0.4342 -0.3970 -0.1233
10689TIP3    H153482   2.254   4.125  15.530 -2.6073 -0.8277  2.2659
10689TIP3    H253483   2.316   3.992  15.491  1.6806  1.5739  0.2704
10690TIP3   OH253484   5.257   5.458   0.966  1.1256 -0.3726  0.1108
10690TIP3    H153485   5.163   5.441   0.962  0.9061  0.9041 -1.0680
10690TIP3    H253486   5.279   5.489   0.878  2.7457 -1.0710  0.2505
10691TIP3   OH253487   4.185   2.200  14.215 -0.3751 -0.3671 -0.0433
10691TIP3    H153488   4.095   2.192  14.246 -0.3766  0.5869  0.2335
10691TIP3    H253489   4.235   2.139  14.269 -0.8523 -0.9050 -0.2017
10692TIP3   OH253490   4.433   0.327  12.418  0.2923 -0.5619 -0.4637
10692TIP3    H153491   4.422   0.280  12.501  2.0711 -0.2755 -0.0131
10692TIP3    H253492   4.471   0.262  12.359  0.6388 -0.3073 -0.5241
10693TIP3   OH253493   0.675   0.220   2.435  0.8213  0.3916 -0.0086
10693TIP3    H153494   0.767   0.215   2.409  0.4896  0.4636 -1.2770
10693TIP3    H253495   0.651   0.129   2.454  1.2461  0.4211  0.7248
10694TIP3   OH253496   4.312   1.916   2.808 -0.1641 -0.3009 -0.0401
10694TIP3    H153497   4.358   1.836   2.783  0.1341  0.3514 -1.7992
10694TIP3    H253498   4.231   1.886   2.848  1.1261 -1.4698  1.8618
10695TIP3   OH253499   1.419   0.061   2.116 -0.0706  0.0604 -0.1238
10695TIP3    H153500   1.347   0.115   2.150  0.7724  1.1002  0.0614
10695TIP3    H253501   1.475   0.122   2.069  0.4016 -0.8386 -0.7616
10696TIP3   OH253502   3.743   1.993   5.161  0.5055  0.1540  0.4386
10696TIP3    H153503   3.651   1.969   5.172  0.6060 -0.3041  0.2756
10696TIP3    H253504   3.746   2.037   5.076  0.7060 -1.2133 -0.2855
10697TIP3   OH253505   1.756   1.643   1.856  0.2841 -0.2957  0.0526
10697TIP3    H153506   1.758   1.731   1.818 -1.5582 -0.1295  0.2277
10697TIP3    H253507   1.711   1.590   1.791  1.3602 -1.1176 -0.0369
10698TIP3   OH253508   5.588   3.486   3.155 -0.5689  0.0748  0.7450
10698TIP3    H153509   5.553   3.400   3.130 -0.2386 -0.1267  0.9625
10698TIP3    H253510   5.579   3.540   3.076 -1.4502  0.0565  0.8238
10699TIP3   OH253511   3.185   6.064   5.144  0.2165 -0.2103  0.4422
10699TIP3    H153512   3.203   6.135   5.083 -1.0496 -0.1075  0.1760
10699TIP3    H253513   3.214   6.098   5.229  3.4005 -0.9071 -0.2307
10700TIP3   OH253514   2.755   2.659   5.130  0.3400 -0.2579  0.2279
10700TIP3    H153515   2.804   2.739   5.113 -0.5575  0.1979 -0.2924
10700TIP3    H253516   2.682   2.687   5.186  1.8069 -1.2807  2.8576
10701TIP3   OH253517   5.934   2.976  13.831 -0.2347  0.2000  0.4052
10701TIP3    H153518   5.944   3.044  13.765  0.4722  1.0850  1.3824
10701TIP3    H253519   5.965   2.896  13.789 -0.3392  0.6318 -0.5082
10702TIP3   OH253520   1.092   5.477  12.777 -0.2090 -0.1757  0.2788
10702TIP3    H153521   1.062   5.458  12.866  0.3249  1.2004  0.7792
10702TIP3    H253522   1.067   5.400  12.727 -1.8459 -0.3684  1.3101
10703TIP3   OH253523   4.146   3.361   5.372 -0.5444  0.3002  0.3503
10703TIP3    H153524   4.070   3.344   5.427 -1.2454 -1.7300 -1.1358
10703TIP3    H253525   4.215   3.305   5.407 -0.1141  1.1132  0.8466
10704TIP3   OH253526   0.092   5.785  10.638  0.0035 -0.5844  0.3053
10704TIP3    H153527   0.017   5.742  10.679 -2.7386  1.2104 -2.3635
10704TIP3    H253528   0.091   5.754  10.548  0.1306  2.2122 -0.7539
10705TIP3   OH253529   5.836   0.850   6.024 -0.0070 -0.1704 -0.1434
10705TIP3    H153530   5.794   0.792   6.088  0.0519 -1.0526 -0.8862
10705TIP3    H253531   5.927   0.857   6.053 -0.2056  0.2113  0.4002
10706TIP3   OH253532   5.770   3.689  15.773  0.3815 -0.0869 -0.1384
10706TIP3    H153533   5.711   3.622  15.806 -0.0018  0.7218  0.9137
10706TIP3    H253534   5.850   3.679  15.826 -0.7500  2.1377  2.2341
10707TIP3   OH253535   2.730   2.889   4.687  0.0425  0.0918 -0.5508
10707TIP3    H153536   2.807   2.944   4.669  0.2840 -0.5877 -1.7178
10707TIP3    H253537   2.665   2.920   4.623 -0.2637 -0.1051 -0.3329
10708TIP3   OH253538   0.245   4.506  13.456  0.7234  0.1615  0.2948
10708TIP3    H153539   0.309   4.521  13.387  0.1841 -0.4580 -0.3453
10708TIP3    H253540   0.247   4.412  13.472 -1.2835 -0.1487 -0.9907
10709TIP3   OH253541   3.800   6.239  12.650 -0.2062 -0.3155 -0.5382
10709TIP3    H153542   3.809   6.146  12.670 -2.0541 -0.1201  1.4916
10709TIP3    H253543   3.845   6.284  12.721 -0.4194  0.3684 -0.8265
10710TIP3   OH253544   4.290   0.889   2.815 -0.2662  0.4899  0.4073
10710TIP3    H153545   4.297   0.893   2.910 -1.3648 -0.7090  0.5547
10710TIP3    H253546   4.381   0.889   2.784  0.1173  2.8582  1.3180
10711TIP3   OH253547   5.619   2.497  11.276 -0.2887 -0.5300  0.6043
10711TIP3    H153548   5.597   2.546  11.197 -0.3621 -2.0753 -0.3865
10711TIP3    H253549   5.534   2.470  11.311 -0.2177 -1.8218 -0.1372
10712TIP3   OH253550   2.043   5.069  13.526  0.1929  0.7146 -0.1648
10712TIP3    H153551   2.016   4.984  13.490  1.8457  0.2318 -0.3975
10712TIP3    H253552   2.130   5.084  13.487 -0.2323  2.7181 -0.4383
10713TIP3   OH253553   1.728   2.232   4.537  0.2961 -0.0225 -0.0295
10713TIP3    H153554   1.720   2.307   4.478 -0.4653 -0.3102 -0.2995
10713TIP3    H253555   1.658   2.244   4.601  0.5679 -0.1759  0.3024
10714TIP3   OH253556   0.709   3.732  13.222  0.3492  0.2963 -0.1605
10714TIP3    H153557   0.623   3.773  13.220  2.4991  5.5144 -0.7080
10714TIP3    H253558   0.738   3.741  13.313  1.0580  0.3619 -0.3895
10715TIP3   OH253559   1.835   5.205  16.232 -0.0541 -0.0770  0.5011
10715TIP3    H153560   1.842   5.289  16.187  0.0702 -1.0713 -1.4616
10715TIP3    H253561   1.840   5.226  16.325 -0.9494  2.1660  0.0950
10716TIP3   OH253562   6.184   1.414  12.472  0.0209 -0.7355  0.8035
10716TIP3    H153563   6.093   1.436  12.491 -1.1613 -2.9115 -1.6121
10716TIP3    H253564   6.214   1.365  12.549 -1.8617 -2.4228  0.5453
10717TIP3   OH253565   6.310   0.407   0.297  0.0619  0.6501 -0.0901
10717TIP3    H153566   6.386   0.453   0.334 -0.6932 -0.7994  3.6620
10717TIP3    H253567   6.235   0.460   0.323 -0.4999 -0.3766  0.4522
10718TIP3   OH253568   1.203   3.483   1.820 -0.2979  0.3677  0.7382
10718TIP3    H153569   1.109   3.501   1.819 -0.7789 -1.8798  0.1576
10718TIP3    H253570   1.210   3.390   1.797  2.0504  0.3816  1.1607
10719TIP3   OH253571   4.915   5.285  16.425  0.1812 -0.4942  0.2624
10719TIP3    H153572   4.966   5.256  16.349  1.6053  3.2958 -0.4487
10719TIP3    H253573   4.825   5.262  16.403  0.7117 -0.6164 -2.0183
10720TIP3   OH253574   0.134   0.307  12.693 -0.2518 -0.8472  0.4838
10720TIP3    H153575   0.176   0.238  12.745  0.5496  0.4777  1.6526
10720TIP3    H253576   0.085   0.358  12.758 -2.0583 -1.1502 -0.5699
10721TIP3   OH253577   4.052   6.144  14.455  0.2145  0.0275 -0.1995
10721TIP3    H153578   3.963   6.119  14.480 -0.1146  0.9953 -0.3730
10721TIP3    H253579   4.057   6.125  14.362 -0.4108  1.5776 -0.5863
10722TIP3   OH253580   4.869   0.330   2.124  0.6088  0.3930 -0.5092
10722TIP3    H153581   4.794   0.272   2.138  0.0786  1.1912  0.0769
10722TIP3    H253582   4.926   0.313   2.199  0.5359  0.5046 -0.4286
10723TIP3   OH253583   3.149   1.488   1.409 -0.6399 -0.4044  0.1939
10723TIP3    H153584   3.097   1.500   1.488 -0.9677  0.1122 -0.0922
10723TIP3    H253585   3.097   1.528   1.340 -0.0185 -0.1805 -0.1539
10724TIP3   OH253586   5.855   5.952   5.022 -0.0989  0.1783 -0.1716
10724TIP3    H153587   5.817   6.026   5.070 -0.3961 -0.6197  0.8502
10724TIP3    H253588   5.948   5.953   5.046  0.5089  1.8334 -2.2901
10725TIP3   OH253589   3.815   0.223   5.223  0.0466  0.3521  0.3289
10725TIP3    H153590   3.834   0.315   5.243 -0.9709  0.2564  1.8730
10725TIP3    H253591   3.724   0.224   5.193  0.7398  0.1289 -1.9714
10726TIP3   OH253592   1.939   5.873  12.742  0.3862  0.2664 -0.3284
10726TIP3    H153593   1.959   5.851  12.651 -1.2073  0.6570 -0.8122
10726TIP3    H253594   1.900   5.794  12.778 -0.5270  0.6222 -0.5058
10727TIP3   OH253595   0.527   1.839   0.389 -0.2694 -0.2559  0.5151
10727TIP3    H153596   0.486   1.805   0.469  0.7998 -0.0449  1.1712
10727TIP3    H253597   0.571   1.764   0.351 -2.6796 -0.9439 -1.1924
10728TIP3   OH253598   4.769   1.119  15.442 -0.1795  0.4162 -0.0088
10728TIP3    H153599   4.727   1.146  15.524 -0.0598 -2.9598  1.2971
10728TIP3    H253600   4.847   1.174  15.437  0.3404  0.0816  2.6893
10729TIP3   OH253601   3.921   0.263  12.958 -0.4678  0.7684  0.0219
10729TIP3    H153602   3.920   0.224  12.871 -1.9715 -1.5131  0.9473
10729TIP3    H253603   3.926   0.187  13.017 -1.6281  2.1214  1.9487
10730TIP3   OH253604   3.176   1.060  13.761  0.5381  0.3089 -0.0175
10730TIP3    H153605   3.154   1.152  13.744  0.8041  0.1547 -1.3029
10730TIP3    H253606   3.112   1.031  13.825  0.8292  1.5627  0.8852
10731TIP3   OH253607   2.553   5.141  14.335 -0.2606  0.1417 -0.0148
10731TIP3    H153608   2.521   5.056  14.366 -0.8006 -0.5731 -2.3068
10731TIP3    H253609   2.483   5.174  14.279  0.1539  1.8825  0.4384
10732TIP3   OH253610   5.400   0.081  17.175 -0.0382  0.0628 -0.1871
10732TIP3    H153611   5.340   0.009  17.158  0.3544 -0.2189 -0.3831
10732TIP3    H253612   5.397   0.134  17.096 -1.9206  1.4362  0.7147
10733TIP3   OH253613   0.677   4.954   1.466 -0.0305 -0.1852  0.1072
10733TIP3    H153614   0.640   4.904   1.539  1.8327 -0.3389  1.0085
10733TIP3    H253615   0.771   4.956   1.484  0.1326  2.5182 -0.5961
10734TIP3   OH253616   3.663   3.742  10.724 -0.7019 -0.7715  0.0555
10734TIP3    H153617   3.749   3.732  10.683  0.8658  2.4524  2.1116
10734TIP3    H253618   3.623   3.815  10.677 -0.2504  0.7964  1.9583
10735TIP3   OH253619   6.733   5.072   4.904  0.3126 -0.1055  0.2241
10735TIP3    H153620   6.659   5.051   4.849 -0.5887  0.7711  1.0554
10735TIP3    H253621   6.783   5.136   4.853 -0.2320  0.3084  0.1988
10736TIP3   OH253622   4.811   5.530   2.642 -0.0617 -0.5262 -0.0491
10736TIP3    H153623   4.800   5.435   2.650  0.9057 -0.6585 -0.1657
10736TIP3    H253624   4.724   5.563   2.621 -0.5970 -1.2914  0.8822
10737TIP3   OH253625   5.004   5.712   4.782 -0.4608  0.1204 -0.2516
10737TIP3    H153626   5.010   5.798   4.739  1.5530 -0.2471 -0.8116
10737TIP3    H253627   5.082   5.708   4.837 -1.0110 -1.0135  0.4879
10738TIP3   OH253628   6.713   2.026   0.388 -0.3094  0.3497  0.5097
10738TIP3    H153629   6.709   2.095   0.455  1.8721 -1.5293  2.7326
10738TIP3    H253630   6.802   1.991   0.394 -1.0552 -2.0950 -1.1319
10739TIP3   OH253631   0.787   1.611  17.160  0.0161  0.3826 -0.2695
10739TIP3    H153632   0.722   1.597  17.229 -1.2558  1.0336 -1.2723
10739TIP3    H253633   0.748   1.571  17.082  0.9090  0.6205 -0.8574
10740TIP3   OH253634   1.005   1.559  11.787  0.0688 -0.0602  0.5350
10740TIP3    H153635   0.926   1.613  11.798  0.4678  0.4296  1.0461
10740TIP3    H253636   1.040   1.586  11.703  0.2144  0.4214  0.7447
10741TIP3   OH253637   5.047   1.363  16.139 -0.4552 -0.6569 -0.4493
10741TIP3    H153638   5.042   1.278  16.095  0.2001 -0.1987 -1.4261
10741TIP3    H253639   5.022   1.427  16.072 -2.0972 -0.1405  0.5972
10742TIP3   OH253640   1.643   1.275   0.265  0.0577  0.0638  0.7812
10742TIP3    H153641   1.638   1.193   0.217 -0.7446 -0.0930  1.1093
10742TIP3    H253642   1.636   1.343   0.198  0.8757 -0.1292  0.4965
10743TIP3   OH253643   2.171   3.068   0.266  0.4605 -0.1697  0.5587
10743TIP3    H153644   2.218   3.138   0.221 -1.3460 -0.3169 -1.7316
10743TIP3    H253645   2.105   3.113   0.318  1.3028 -0.0913  1.6024
10744TIP3   OH253646   2.812   0.388   2.332  0.0264  0.2119  0.7646
10744TIP3    H153647   2.837   0.426   2.248 -0.8064  0.6978  0.7182
10744TIP3    H253648   2.776   0.462   2.381 -2.8848 -0.6910  0.1887
10745TIP3   OH253649   4.142   5.190  12.147 -0.5620  0.6033 -0.0171
10745TIP3    H153650   4.069   5.138  12.112  0.8054 -0.7205 -1.0206
10745TIP3    H253651   4.200   5.202  12.072 -1.3192  4.6773 -0.1764
10746TIP3   OH253652   2.211   1.883  15.490  0.0012 -0.3402 -0.1435
10746TIP3    H153653   2.251   1.823  15.427 -0.0434 -0.0029 -0.4968
10746TIP3    H253654   2.252   1.861  15.574 -1.1408 -1.9093  0.0358
10747TIP3   OH253655   6.528   6.205  13.957 -0.1588  0.0175  0.1749
10747TIP3    H153656   6.505   6.118  13.925 -0.2760 -0.5585  1.7716
10747TIP3    H253657   6.623   6.207  13.956 -0.1523 -0.2199  0.3736
10748TIP3   OH253658   2.324   6.682   5.382 -0.0213 -0.2943  0.1333
10748TIP3    H153659   2.359   6.724   5.461 -0.5639 -1.2750  0.9249
10748TIP3    H253660   2.287   6.599   5.414  0.0541 -0.8685 -1.2089
10749TIP3   OH253661   3.911   6.493  15.068 -0.6214  0.0352  0.1904
10749TIP3    H153662   3.857   6.447  15.004 -0.7825 -0.6521  0.8092
10749TIP3    H253663   3.997   6.501  15.026 -0.6385 -0.6887  0.0158
10750TIP3   OH253664   6.753   2.530  14.796  0.2348  0.5194 -0.5325
10750TIP3    H153665   6.687   2.496  14.736 -0.6918  2.8075 -0.9143
10750TIP3    H253666   6.832   2.479  14.776 -0.5830 -0.1319 -2.3074
10751TIP3   OH253667   2.154   2.953   3.127 -0.1026 -0.5755 -0.7606
10751TIP3    H153668   2.111   3.011   3.191  1.4539  1.1268 -1.1731
10751TIP3    H253669   2.245   2.950   3.154  0.5040 -0.1789 -2.6166
10752TIP3   OH253670   5.292   6.225   0.284  0.4808 -0.2932 -0.2613
10752TIP3    H153671   5.223   6.178   0.238 -0.0654 -0.9199  1.1388
10752TIP3    H253672   5.372   6.178   0.262  0.3695 -0.0392 -1.2632
10753TIP3   OH253673   2.359   5.032   5.869  1.4500  0.7723 -0.3202
10753TIP3    H153674   2.410   5.037   5.787  1.1878 -1.1810 -0.6698
10753TIP3    H253675   2.345   4.938   5.881 -1.5082  1.1828  0.1243
10754TIP3   OH253676   4.026   5.600   3.676  0.6936 -0.4401  0.4220
10754TIP3    H153677   4.047   5.674   3.732  0.7517  0.2432 -0.4757
10754TIP3    H253678   3.976   5.541   3.732  0.2625  0.4797  1.0312
10755TIP3   OH253679   6.514   0.592   0.375 -0.1628 -0.4764 -0.1711
10755TIP3    H153680   6.534   0.678   0.411  1.2415 -0.7296 -0.2882
10755TIP3    H253681   6.578   0.534   0.415 -1.4732 -1.6006  0.3783
10756TIP3   OH253682   1.096   4.239  17.233 -0.2662 -0.3106  0.3946
10756TIP3    H153683   1.040   4.262  17.158 -0.2671 -0.2884  0.4030
10756TIP3    H253684   1.184   4.264  17.206  0.2354 -2.9817 -0.8062
10757TIP3   OH253685   6.160   0.958   4.668  0.3364  0.4161 -0.0580
10757TIP3    H153686   6.131   1.037   4.714 -1.6256 -0.6028  0.5875
10757TIP3    H253687   6.211   0.990   4.594  0.3084  2.2497  0.6665
10758TIP3   OH253688   1.748   4.246   2.584 -0.1422 -0.0462 -0.3443
10758TIP3    H153689   1.756   4.303   2.661  0.4394  1.4931 -1.4929
10758TIP3    H253690   1.723   4.305   2.513 -1.4460 -1.5532 -1.2055
10759TIP3   OH253691   0.983   0.533   0.386 -0.2863 -0.0885 -0.3689
10759TIP3    H153692   0.934   0.591   0.444  0.1511  0.0956 -0.1828
10759TIP3    H253693   1.036   0.592   0.332 -1.2330 -0.2063 -1.4835
10760TIP3   OH253694   1.114   2.697  14.772 -0.0367  0.0001 -0.2774
10760TIP3    H153695   1.161   2.707  14.690  0.2643  1.9829  0.0953
10760TIP3    H253696   1.137   2.609  14.802 -0.7341 -1.0634 -2.6303
10761TIP3   OH253697   6.506   2.404  15.579  0.0540 -0.1668  0.6347
10761TIP3    H153698   6.594   2.439  15.566 -0.7028  1.9718  0.9109
10761TIP3    H253699   6.491   2.413  15.673  0.3484 -2.7239  1.0122
10762TIP3   OH253700   3.692   2.715  16.789  0.2663  0.0481  0.1214
10762TIP3    H153701   3.627   2.696  16.721 -0.0306  2.4443 -0.3781
10762TIP3    H253702   3.653   2.680  16.869 -0.5628 -0.5798 -0.5294
10763TIP3   OH253703   2.441   0.004   5.903 -0.0431 -0.4541  0.4868
10763TIP3    H153704   2.370   0.067   5.915  0.9778  1.1736 -1.3776
10763TIP3    H253705   2.516   0.045   5.947  1.6888  1.8232 -3.9378
10764TIP3   OH253706   4.207   6.608  12.390  0.0855  0.4887 -0.0032
10764TIP3    H153707   4.246   6.656  12.463 -1.3376  0.6679  0.6855
10764TIP3    H253708   4.269   6.618  12.318  1.0618  1.1299  0.8974
10765TIP3   OH253709   0.935   2.329  10.564 -0.2128  0.2889  0.1681
10765TIP3    H153710   0.897   2.295  10.644  1.8703  0.1932  1.1932
10765TIP3    H253711   0.905   2.270  10.495  0.7286 -1.7390  1.4279
10766TIP3   OH253712   0.553   3.077   3.105  0.4481 -0.0874 -0.1163
10766TIP3    H153713   0.647   3.098   3.104 -0.2085  4.2785  2.6444
10766TIP3    H253714   0.523   3.097   3.017  1.7843  0.5899 -0.4485
10767TIP3   OH253715   0.147   1.774  15.888  0.2669  0.0767 -0.1011
10767TIP3    H153716   0.233   1.808  15.911  0.1371  0.4143 -0.1129
10767TIP3    H253717   0.143   1.688  15.931  0.7971 -0.1592 -0.5001
10768TIP3   OH253718   4.166   5.367  13.781  0.9771 -0.1074 -0.2124
10768TIP3    H153719   4.092   5.426  13.767  0.6407 -0.4788 -0.0076
10768TIP3    H253720   4.169   5.353  13.875  0.5226 -1.0891 -0.3321
10769TIP3   OH253721   4.302   6.426  16.105 -0.1039  0.1319  0.2434
10769TIP3    H153722   4.326   6.488  16.036  0.2423 -0.5441 -0.2470
10769TIP3    H253723   4.380   6.373  16.119 -1.1039 -1.8306 -1.1016
10770TIP3   OH253724   2.822   2.514  13.757  0.3231  0.3341 -0.0725
10770TIP3    H153725   2.906   2.471  13.763  0.1114 -0.0018  0.5131
10770TIP3    H253726   2.843   2.605  13.732  0.8834  0.3819  0.5553
10771TIP3   OH253727   3.835   5.176  11.239  0.4493  0.0140 -0.4302
10771TIP3    H153728   3.919   5.207  11.205  1.1922  0.4452  1.6469
10771TIP3    H253729   3.816   5.098  11.187  0.9027  1.2261 -2.5679
10772TIP3   OH253730   6.568   2.036  15.349  0.5149 -0.3962  0.1687
10772TIP3    H153731   6.569   1.941  15.364  1.0170 -0.4135  0.0536
10772TIP3    H253732   6.533   2.045  15.260 -0.6094 -0.4046  0.6036
10773TIP3   OH253733   4.484   1.556  14.095 -0.5355 -0.0130  0.6874
10773TIP3    H153734   4.502   1.488  14.030  0.9324 -0.3451  1.3869
10773TIP3    H253735   4.476   1.509  14.178 -0.0519  0.6067  1.0993
10774TIP3   OH253736   2.136   4.759   3.843 -0.5363  0.3926 -0.2965
10774TIP3    H153737   2.087   4.762   3.925 -1.0727  2.3096 -0.6414
10774TIP3    H253738   2.069   4.766   3.775  0.0169  0.2560 -0.8686
10775TIP3   OH253739   0.933   2.231   1.549 -0.3459 -0.7066 -0.0076
10775TIP3    H153740   1.004   2.167   1.558  0.5256 -0.0096 -1.5116
10775TIP3    H253741   0.972   2.314   1.576 -0.8226 -0.4488 -0.0955
10776TIP3   OH253742   2.939   1.785   0.535 -0.5032  0.6852  0.4546
10776TIP3    H153743   2.878   1.729   0.582  0.3122  1.0352  1.9884
10776TIP3    H253744   3.022   1.774   0.581  0.4137  0.8519 -1.0724
10777TIP3   OH253745   6.416   6.456   1.245 -0.2794 -0.1530 -0.0323
10777TIP3    H153746   6.357   6.405   1.300 -0.0567  0.6366  0.9717
10777TIP3    H253747   6.376   6.453   1.158 -3.7335  3.0444  1.1523
10778TIP3   OH253748   3.616   2.306   4.512  1.3700 -0.3320 -0.0431
10778TIP3    H153749   3.652   2.272   4.594  1.7455 -0.3209 -0.1993
10778TIP3    H253750   3.523   2.322   4.531  1.9322  1.9748  1.1313
10779TIP3   OH253751   4.714   3.280   1.540 -0.1956 -0.3801 -0.2652
10779TIP3    H153752   4.723   3.310   1.449 -1.1503  0.8224  0.0135
10779TIP3    H253753   4.694   3.359   1.590 -1.8637 -1.3127  0.6439
10780TIP3   OH253754   0.197   3.914   2.359 -0.0333  0.1178 -0.0957
10780TIP3    H153755   0.270   3.853   2.361 -0.2442 -0.1454 -0.3113
10780TIP3    H253756   0.204   3.962   2.442 -1.9147 -2.6534  1.8592
10781TIP3   OH253757   2.402   0.860   6.053 -0.0002  0.1105 -0.1874
10781TIP3    H153758   2.455   0.931   6.088  1.4873 -1.2687  0.4758
10781TIP3    H253759   2.346   0.833   6.125  0.4474 -0.2928  0.0213
10782TIP3   OH253760   4.662   2.895   0.257 -0.3218  0.7110 -0.0813
10782TIP3    H153761   4.669   2.983   0.295 -1.1004  0.5291  0.5024
10782TIP3    H253762   4.602   2.904   0.184  0.1499  0.7969 -0.4652
10783TIP3   OH253763   5.799   3.851  12.786 -0.0337  0.3132  0.3453
10783TIP3    H153764   5.735   3.834  12.855  0.4153 -0.2994  0.6230
10783TIP3    H253765   5.756   3.913  12.727 -1.0734 -0.4898  0.2437
10784TIP3   OH253766   6.264   0.845   5.207 -0.3126  0.0758  0.9642
10784TIP3    H153767   6.195   0.808   5.152  1.4025 -0.7807 -0.7138
10784TIP3    H253768   6.328   0.880   5.145  1.0499  0.3351  2.4525
10785TIP3   OH253769   5.087   1.869  17.307  0.3698 -1.0293 -0.1416
10785TIP3    H153770   5.067   1.784  17.267 -1.0239 -0.5783 -0.4714
10785TIP3    H253771   5.091   1.930  17.233  2.5057 -0.9648 -0.0287
10786TIP3   OH253772   5.885   5.162  12.385 -0.5522 -0.3484  0.0168
10786TIP3    H153773   5.843   5.151  12.470  0.2542 -0.4385  0.4174
10786TIP3    H253774   5.814   5.155  12.321 -1.3933  1.0979  0.7483
10787TIP3   OH253775   4.733   1.185  14.918 -1.0892 -0.5668 -0.2851
10787TIP3    H153776   4.649   1.186  14.964  0.2536  1.5915  2.4412
10787TIP3    H253777   4.749   1.276  14.894  2.0532 -0.0478  2.8151
10788TIP3   OH253778   2.236   2.142   5.905 -0.3444 -0.0841  0.6428
10788TIP3    H153779   2.209   2.132   5.813  1.4230 -2.4802  0.2799
10788TIP3    H253780   2.331   2.139   5.902 -0.2733 -1.0554  2.6197
10789TIP3   OH253781   6.259   1.793  11.260 -0.0982 -0.6867 -0.1983
10789TIP3    H153782   6.272   1.720  11.200  2.5831  1.1615 -2.1256
10789TIP3    H253783   6.301   1.765  11.342 -1.2008 -2.1249 -0.0893
10790TIP3   OH253784   6.055   3.641   0.118  0.2050 -0.2117 -0.6748
10790TIP3    H153785   5.961   3.654   0.106  0.3357  2.2301  0.2956
10790TIP3    H253786   6.068   3.645   0.213  1.3555  0.1373 -0.8252
10791TIP3   OH253787   2.314   3.893  10.760 -0.9266 -0.1660 -0.3356
10791TIP3    H153788   2.291   3.981  10.731  2.5062  0.4167 -1.7287
10791TIP3    H253789   2.333   3.902  10.853  2.2749  1.3541 -1.0311
10792TIP3   OH253790   3.636   2.010  14.879 -0.0996 -0.0382 -0.1835
10792TIP3    H153791   3.571   1.940  14.870  1.8363 -1.9584 -0.2803
10792TIP3    H253792   3.720   1.964  14.878  1.2660  2.2897  0.2562
10793TIP3   OH253793   2.887   5.173  15.494  0.4308 -0.5111 -0.2714
10793TIP3    H153794   2.932   5.169  15.410  1.5053  0.5558  0.2225
10793TIP3    H253795   2.833   5.094  15.497  1.6593 -1.4129 -1.2409
10794TIP3   OH253796   6.549   0.746  12.464  0.5444  0.7432  0.6074
10794TIP3    H153797   6.589   0.821  12.508 -0.1505  1.6554 -0.2781
10794TIP3    H253798   6.467   0.779  12.429  0.0435 -0.5326  0.5004
10795TIP3   OH253799   4.123   6.598   2.437 -0.3575  0.1705 -0.5754
10795TIP3    H153800   4.069   6.660   2.486 -0.6718 -0.1713 -0.4854
10795TIP3    H253801   4.213   6.616   2.466 -0.6282 -0.7515  0.9562
10796TIP3   OH253802   6.360   6.153   5.727 -0.5483 -0.4643 -0.4936
10796TIP3    H153803   6.447   6.126   5.698  0.3963  1.2445  0.5671
10796TIP3    H253804   6.327   6.208   5.656 -0.6496 -0.8708 -0.7662
10797TIP3   OH253805   5.280   5.421  11.539 -0.5872  0.1563 -0.0377
10797TIP3    H153806   5.282   5.417  11.443 -1.4472 -2.0185 -0.0155
10797TIP3    H253807   5.334   5.347  11.567  0.3129  1.2352  1.2016
10798TIP3   OH253808   6.067   5.921   1.000 -0.1220  0.3030 -0.6011
10798TIP3    H153809   5.987   5.878   0.970  0.0847  0.1899 -0.9892
10798TIP3    H253810   6.134   5.896   0.936 -0.3169  2.4111 -1.6960
10799TIP3   OH253811   1.568   5.833  13.483  0.1275 -0.0844  0.0077
10799TIP3    H153812   1.589   5.740  13.472  2.6100  0.2943  0.8007
10799TIP3    H253813   1.582   5.849  13.577 -0.0133  1.1305 -0.1665
10800TIP3   OH253814   1.116   3.157  17.204 -0.6525  0.3800  0.0378
10800TIP3    H153815   1.106   3.062  17.213 -0.3550  0.4669  1.4989
10800TIP3    H253816   1.097   3.174  17.111  2.0133 -1.4341 -0.9762
10801TIP3   OH253817   3.639   4.295   0.620 -0.3805 -0.5199 -0.6696
10801TIP3    H153818   3.629   4.298   0.715 -1.1197 -1.6379 -0.6823
10801TIP3    H253819   3.731   4.276   0.605 -0.2410 -0.2318 -0.1851
10802TIP3   OH253820   4.652   4.053  11.270 -0.4561  0.4467 -0.0659
10802TIP3    H153821   4.573   4.055  11.217 -0.0237 -0.5532 -0.7658
10802TIP3    H253822   4.723   4.075  11.209  0.1243 -1.3265 -0.0894
10803TIP3   OH253823   3.079   0.270   2.112 -0.3712 -0.1135  0.0099
10803TIP3    H153824   3.002   0.324   2.097  0.2307  0.3770 -1.6148
10803TIP3    H253825   3.091   0.270   2.207 -0.8258  2.0248  0.1192
10804TIP3   OH253826   2.725   5.580   4.964 -0.4370  0.0030  0.2889
10804TIP3    H153827   2.703   5.604   4.874 -2.0481 -0.6895  0.4695
10804TIP3    H253828   2.715   5.485   4.966  1.0382 -0.1694  0.8501
10805TIP3   OH253829   3.235   1.689   2.360  0.2398  0.4155  0.1696
10805TIP3    H153830   3.306   1.634   2.392 -0.4873 -0.2799  0.6199
10805TIP3    H253831   3.259   1.777   2.387 -0.2969 -0.1087  2.6474
10806TIP3   OH253832   0.883   4.727   6.245 -0.2722  0.3825  0.0386
10806TIP3    H153833   0.964   4.762   6.282 -0.4478  0.8020  0.0224
10806TIP3    H253834   0.815   4.786   6.274 -0.5610  0.0971 -0.0497
10807TIP3   OH253835   0.975   4.542   0.621 -0.3065  0.3964 -0.2082
10807TIP3    H153836   1.019   4.489   0.688  0.1508 -0.1964 -0.9544
10807TIP3    H253837   1.040   4.552   0.552 -1.4259 -0.7742 -1.4943
10808TIP3   OH253838   4.392   6.263  12.164 -0.4691  0.1995  0.3599
10808TIP3    H153839   4.376   6.198  12.231 -1.4318  1.0338  0.9587
10808TIP3    H253840   4.310   6.270  12.116 -0.2624  0.7021  0.0673
10809TIP3   OH253841   6.648   3.682   4.500  0.2359 -0.1697 -0.9581
10809TIP3    H153842   6.553   3.673   4.509  0.5069 -3.2616  0.2217
10809TIP3    H253843   6.681   3.592   4.505  3.3135  0.8673 -0.3124
10810TIP3   OH253844   4.326   6.760  11.267 -0.2555 -0.0924  0.1828
10810TIP3    H153845   4.279   6.710  11.200 -2.1361  0.2777  1.1577
10810TIP3    H253846   4.324   6.850  11.236 -0.0875 -0.0819  0.1974
10811TIP3   OH253847   0.159   2.884   2.453  0.2078  0.4668 -0.1657
10811TIP3    H153848   0.253   2.882   2.471 -0.0762 -0.2615  1.3622
10811TIP3    H253849   0.148   2.828   2.375  1.0561  0.7743 -0.5158
10812TIP3   OH253850   1.105   2.168  13.421 -0.0404  0.4848  0.1200
10812TIP3    H153851   1.058   2.244  13.456  1.3162  2.6001 -2.2518
10812TIP3    H253852   1.187   2.165  13.470 -1.0357 -0.9484  1.7788
10813TIP3   OH253853   0.491   5.078   1.006 -0.4030 -0.5870 -0.1211
10813TIP3    H153854   0.569   5.024   1.014  0.3638  0.4949 -0.1004
10813TIP3    H253855   0.487   5.127   1.088 -1.6278 -1.2679  0.2674
10814TIP3   OH253856   5.798   3.352  10.651 -0.0497 -0.3822  0.6418
10814TIP3    H153857   5.810   3.411  10.577  0.2501  0.3998  1.3077
10814TIP3    H253858   5.839   3.270  10.623  0.8603  0.1791  0.2807
10815TIP3   OH253859   2.783   6.763  15.708  0.3036 -0.0298 -0.5371
10815TIP3    H153860   2.799   6.669  15.702  0.1206  0.0128 -1.7991
10815TIP3    H253861   2.688   6.771  15.713  0.2907  0.1155 -1.0081
10816TIP3   OH253862   1.549   5.465  13.965 -0.6642  0.0022 -0.1403
10816TIP3    H153863   1.570   5.440  13.875 -0.6657  1.0375 -0.4374
10816TIP3    H253864   1.629   5.444  14.015 -0.1889  0.6331 -0.6220
10817TIP3   OH253865   0.752   2.678   2.424  0.2955  0.5704  0.0320
10817TIP3    H153866   0.687   2.748   2.417  0.9414  1.1233 -0.7384
10817TIP3    H253867   0.821   2.704   2.362  0.7997 -0.4809  0.1355
10818TIP3   OH253868   3.207   2.554   2.839  0.7185 -0.5444  0.2761
10818TIP3    H153869   3.133   2.513   2.883  1.6639 -1.2067  1.2734
10818TIP3    H253870   3.169   2.591   2.759 -0.5965 -1.2649  0.5406
10819TIP3   OH253871   4.167   1.208  15.639 -0.0604  0.1691  0.6587
10819TIP3    H153872   4.091   1.205  15.581  0.8770 -1.6713 -0.5527
10819TIP3    H253873   4.243   1.200  15.581  0.9147 -1.8211  2.0702
10820TIP3   OH253874   6.686   4.982  14.078  0.0407 -0.3993 -0.4718
10820TIP3    H153875   6.771   4.957  14.116  0.2436  0.7892 -0.1139
10820TIP3    H253876   6.700   5.070  14.043 -0.2721 -1.2574 -2.9431
10821TIP3   OH253877   3.478   2.547  16.702 -0.6143  0.1265  0.1203
10821TIP3    H153878   3.428   2.534  16.783  1.2321 -0.6084  1.2079
10821TIP3    H253879   3.427   2.611  16.653 -1.9212  0.4204  1.7593
10822TIP3   OH253880   1.186   4.166  11.563  0.1251 -0.0601  0.0606
10822TIP3    H153881   1.253   4.226  11.530 -0.7558  1.2259  0.4882
10822TIP3    H253882   1.159   4.205  11.646 -1.1839 -0.5125 -0.1292
10823TIP3   OH253883   3.816   1.973  12.970  0.0923  0.2030  0.0037
10823TIP3    H153884   3.756   2.034  13.014 -0.4561 -0.1277 -0.2684
10823TIP3    H253885   3.776   1.957  12.884  0.9126  0.4798 -0.4384
10824TIP3   OH253886   3.644   1.615  14.056 -0.0177  0.3288  0.0453
10824TIP3    H153887   3.680   1.529  14.035 -0.6093  0.4826 -1.8374
10824TIP3    H253888   3.705   1.652  14.120  0.4744 -1.3094  0.5640
10825TIP3   OH253889   6.064   2.315  16.881  0.6952 -0.6561  0.4120
10825TIP3    H153890   6.147   2.267  16.889  0.6996 -0.5396  1.1193
10825TIP3    H253891   6.085   2.390  16.826  0.6956 -1.4368 -0.6989
10826TIP3   OH253892   3.020   4.614   0.010 -0.4880  0.7864  0.5125
10826TIP3    H153893   3.057   4.610   0.098 -1.6768 -0.7491  0.9699
10826TIP3    H253894   3.071   4.551  -0.040 -2.1682 -1.1009  1.0658
10827TIP3   OH253895   4.804   3.650   3.317  0.0569  0.2172  0.2483
10827TIP3    H153896   4.729   3.696   3.357  0.2005  0.0814  0.6842
10827TIP3    H253897   4.823   3.580   3.379  1.3776  1.0334  0.8016
10828TIP3   OH253898   6.550   3.987   2.353 -0.1548  0.3639  0.4155
10828TIP3    H153899   6.603   3.968   2.430 -1.0082  1.8138  1.4196
10828TIP3    H253900   6.576   4.076   2.326 -0.5988  0.2831 -0.3238
10829TIP3   OH253901   3.982   4.217  16.141  0.7676 -0.2705 -0.0754
10829TIP3    H153902   4.054   4.155  16.147  0.4854 -0.4797  1.5798
10829TIP3    H253903   3.985   4.267  16.223 -0.1408  0.6429 -0.5613
10830TIP3   OH253904   5.659   1.436  14.184  0.3205 -0.5564 -0.0997
10830TIP3    H153905   5.677   1.444  14.090  1.2782  0.8152  0.1668
10830TIP3    H253906   5.694   1.517  14.222 -0.4717 -0.8761  1.3854
10831TIP3   OH253907   0.332   3.063  11.678  0.2776  0.5228  0.5145
10831TIP3    H153908   0.391   3.104  11.741  1.5048  0.7684 -0.7582
10831TIP3    H253909   0.308   3.134  11.618  0.1526  0.0045 -0.0553
10832TIP3   OH253910   3.871   1.418  15.820 -0.4067  0.3616  0.1000
10832TIP3    H153911   3.835   1.347  15.874  1.0002  1.3609  2.5253
10832TIP3    H253912   3.794   1.464  15.787 -1.3570 -0.3370  1.2338
10833TIP3   OH253913   5.785   5.111  12.665  0.3054 -0.0705 -0.4661
10833TIP3    H153914   5.800   5.161  12.745 -1.2178  1.4229 -1.0449
10833TIP3    H253915   5.690   5.115  12.651  0.5828  0.3270 -2.7073
10834TIP3   OH253916   5.752   2.431   2.874 -0.3876  0.4170  0.4171
10834TIP3    H153917   5.709   2.477   2.801 -0.7822  0.5036  0.7055
10834TIP3    H253918   5.828   2.389   2.833  0.3748  1.8813  0.2578
10835TIP3   OH253919   5.604   3.319   6.049 -0.3773 -0.6460 -0.3931
10835TIP3    H153920   5.530   3.273   6.010 -0.8235 -2.0093  1.9153
10835TIP3    H253921   5.663   3.250   6.079 -0.2876  0.2501  1.6857
10836TIP3   OH253922   3.607   5.612  17.276 -0.5309  0.4918 -0.4999
10836TIP3    H153923   3.654   5.561  17.210  1.8922  0.6719  0.9722
10836TIP3    H253924   3.551   5.671  17.225  0.7283  0.1397 -2.3861
10837TIP3   OH253925   4.347   3.935   4.060 -0.1762  0.7415 -0.2940
10837TIP3    H153926   4.439   3.954   4.079 -0.2031 -0.5343  1.3153
10837TIP3    H253927   4.346   3.843   4.034 -0.6566  1.4910 -3.3129
10838TIP3   OH253928   5.713   4.459  15.559  0.1077 -0.3190  0.3589
10838TIP3    H153929   5.770   4.528  15.594  1.5316 -1.2254 -0.0881
10838TIP3    H253930   5.739   4.380  15.607  0.7906 -1.1985 -1.3877
10839TIP3   OH253931   0.088   5.140   3.347  0.2249  0.3169  0.4708
10839TIP3    H153932   0.081   5.235   3.357 -1.0132  0.3342 -0.4043
10839TIP3    H253933   0.067   5.124   3.256 -1.4537 -0.9566  1.0271
10840TIP3   OH253934   0.186   2.363  13.892 -0.1195 -0.0249 -0.0326
10840TIP3    H153935   0.155   2.447  13.923 -0.8442 -0.0404 -0.6864
10840TIP3    H253936   0.274   2.354  13.930 -1.2922 -0.4858  2.7720
10841TIP3   OH253937   6.163   4.822   4.459  0.7766 -0.9203 -0.6493
10841TIP3    H153938   6.079   4.849   4.496 -0.7881 -1.4822 -3.5600
10841TIP3    H253939   6.214   4.793   4.535 -1.3206  0.2211  1.3058
10842TIP3   OH253940   1.018   1.979  15.130 -0.4054  0.0229 -0.3388
10842TIP3    H153941   0.940   2.034  15.130 -0.2401  0.3979 -2.8036
10842TIP3    H253942   1.091   2.040  15.115 -0.2424 -0.7229 -3.4091
10843TIP3   OH253943   3.813   4.109   5.233  0.1434 -0.3180 -0.5958
10843TIP3    H153944   3.777   4.178   5.178  0.4934  1.8552  1.6882
10843TIP3    H253945   3.907   4.109   5.213 -0.2512 -2.6344 -3.0452
10844TIP3   OH253946   5.091   0.234   3.536  0.1354  0.7919  0.1170
10844TIP3    H153947   5.078   0.215   3.628  1.2015  1.6531  0.4604
10844TIP3    H253948   5.146   0.312   3.534 -1.2981  1.8524 -1.2306
10845TIP3   OH253949   1.731   4.008   2.424 -0.4242 -0.1888  0.0275
10845TIP3    H153950   1.810   3.955   2.428 -0.2747  0.0713  0.5840
10845TIP3    H253951   1.736   4.052   2.339  0.1375 -0.0027  0.1550
10846TIP3   OH253952   5.442   5.951   4.353  0.2574 -0.1132  0.2364
10846TIP3    H153953   5.533   5.932   4.378  0.2295 -3.3791 -1.5304
10846TIP3    H253954   5.390   5.898   4.414 -0.3686  0.3841  0.1342
10847TIP3   OH253955   0.040   3.051  15.623  0.2403  0.2415 -0.2389
10847TIP3    H153956   0.109   3.018  15.681  0.6357  2.1038  0.4169
10847TIP3    H253957   0.076   3.131  15.585 -1.2264  0.8034 -0.5408
10848TIP3   OH253958   1.533   1.759   0.933  0.0166 -0.2294  0.1969
10848TIP3    H153959   1.586   1.836   0.954 -1.0173  0.4741  0.3402
10848TIP3    H253960   1.461   1.763   0.996  0.4774 -1.8835  0.8577
10849TIP3   OH253961   0.507   3.074  14.197  0.3971 -0.2509 -0.2701
10849TIP3    H153962   0.499   3.024  14.279  0.5550  0.0956 -0.0428
10849TIP3    H253963   0.417   3.097  14.174  0.4025  0.2349  0.1718
10850TIP3   OH253964   2.386   3.737   1.241  0.1920 -0.7039  0.0163
10850TIP3    H153965   2.408   3.646   1.225  0.0831 -1.6217  3.9608
10850TIP3    H253966   2.471   3.780   1.256  0.1602 -0.4762 -0.4357
10851TIP3   OH253967   4.865   3.897   2.529 -0.2436  0.3739 -0.0470
10851TIP3    H153968   4.855   3.986   2.495  2.6449  1.2160  1.0026
10851TIP3    H253969   4.828   3.900   2.617 -0.2405  0.4839 -0.0498
10852TIP3   OH253970   6.585   5.189   1.449  0.1158  0.3540  0.1906
10852TIP3    H153971   6.645   5.149   1.386 -1.8462 -1.7584 -0.4679
10852TIP3    H253972   6.622   5.276   1.465  3.4720 -0.8812  0.0666
10853TIP3   OH253973   1.771   3.907   0.625 -0.1138  0.4826  0.3133
10853TIP3    H153974   1.736   3.996   0.632 -0.4658  0.2782  1.2150
10853TIP3    H253975   1.785   3.895   0.531  1.8036  2.1881  0.3147
10854TIP3   OH253976   5.367   1.138   5.260  0.2679  0.3466  0.6832
10854TIP3    H153977   5.277   1.132   5.292 -0.0567 -1.5973 -0.3745
10854TIP3    H253978   5.361   1.110   5.168  2.1704 -1.6382  1.0834
10855TIP3   OH253979   3.100   4.126   3.998 -0.7598  0.6390 -0.4320
10855TIP3    H153980   3.143   4.044   3.972  1.5259  1.5421  0.2094
10855TIP3    H253981   3.026   4.099   4.051  1.2758 -1.0599  1.7578
10856TIP3   OH253982   4.366   0.523   4.731 -0.9445 -0.3915 -0.9293
10856TIP3    H153983   4.409   0.543   4.813 -3.6931  0.6176  0.3914
10856TIP3    H253984   4.382   0.429   4.717  2.5730  0.1434 -1.2399
10857TIP3   OH253985   6.492   0.851  13.789 -0.1898  0.4443 -0.3167
10857TIP3    H153986   6.560   0.832  13.854  0.3438  2.7535 -0.0960
10857TIP3    H253987   6.438   0.772  13.785  2.1520 -1.2502 -0.0697
10858TIP3   OH253988   5.651   1.739  13.079  0.5563  0.1929 -0.0834
10858TIP3    H153989   5.672   1.830  13.063  1.4387  0.0127  0.0128
10858TIP3    H253990   5.732   1.691  13.060 -0.5330 -0.8588 -2.4674
10859TIP3   OH253991   1.600   5.356  15.895  0.1011  0.1155  0.1298
10859TIP3    H153992   1.567   5.301  15.824 -2.5292 -0.4330  1.6692
10859TIP3    H253993   1.621   5.440  15.852 -1.2266 -0.2469 -1.3184
10860TIP3   OH253994   3.506   1.534   2.007 -0.3467 -0.7227  0.0238
10860TIP3    H153995   3.578   1.535   2.070 -1.4371 -1.0448  1.3196
10860TIP3    H253996   3.468   1.621   2.012 -3.1076 -1.8921  3.1112
10861TIP3   OH253997   4.486   4.969  14.211  0.4976  0.1533  0.4702
10861TIP3    H153998   4.569   4.923  14.226 -0.2117 -0.9916  1.0652
10861TIP3    H253999   4.486   4.988  14.117  2.0809  1.5125  0.7123
10862TIP3   OH254000   4.546   4.858   3.644 -0.0844  0.0708  0.2381
10862TIP3    H154001   4.483   4.837   3.576  0.3930 -1.1399  0.1450
10862TIP3    H254002   4.550   4.780   3.699  0.6128  0.4897  0.8088
10863TIP3   OH254003   0.705   2.213   5.406  0.1653  0.4315 -0.5368
10863TIP3    H154004   0.668   2.284   5.459 -1.0292 -0.1451 -0.5602
10863TIP3    H254005   0.727   2.145   5.469  0.4349  0.4486 -0.6106
10864TIP3   OH254006   1.088   4.776  16.534 -0.3480  0.8085  0.1890
10864TIP3    H154007   1.056   4.687  16.522  1.1740  0.2440  0.1323
10864TIP3    H254008   1.075   4.795  16.627 -4.2098  2.0060 -0.4351
10865TIP3   OH254009   3.704   5.016  14.756 -0.5334  0.1929  0.2771
10865TIP3    H154010   3.615   4.996  14.727 -0.0123 -0.6337 -0.8152
10865TIP3    H254011   3.709   4.980  14.845 -0.8096 -1.1545 -0.2385
10866TIP3   OH254012   4.414   1.830   2.316  0.3447 -0.3582 -0.3991
10866TIP3    H154013   4.498   1.831   2.363  0.1166  1.9874  0.1143
10866TIP3    H254014   4.403   1.920   2.285 -1.9851 -0.5966 -0.4483
10867TIP3   OH254015   5.134   6.697   3.750  0.6304  0.5134 -0.3939
10867TIP3    H154016   5.126   6.629   3.816  1.6257  0.3659 -0.4082
10867TIP3    H254017   5.044   6.715   3.722  0.1145  1.0434  1.4570
10868TIP3   OH254018   6.770   0.498   3.324 -0.2824 -0.0281 -0.5201
10868TIP3    H154019   6.841   0.456   3.372 -1.4930  0.2923  1.6791
10868TIP3    H254020   6.708   0.427   3.305  0.3791 -0.2315 -2.0623
10869TIP3   OH254021   1.993   6.753   2.805 -0.4452 -0.2842 -0.1497
10869TIP3    H154022   1.931   6.681   2.794  0.1596 -0.7576 -0.4671
10869TIP3    H254023   2.029   6.742   2.892 -1.0571  0.1993  0.1763
10870TIP3   OH254024   4.970   3.198  10.889 -0.6240 -0.4732  0.4363
10870TIP3    H154025   5.016   3.272  10.929  1.3704  0.0230 -2.4690
10870TIP3    H254026   5.004   3.121  10.933  3.1234 -0.1105 -1.4824
10871TIP3   OH254027   3.092   4.179   1.742  0.4543  0.2664  0.6244
10871TIP3    H154028   3.015   4.140   1.701  0.9926  0.0060 -0.1527
10871TIP3    H254029   3.059   4.212   1.826 -1.1606  2.5851 -0.7863
10872TIP3   OH254030   0.420   2.221  14.350  0.7392 -0.2225 -0.1304
10872TIP3    H154031   0.502   2.245  14.305  1.1132  0.3467  0.8366
10872TIP3    H254032   0.355   2.280  14.314  0.2427 -2.0245 -2.4535
10873TIP3   OH254033   1.951   6.097   0.975  0.6591 -0.1748  0.0936
10873TIP3    H154034   2.005   6.024   1.005  1.5814  0.0753 -0.9045
10873TIP3    H254035   1.887   6.058   0.916 -0.3560 -0.4846  1.3498
10874TIP3   OH254036   0.053   3.520  16.049 -0.4510  0.7642  0.1539
10874TIP3    H154037   0.075   3.458  15.979 -0.0770  0.1506  0.8043
10874TIP3    H254038  -0.039   3.540  16.035 -0.2413  1.0895 -0.8552
10875TIP3   OH254039   1.186   1.075  14.369  0.0546  0.1395  1.0925
10875TIP3    H154040   1.268   1.105  14.408  1.2137 -0.0182 -1.1118
10875TIP3    H254041   1.143   1.026  14.440  2.8261 -1.6035  1.7504
10876TIP3   OH254042   5.020   5.353  11.331  0.4490 -0.6454 -0.2482
10876TIP3    H154043   5.059   5.438  11.314  2.4179 -1.1702  1.1895
10876TIP3    H254044   5.086   5.290  11.302 -0.4172 -1.6593 -0.0894
10877TIP3   OH254045   0.738   2.856  13.099 -0.1081  0.0600 -0.6976
10877TIP3    H154046   0.827   2.888  13.117  0.8148 -2.8174  0.4247
10877TIP3    H254047   0.681   2.914  13.149  1.0958  1.8369 -1.2593
10878TIP3   OH254048   3.111   6.590  14.321  0.2306 -0.2065  0.1313
10878TIP3    H154049   3.149   6.676  14.340 -0.4275  0.3173 -0.8336
10878TIP3    H254050   3.166   6.555  14.250  1.0520 -0.9910  1.1303
10879TIP3   OH254051   6.382   3.847   3.266 -0.1836  0.4651  0.5851
10879TIP3    H154052   6.305   3.825   3.213 -0.9609 -2.2313  2.5824
10879TIP3    H254053   6.440   3.894   3.206 -1.5688 -1.1208 -2.2319
10880TIP3   OH254054   1.188   6.418  11.496  0.2675  0.3428 -0.0131
10880TIP3    H154055   1.217   6.498  11.453  0.0240 -0.1057 -1.0488
10880TIP3    H254056   1.258   6.355  11.479  0.5879  0.3930  1.0329
10881TIP3   OH254057   4.065   1.813   3.761 -0.5755 -0.6732 -0.0804
10881TIP3    H154058   4.010   1.770   3.827 -1.7527 -3.5706 -2.7310
10881TIP3    H254059   4.084   1.745   3.697 -0.1712  2.1252 -3.2002
10882TIP3   OH254060   2.953   3.501  11.276 -0.1297  1.0270 -0.5911
10882TIP3    H154061   2.978   3.452  11.354  2.0728 -2.5828 -3.1958
10882TIP3    H254062   2.858   3.511  11.283 -0.4727 -1.9911  1.1818
10883TIP3   OH254063   2.654   4.257   3.510  0.0922 -0.1899  0.6324
10883TIP3    H154064   2.577   4.199   3.510 -1.8224  2.1272 -1.6111
10883TIP3    H254065   2.702   4.232   3.431  1.2811 -1.0670  1.5924
10884TIP3   OH254066   5.352   5.894  16.732 -0.2161 -0.3299 -0.1450
10884TIP3    H154067   5.355   5.958  16.803 -0.1979  1.0228 -1.3340
10884TIP3    H254068   5.355   5.809  16.777  0.3459  0.4836  1.4351
10885TIP3   OH254069   3.203   4.084  15.955  0.3853  0.1933  0.4600
10885TIP3    H154070   3.256   4.086  16.035 -0.6630 -0.9000  1.2083
10885TIP3    H254071   3.224   4.000  15.914  1.2385  0.9280 -0.6650
10886TIP3   OH254072   3.464   0.537  16.278 -0.3260 -0.5068 -0.4750
10886TIP3    H154073   3.551   0.508  16.304 -0.3798 -1.2857 -1.1210
10886TIP3    H254074   3.421   0.560  16.361  0.2849 -0.7077 -0.0919
10887TIP3   OH254075   1.825   3.051   5.208 -0.7902  0.6597 -0.5525
10887TIP3    H154076   1.795   2.962   5.224  1.5662  0.0556  0.9508
10887TIP3    H254077   1.837   3.089   5.295  1.4209  1.2696 -1.0625
10888TIP3   OH254078   3.044   5.394  15.529 -0.4101 -0.0959 -0.0851
10888TIP3    H154079   2.980   5.325  15.513  0.2799 -0.5027 -1.2115
10888TIP3    H254080   2.992   5.470  15.553 -1.3942 -0.2022 -1.7233
10889TIP3   OH254081   2.875   1.002  14.763  0.0377 -0.3146 -0.1498
10889TIP3    H154082   2.825   0.936  14.714  0.3584 -0.2602 -0.5593
10889TIP3    H254083   2.907   0.955  14.840 -0.5678 -0.3708  0.0799
10890TIP3   OH254084   4.566   3.775   4.322  0.5612  0.1642  0.1184
10890TIP3    H154085   4.529   3.779   4.410  1.0832  1.7922  0.3079
10890TIP3    H254086   4.557   3.684   4.296 -1.3743  0.0149  1.0965
10891TIP3   OH254087   4.989   5.303   2.926 -0.3712  0.1165 -0.6408
10891TIP3    H154088   5.037   5.225   2.897 -0.6219 -0.0023 -0.7425
10891TIP3    H254089   4.897   5.277   2.922 -0.4292  0.2200 -0.0816
10892TIP3   OH254090   4.594   3.559  14.431 -0.3839  0.3195 -0.1954
10892TIP3    H154091   4.665   3.621  14.418  0.1654 -0.6490 -2.4292
10892TIP3    H254092   4.535   3.574  14.357 -0.2291 -1.7415 -0.8157
10893TIP3   OH254093   1.750   0.944  13.537  0.1729 -0.4460  0.2655
10893TIP3    H154094   1.836   0.965  13.500 -0.3487  0.3219 -0.5703
10893TIP3    H254095   1.722   0.865  13.491  0.3643 -0.6176  0.4409
10894TIP3   OH254096   1.381   0.456   1.625 -0.1012  0.7236 -0.3487
10894TIP3    H154097   1.340   0.542   1.638  0.0839  0.6878  0.5556
10894TIP3    H254098   1.352   0.405   1.700 -0.2201 -0.0171 -0.8929
10895TIP3   OH254099   3.473   2.969  15.653  0.0381  0.2916  0.1100
10895TIP3    H154100   3.410   2.921  15.600  0.7340  1.0171 -1.4481
10895TIP3    H254101   3.483   2.917  15.732 -1.1349 -0.7723 -0.4075
10896TIP3   OH254102   3.466   5.756   2.649 -0.0227 -0.1068  0.4465
10896TIP3    H154103   3.419   5.704   2.583  0.9371  0.1123 -0.4377
10896TIP3    H254104   3.453   5.847   2.622 -1.3995  0.1253  1.7892
10897TIP3   OH254105   5.540   6.732  12.764  0.2220 -0.3817  0.3564
10897TIP3    H154106   5.460   6.704  12.719  1.0171 -0.8066 -0.8401
10897TIP3    H254107   5.609   6.722  12.699  1.3389 -0.4812  1.5195
10898TIP3   OH254108   4.667   4.005   6.038 -0.2896  0.1574  0.2179
10898TIP3    H154109   4.667   4.083   5.983 -1.8658  2.6658  3.4173
10898TIP3    H254110   4.758   3.975   6.036  0.1997  1.5448 -1.7535
10899TIP3   OH254111   5.563   6.188  15.369 -0.3492 -0.0348  0.5249
10899TIP3    H154112   5.498   6.119  15.377 -1.1648  0.2466 -2.3930
10899TIP3    H254113   5.532   6.258  15.426 -2.0089 -0.3493  0.0518
10900TIP3   OH254114   4.054   3.873   0.329  0.5602  0.4419 -0.5517
10900TIP3    H154115   4.089   3.955   0.296 -0.2276  0.5611 -1.1376
10900TIP3    H254116   4.087   3.806   0.269  1.6795  0.2449  0.2675
10901TIP3   OH254117   0.115   1.549   0.608  0.1308 -0.3934  0.4164
10901TIP3    H154118   0.196   1.502   0.588  0.8949  1.0016  0.0506
10901TIP3    H254119   0.061   1.486   0.655 -1.0345 -3.3939 -4.2673
10902TIP3   OH254120   6.549   3.387   1.209 -0.0107 -1.0338 -0.5729
10902TIP3    H154121   6.571   3.420   1.122 -0.3529  2.3796  0.4825
10902TIP3    H254122   6.464   3.428   1.229  1.0695  0.0895  2.1668
10903TIP3   OH254123   3.826   2.692   5.422  0.0563 -0.5521 -0.0529
10903TIP3    H154124   3.772   2.763   5.456  0.6454  0.2740 -0.7873
10903TIP3    H254125   3.820   2.623   5.488  0.0913  0.4697  1.0585
10904TIP3   OH254126   5.045   3.508  16.150 -0.2754  0.0909  0.5182
10904TIP3    H154127   5.004   3.447  16.089  1.2421  0.7805 -1.2996
10904TIP3    H254128   5.123   3.461  16.182 -1.2135 -0.3865  2.2620
10905TIP3   OH254129   2.779   1.347  11.527 -0.0337  0.2510  0.3986
10905TIP3    H154130   2.722   1.329  11.602  3.0595  1.4032  3.2917
10905TIP3    H254131   2.830   1.266  11.517 -1.6639 -0.5912 -1.8384
10906TIP3   OH254132   1.698   1.059   5.548  0.1943 -0.3188  0.2087
10906TIP3    H154133   1.657   1.015   5.474 -0.7328  2.0987 -0.8173
10906TIP3    H254134   1.633   1.122   5.578  0.9874 -0.4583  2.3969
10907TIP3   OH254135   4.514   5.379   3.281  0.6993 -0.7782  0.7159
10907TIP3    H154136   4.496   5.379   3.375  0.1044 -0.3926  0.6053
10907TIP3    H254137   4.549   5.467   3.263 -0.8234 -0.2313  0.2831
10908TIP3   OH254138   3.289   5.640   2.478  0.3900 -0.1289  0.0694
10908TIP3    H154139   3.205   5.685   2.461  0.6305  0.3146  0.0287
10908TIP3    H254140   3.324   5.622   2.391  0.6781  0.3400  0.0863
10909TIP3   OH254141   5.974   4.262   0.668  0.4393  0.1513  0.0987
10909TIP3    H154142   6.040   4.229   0.607  1.0308 -1.2034  1.4002
10909TIP3    H254143   5.933   4.183   0.703 -1.2607  0.9529  0.0123
10910TIP3   OH254144   2.057   2.256  17.072 -0.6940 -0.0957 -0.3042
10910TIP3    H154145   1.996   2.189  17.105 -0.9817  0.4410  0.2765
10910TIP3    H254146   2.014   2.290  16.993 -0.9062 -0.0803 -0.1836
10911TIP3   OH254147   3.320   2.793  16.597  0.1393  0.4306  0.1856
10911TIP3    H154148   3.360   2.824  16.678  1.9208  2.4320 -1.3261
10911TIP3    H254149   3.284   2.872  16.557 -0.7006 -0.5139 -1.0002
10912TIP3   OH254150   4.611   2.540   0.499  0.6714 -0.1128  0.5592
10912TIP3    H154151   4.656   2.508   0.421  1.0276 -2.4033  1.6202
10912TIP3    H254152   4.577   2.626   0.474 -2.2661 -2.0847 -3.3468
10913TIP3   OH254153   3.546   6.650   0.295  0.1765  0.6004  0.6880
10913TIP3    H154154   3.454   6.658   0.320  0.0971  1.1521  0.2454
10913TIP3    H254155   3.592   6.706   0.358  0.2706 -0.0419  1.2047
10914TIP3   OH254156   2.503   2.950   3.574  0.4820 -0.9513 -0.1112
10914TIP3    H154157   2.411   2.927   3.589  0.1843 -1.3734 -2.2594
10914TIP3    H254158   2.550   2.867   3.583  0.3287 -1.1665 -1.1186
10915TIP3   OH254159   1.665   1.250   5.015 -0.4925  0.0742  0.3558
10915TIP3    H154160   1.733   1.277   5.076 -0.1973 -0.8512  0.4577
10915TIP3    H254161   1.694   1.281   4.930 -0.5306  0.7073  0.5725
10916TIP3   OH254162   1.980   2.467  15.129 -0.2833  0.1856 -0.3616
10916TIP3    H154163   2.060   2.428  15.164 -1.4871 -2.8596 -0.6711
10916TIP3    H254164   1.981   2.446  15.036 -1.4019  0.0833 -0.3717
10917TIP3   OH254165   1.124   4.708  14.091 -0.3753  0.8255 -0.0366
10917TIP3    H154166   1.055   4.721  14.026 -0.2728  0.2356 -0.2702
10917TIP3    H254167   1.078   4.709  14.175 -0.6341  0.6925 -0.1766
10918TIP3   OH254168   3.285   1.551  14.692 -0.0868 -0.1434  0.4780
10918TIP3    H154169   3.248   1.505  14.617 -1.6661 -2.0694  2.3097
10918TIP3    H254170   3.346   1.489  14.731  2.6391  1.7265 -0.4731
10919TIP3   OH254171   6.178   6.260   1.709  0.0628 -0.2556 -0.2123
10919TIP3    H154172   6.137   6.324   1.767  1.3226  1.2720 -0.9310
10919TIP3    H254173   6.105   6.218   1.663 -0.8493 -0.2854  1.2194
10920TIP3   OH254174   5.740   1.363  12.752 -0.2941 -0.0099 -0.0325
10920TIP3    H154175   5.679   1.436  12.745 -0.6639 -0.4760 -2.1869
10920TIP3    H254176   5.694   1.289  12.712  0.8697 -0.9207  0.2512
10921TIP3   OH254177   1.857   4.967   3.709  0.8336  0.4431  0.4064
10921TIP3    H154178   1.807   4.886   3.713 -1.1320  1.5460 -0.5200
10921TIP3    H254179   1.844   5.008   3.794  1.2170  0.1394  0.6128
10922TIP3   OH254180   1.314   0.454  11.660 -0.3400 -0.2473  0.0380
10922TIP3    H154181   1.245   0.390  11.642 -0.3406  0.1528 -1.5018
10922TIP3    H254182   1.394   0.412  11.627 -0.1075 -0.0431  0.3432
10923TIP3   OH254183   1.999   4.958  17.293  0.1456 -0.2623 -0.3493
10923TIP3    H154184   2.093   4.947  17.309  0.2209  0.9781  0.1737
10923TIP3    H254185   1.986   4.926  17.204  1.1634  0.0756 -0.6341
10924TIP3   OH254186   2.062   0.135   5.841 -0.4427 -0.0542 -0.3250
10924TIP3    H154187   2.082   0.062   5.899 -1.8794 -1.0872 -1.0822
10924TIP3    H254188   2.140   0.190   5.844 -0.0893 -0.5955  1.7790
10925TIP3   OH254189   4.272   3.593  14.736 -0.1709 -0.1211 -0.1999
10925TIP3    H154190   4.267   3.501  14.709  0.9799  0.2098 -1.6301
10925TIP3    H254191   4.196   3.605  14.793 -0.7147 -1.7815 -0.5253
10926TIP3   OH254192   2.961   1.472   3.121  0.0851 -0.2924 -0.2470
10926TIP3    H154193   3.034   1.443   3.067  0.3918 -1.7326  0.8729
10926TIP3    H254194   2.908   1.394   3.133 -1.0124  0.4652 -0.0698
10927TIP3   OH254195   4.053   0.873  14.542 -0.9418 -0.1551 -0.1158
10927TIP3    H154196   3.986   0.804  14.541 -0.2655 -0.8695 -2.2473
10927TIP3    H254197   4.096   0.863  14.627  0.2639 -3.5790 -0.9530
10928TIP3   OH254198   4.489   0.078   6.356 -0.4004  0.8913 -0.2770
10928TIP3    H154199   4.559   0.055   6.417 -0.6556 -0.9690 -0.6252
10928TIP3    H254200   4.411   0.089   6.411 -0.9304 -2.0813 -0.2922
10929TIP3   OH254201   0.124   0.865   3.635  0.2183 -0.2015  0.6046
10929TIP3    H154202   0.063   0.926   3.677  0.6544  0.7835 -0.1336
10929TIP3    H254203   0.099   0.779   3.668 -2.3454 -0.0014 -0.5376
10930TIP3   OH254204   3.055   0.852   4.950  0.1679 -0.2307 -0.3661
10930TIP3    H154205   3.143   0.879   4.976 -0.4017  0.5501  0.8255
10930TIP3    H254206   3.008   0.934   4.937 -0.1136 -0.6211 -2.0620
10931TIP3   OH254207   6.516   4.851  15.470 -0.1878  0.0670 -0.8726
10931TIP3    H154208   6.516   4.782  15.536  0.0042 -1.0649 -2.0043
10931TIP3    H254209   6.530   4.805  15.387  0.8865  1.5607 -1.5795
10932TIP3   OH254210   5.658   4.572  15.899 -0.3860 -0.0016  0.6288
10932TIP3    H154211   5.726   4.506  15.887 -1.0103 -0.6203  0.4355
10932TIP3    H254212   5.703   4.656  15.887  0.0176 -0.4390 -1.1856
10933TIP3   OH254213   6.505   0.051   0.751 -0.3561  0.6056  0.0902
10933TIP3    H154214   6.547   0.128   0.787  0.7031  0.2184 -0.2863
10933TIP3    H254215   6.550   0.036   0.668 -0.8670 -0.1482 -0.0594
10934TIP3   OH254216   0.049   2.212   1.380 -0.6069  0.0859  0.5464
10934TIP3    H154217  -0.044   2.197   1.399 -0.3945  0.8959  2.4595
10934TIP3    H254218   0.091   2.212   1.466  0.9124  1.3252 -0.1496
10935TIP3   OH254219   4.157   5.339   1.819  0.3641  0.1000 -0.4467
10935TIP3    H154220   4.088   5.344   1.885 -0.4025  0.6849 -1.2822
10935TIP3    H254221   4.121   5.383   1.742  1.3970 -0.2136 -1.1326
10936TIP3   OH254222   0.165   1.584  13.330  0.0209  0.0763 -0.1025
10936TIP3    H154223   0.088   1.535  13.299  0.7000 -0.3443 -1.1792
10936TIP3    H254224   0.133   1.631  13.408 -1.2765 -0.2141 -0.4241
10937TIP3   OH254225   5.202   3.522   6.562 -0.1380 -0.0446 -0.1615
10937TIP3    H154226   5.226   3.442   6.515 -0.3955  0.1252 -0.5928
10937TIP3    H254227   5.111   3.509   6.587  0.1203 -0.3093  0.6744
10938TIP3   OH254228   6.255   5.069   3.674 -0.0590  0.2553  0.6409
10938TIP3    H154229   6.164   5.081   3.649 -0.0482  1.8577  1.2834
10938TIP3    H254230   6.303   5.065   3.592 -0.6904 -0.5447  0.3009
10939TIP3   OH254231   6.256   1.424   5.492 -0.2346 -0.2917  0.0711
10939TIP3    H154232   6.292   1.383   5.413 -1.5793 -0.6365 -0.3971
10939TIP3    H254233   6.200   1.357   5.530 -1.5748  0.7096 -0.0764
10940TIP3   OH254234   1.516   0.229   6.159 -0.4058 -0.1729  0.1228
10940TIP3    H154235   1.505   0.304   6.218  1.6350 -0.2878  0.7161
10940TIP3    H254236   1.437   0.177   6.172 -1.1490  1.0852  0.8617
10941TIP3   OH254237   2.157   4.921  15.005  0.4057  0.1516 -0.1803
10941TIP3    H154238   2.131   4.966  14.925  0.6210 -0.8915 -0.8599
10941TIP3    H254239   2.092   4.850  15.015 -0.5945  1.2179  1.4680
10942TIP3   OH254240   4.564   5.300   1.595 -0.2577 -1.4927 -0.2415
10942TIP3    H154241   4.499   5.309   1.526  0.7301 -2.1287 -1.2733
10942TIP3    H254242   4.631   5.244   1.559  2.8455  2.0914 -0.6936
10943TIP3   OH254243   6.012   0.666  10.526 -0.2099 -0.0825  0.0195
10943TIP3    H154244   6.103   0.661  10.555  0.3265  0.4524 -1.4685
10943TIP3    H254245   5.989   0.577  10.502  0.0780 -0.1403 -0.0442
10944TIP3   OH254246   4.910   6.119   0.820 -0.0006 -0.3057  0.1975
10944TIP3    H154247   4.994   6.162   0.835 -0.4060  1.1620 -1.3478
10944TIP3    H254248   4.914   6.090   0.728 -0.9974 -0.6399  0.2404
10945TIP3   OH254249   4.037   5.712  16.249  0.2854  0.1761  0.4134
10945TIP3    H154250   3.967   5.769  16.280 -0.3965 -0.9888  1.0611
10945TIP3    H254251   4.055   5.743  16.160 -2.6911 -0.9345 -0.7175
10946TIP3   OH254252   1.196   0.340   6.288  0.3125 -0.0766  0.0648
10946TIP3    H154253   1.147   0.381   6.216  0.0028  2.1430  1.4590
10946TIP3    H254254   1.223   0.255   6.253 -0.2943  0.6941 -2.4805
10947TIP3   OH254255   2.950   1.083  15.954  0.3692 -0.4142  0.4579
10947TIP3    H154256   2.865   1.048  15.928  0.3902 -0.9639  1.1026
10947TIP3    H254257   2.932   1.174  15.977  0.2487 -0.0733 -0.8895
10948TIP3   OH254258   2.985   1.113  16.758 -0.7073  0.4651 -0.2443
10948TIP3    H154259   3.006   1.020  16.753 -2.3761  0.0310 -0.0616
10948TIP3    H254260   3.062   1.158  16.724  0.0401 -0.9978 -0.5458
10949TIP3   OH254261   5.046   3.003  15.646 -0.2741  0.0290 -0.2178
10949TIP3    H154262   5.084   3.046  15.569 -0.4034 -0.4584 -0.5584
10949TIP3    H254263   5.059   2.910  15.630 -1.5890 -0.1513 -0.3359
10950TIP3   OH254264   3.864   2.598   1.644 -0.5801  0.1901  0.2440
10950TIP3    H154265   3.852   2.545   1.565  1.0203  0.7670 -0.4291
10950TIP3    H254266   3.856   2.688   1.613 -1.0550  0.3926  0.9580
10951TIP3   OH254267   0.075   2.128  13.312  0.1158 -0.2986  0.2127
10951TIP3    H154268   0.141   2.193  13.337  1.0388 -0.9608 -0.4403
10951TIP3    H254269   0.098   2.104  13.222 -1.2334 -0.2918 -0.1519
10952TIP3   OH254270   1.568   6.251   6.290  0.2778 -0.0187  0.0430
10952TIP3    H154271   1.592   6.314   6.358  0.9188 -0.7811  0.5311
10952TIP3    H254272   1.647   6.201   6.274  0.0339 -0.0807 -1.0262
10953TIP3   OH254273   2.974   3.891   3.678  0.0488 -0.0382 -0.2345
10953TIP3    H154274   2.965   3.978   3.639 -0.7005  0.2446  0.5437
10953TIP3    H254275   3.065   3.885   3.704 -0.1741  1.0097  0.8330
10954TIP3   OH254276   5.348   3.531  16.537  0.2093  0.1855 -0.1613
10954TIP3    H154277   5.287   3.461  16.561  1.0576 -0.1165  1.2197
10954TIP3    H254278   5.419   3.485  16.492  0.3919  0.2715  0.0445
10955TIP3   OH254279   6.764   6.071   1.071 -0.0969  0.3005 -0.5562
10955TIP3    H154280   6.746   5.988   1.027  0.5739 -0.4322  0.4976
10955TIP3    H254281   6.689   6.126   1.052 -1.4148 -1.1705  0.1924
10956TIP3   OH254282   4.035   0.962  16.203  0.1249  0.3079  0.2382
10956TIP3    H154283   4.010   0.998  16.118 -1.7414  1.0821  1.0520
10956TIP3    H254284   4.130   0.947  16.196  0.0793  0.6574 -1.8319
10957TIP3   OH254285   1.791   5.014  11.276  0.1602 -0.1171 -0.2185
10957TIP3    H154286   1.832   5.097  11.256  1.3870 -0.5927  0.2376
10957TIP3    H254287   1.855   4.967  11.330 -0.9354 -0.9301  0.4340
10958TIP3   OH254288   6.441   1.848   0.934  0.4693 -0.4255  0.4593
10958TIP3    H154289   6.365   1.796   0.960 -0.2281  1.1522  1.7598
10958TIP3    H254290   6.431   1.930   0.981  3.0526 -0.1956  0.7429
10959TIP3   OH254291   0.900   4.855  14.642  0.1755  0.0108  0.3043
10959TIP3    H154292   0.971   4.800  14.610 -0.9465 -1.8942  0.8967
10959TIP3    H254293   0.944   4.928  14.685  2.0094 -2.5230  3.2649
10960TIP3   OH254294   2.827   4.711   1.708  0.4399 -0.2226 -0.2119
10960TIP3    H154295   2.797   4.786   1.759 -0.0395 -0.7509  0.3036
10960TIP3    H254296   2.922   4.709   1.722  0.1379 -1.4371  2.2189
10961TIP3   OH254297   3.367   4.353   0.879  0.0537  0.0366  0.2997
10961TIP3    H154298   3.279   4.391   0.882  0.2541  0.4334  1.6096
10961TIP3    H254299   3.360   4.272   0.930 -0.4199 -1.9396 -2.6388
10962TIP3   OH254300   1.448   2.508   1.190 -0.2974 -0.6199 -0.0574
10962TIP3    H154301   1.415   2.522   1.278  3.0842 -1.1349  1.4819
10962TIP3    H254302   1.539   2.539   1.193  0.2826 -1.6399 -3.0552
10963TIP3   OH254303   5.185   3.266   3.779 -0.3894 -0.5850 -0.6465
10963TIP3    H154304   5.102   3.277   3.825 -0.4487  0.7088 -1.0208
10963TIP3    H254305   5.160   3.237   3.691 -0.5248  0.6491 -1.0359
10964TIP3   OH254306   5.085   0.748   4.438  0.1906 -0.3761 -0.0120
10964TIP3    H154307   5.067   0.694   4.362  0.6143 -0.2222 -0.2230
10964TIP3    H254308   5.179   0.764   4.435  0.0237  0.6441 -0.1335
10965TIP3   OH254309   6.388   5.052  11.814  0.1084 -0.1502 -0.6176
10965TIP3    H154310   6.363   4.961  11.828  1.5955 -0.7024 -1.2845
10965TIP3    H254311   6.309   5.102  11.834 -0.8839 -1.6106 -0.7071
10966TIP3   OH254312   3.601   1.756   3.421  0.0126 -0.6280 -0.1020
10966TIP3    H154313   3.644   1.769   3.336 -0.2973  0.2878 -0.1270
10966TIP3    H254314   3.580   1.662   3.422  2.2243 -1.1707  0.0387
10967TIP3   OH254315   2.915   5.638   3.101  0.3604  0.0133 -0.5157
10967TIP3    H154316   2.898   5.565   3.041  1.6100  0.2946 -1.2624
10967TIP3    H254317   2.845   5.634   3.165 -0.0568 -1.3420 -1.0275
10968TIP3   OH254318   5.263   4.196   5.370  0.4958 -0.4344 -0.0214
10968TIP3    H154319   5.272   4.107   5.403  1.5741 -0.4074 -0.2208
10968TIP3    H254320   5.310   4.250   5.432  1.7773 -0.2828 -1.0771
10969TIP3   OH254321   1.349   1.097   3.460  0.0625  0.2845 -0.0975
10969TIP3    H154322   1.410   1.035   3.421 -1.0405 -0.1755 -1.1509
10969TIP3    H254323   1.393   1.128   3.539  0.9124 -1.3232  0.0859
10970TIP3   OH254324   2.493   4.353   0.973 -0.6515 -0.3551  0.0158
10970TIP3    H154325   2.414   4.328   0.925 -0.9122 -0.7031  0.6194
10970TIP3    H254326   2.499   4.290   1.045  0.2048 -0.3610 -0.0557
10971TIP3   OH254327   2.603   2.196  16.776 -0.4616  0.1847  0.6225
10971TIP3    H154328   2.685   2.245  16.781 -0.7167  0.5284  1.5686
10971TIP3    H254329   2.543   2.255  16.730  0.0488 -0.4141 -0.8755
10972TIP3   OH254330   2.912   4.704   0.528 -0.2110 -0.6815 -0.0832
10972TIP3    H154331   2.897   4.717   0.435  1.1645 -0.4000 -0.2976
10972TIP3    H254332   2.970   4.628   0.533  1.4926  0.5765  0.3544
10973TIP3   OH254333   0.200   2.060   1.140 -0.1813 -0.1226 -0.3694
10973TIP3    H154334   0.219   1.981   1.090 -0.5824  0.7220 -1.9015
10973TIP3    H254335   0.106   2.075   1.127 -0.1589  0.4780  0.1075
10974TIP3   OH254336   4.066   3.212  10.936 -0.0597 -0.6438 -0.0816
10974TIP3    H154337   4.153   3.176  10.956 -1.0696 -3.0189  0.4736
10974TIP3    H254338   4.067   3.300  10.975  1.9917 -0.7086  0.1318
10975TIP3   OH254339   5.051   3.166   5.714  0.4947 -0.1956 -0.2244
10975TIP3    H154340   5.110   3.225   5.762  0.2958 -0.3447  0.2088
10975TIP3    H254341   4.972   3.164   5.767  0.7806 -1.4765  0.1831
10976TIP3   OH254342   5.074   4.649   2.448  0.0083  0.3808  0.4085
10976TIP3    H154343   5.034   4.637   2.534 -0.3315  1.1495  0.3662
10976TIP3    H254344   5.109   4.563   2.426 -3.0275 -0.7914 -0.2864
10977TIP3   OH254345   3.745   1.062   4.993 -0.5412  0.5244 -0.2858
10977TIP3    H154346   3.808   1.021   4.934 -0.0521  0.9958 -0.1013
10977TIP3    H254347   3.794   1.077   5.074 -1.0936  0.2400  0.1144
10978TIP3   OH254348   1.869   3.951  17.028  0.0330  0.0519 -0.4549
10978TIP3    H154349   1.944   3.993  17.070  1.0010 -0.7627 -1.3108
10978TIP3    H254350   1.836   4.017  16.966 -0.2347  0.5693  0.2309
10979TIP3   OH254351   1.655   2.925   2.662 -0.9435  0.0620  0.0015
10979TIP3    H154352   1.742   2.931   2.701 -1.5500 -0.9882  1.6539
10979TIP3    H254353   1.606   2.867   2.722 -2.8585  0.8500 -0.7162
10980TIP3   OH254354   6.236   6.075  13.842  0.8675 -0.0829  0.3375
10980TIP3    H154355   6.205   6.001  13.790  1.9518 -0.5320  0.3049
10980TIP3    H254356   6.226   6.047  13.933  1.2898 -0.2849  0.3249
10981TIP3   OH254357   4.779   5.878   2.534  0.6372  0.9517  0.0258
10981TIP3    H154358   4.825   5.820   2.473  1.0740 -0.0353  1.2576
10981TIP3    H254359   4.848   5.919   2.586  0.2932  2.1270 -0.4149
10982TIP3   OH254360   3.480   0.791   4.293  0.3432 -0.3471 -0.3542
10982TIP3    H154361   3.407   0.800   4.232 -0.0505  1.3870  0.3302
10982TIP3    H254362   3.517   0.878   4.300  0.4209 -0.4876  1.8027
10983TIP3   OH254363   0.162   6.194   3.818  0.1161 -0.4108 -0.7914
10983TIP3    H154364   0.115   6.198   3.901 -1.0132 -1.1403 -1.3733
10983TIP3    H254365   0.214   6.114   3.823  1.0808  0.2233 -0.2834
10984TIP3   OH254366   5.066   1.547  12.623 -0.2241 -0.0507  0.0317
10984TIP3    H154367   5.028   1.542  12.535 -0.3074 -1.7173  0.1176
10984TIP3    H254368   5.158   1.568  12.608 -0.2113 -0.4390 -0.4706
10985TIP3   OH254369   6.379   5.591  16.764  0.1702 -0.2799 -0.2391
10985TIP3    H154370   6.444   5.530  16.729  0.1145 -0.4558 -0.0433
10985TIP3    H254371   6.430   5.666  16.793  0.1915 -0.0471 -0.8841
10986TIP3   OH254372   2.699   4.018   3.715 -0.4069  0.0953  0.7939
10986TIP3    H154373   2.639   4.077   3.761 -0.3668  0.6852  0.1080
10986TIP3    H254374   2.781   4.067   3.709 -0.3718 -0.0249  0.2195
10987TIP3   OH254375   0.537   1.894  12.947 -0.0274 -0.0596  0.7235
10987TIP3    H154376   0.560   1.822  12.888 -1.4619 -0.9204  1.1630
10987TIP3    H254377   0.473   1.945  12.898 -0.3242 -0.0922  1.0731
10988TIP3   OH254378   4.088   1.317   1.901 -0.9875 -0.4913  0.3619
10988TIP3    H154379   4.113   1.276   1.818 -0.9514 -0.2223  0.2392
10988TIP3    H254380   4.155   1.384   1.916 -2.3791  1.2290 -0.6876
10989TIP3   OH254381   5.684   5.180   6.198 -0.1870  0.2156  0.0540
10989TIP3    H154382   5.601   5.227   6.194 -0.0734  0.3809 -0.3937
10989TIP3    H254383   5.669   5.111   6.263 -0.0721  1.4147  1.3954
10990TIP3   OH254384   0.486   0.917  13.134 -0.0569  0.0204  0.4576
10990TIP3    H154385   0.500   0.832  13.092  0.7709 -0.1470  1.0330
10990TIP3    H254386   0.550   0.918  13.206 -0.0768  1.1186  0.4664
10991TIP3   OH254387   2.355   3.987   2.723 -0.5127  0.2771 -0.1648
10991TIP3    H154388   2.312   4.009   2.806 -1.3623 -1.0017 -0.2414
10991TIP3    H254389   2.376   4.072   2.684 -2.6384  0.9456  0.0555
10992TIP3   OH254390   0.226   4.097  12.099 -0.3654 -0.0023 -0.0818
10992TIP3    H154391   0.237   4.003  12.110  1.8829  0.1675 -0.4378
10992TIP3    H254392   0.207   4.108  12.006 -1.5850 -0.1487  0.1362
10993TIP3   OH254393   0.825   1.091   1.660 -0.0617 -0.1304 -0.2266
10993TIP3    H154394   0.909   1.058   1.691 -1.9786 -1.4976  4.4255
10993TIP3    H254395   0.768   1.014   1.658 -1.6019  0.9442 -2.0061
10994TIP3   OH254396   5.460   0.443  13.699 -0.1932  0.9036  0.9977
10994TIP3    H154397   5.421   0.439  13.612 -1.0664  0.8770  1.3760
10994TIP3    H254398   5.538   0.498  13.688  0.5654 -0.3450 -0.1041
10995TIP3   OH254399   0.627   1.421  15.451 -0.1078 -0.2988 -0.3862
10995TIP3    H154400   0.619   1.427  15.547  0.3789 -0.9028 -0.3018
10995TIP3    H254401   0.555   1.474  15.418  0.5026  0.9943  0.3018
10996TIP3   OH254402   2.363   0.531   1.019  0.4072  0.2157  0.1812
10996TIP3    H154403   2.306   0.468   1.062  1.4169  0.5963  2.1943
10996TIP3    H254404   2.303   0.596   0.983 -0.5503 -0.9171 -0.3384
10997TIP3   OH254405   3.063   6.641  14.044 -0.0285 -0.6822  0.6729
10997TIP3    H154406   3.127   6.595  13.989 -0.1674  0.2780 -0.3518
10997TIP3    H254407   3.113   6.713  14.082 -0.5955  0.4946 -0.6858
10998TIP3   OH254408   3.795   5.426   5.032 -0.3064 -0.3285 -0.4424
10998TIP3    H154409   3.703   5.434   5.057  0.4261  0.8319  2.2274
10998TIP3    H254410   3.819   5.513   5.001  0.3711 -0.0092  0.8905
10999TIP3   OH254411   1.628   3.105  11.994 -0.0950 -0.8281 -0.5892
10999TIP3    H154412   1.660   3.025  12.036  0.2836  0.2454  1.2538
10999TIP3    H254413   1.663   3.100  11.905  1.3571 -1.9069 -0.0058
11000TIP3   OH254414   0.656   4.044   1.912 -0.4597 -0.0965 -0.1485
11000TIP3    H154415   0.618   4.003   1.990  1.7010 -1.0301  0.4921
11000TIP3    H254416   0.708   4.117   1.947  1.6435 -1.3454 -0.4884
11001TIP3   OH254417   0.713   0.088   2.941 -0.0311  0.0742  0.0048
11001TIP3    H154418   0.766   0.057   2.868 -0.2254 -1.3058  0.4136
11001TIP3    H254419   0.715   0.017   3.004 -2.7514 -0.2986 -0.1732
11002TIP3   OH254420   3.288   4.018  13.910 -0.9106  1.1614  0.2913
11002TIP3    H154421   3.288   4.018  14.006  1.3956 -1.9541  0.4670
11002TIP3    H254422   3.303   3.926  13.887 -0.7190  1.9212 -3.0843
11003TIP3   OH254423   0.008   4.146  14.862 -0.1682 -0.3768 -0.9526
11003TIP3    H154424   0.008   4.091  14.940  0.4867  1.5897  0.4919
11003TIP3    H254425  -0.078   4.131  14.822 -0.8230 -0.8299  0.5598
11004TIP3   OH254426   1.372   4.536   0.982  0.2615  0.0004  0.2196
11004TIP3    H154427   1.277   4.531   0.984  0.2566  0.0487  0.1396
11004TIP3    H254428   1.394   4.531   0.889  0.2547  1.3508  0.1220
11005TIP3   OH254429   0.718   3.781  11.902 -0.5496 -0.1064 -0.7941
11005TIP3    H154430   0.765   3.741  11.829 -1.5611 -1.0703 -0.9511
11005TIP3    H254431   0.784   3.797  11.969  0.0511 -1.1010 -1.1376
11006TIP3   OH254432   6.306   3.110  13.932  0.0724 -0.7505  0.1399
11006TIP3    H154433   6.281   3.136  13.844  2.3651  0.8799 -0.1349
11006TIP3    H254434   6.234   3.055  13.963 -2.2119  1.0636 -1.6067
11007TIP3   OH254435   0.866   2.335  11.140 -0.0981 -0.3943 -0.4440
11007TIP3    H154436   0.783   2.287  11.143  0.2502 -0.9801  1.5491
11007TIP3    H254437   0.931   2.272  11.171  0.5437  1.0005  1.1991
11008TIP3   OH254438   6.301   1.947  14.650 -0.3403  0.3101 -0.2422
11008TIP3    H154439   6.319   1.853  14.648 -0.8837  0.2133 -1.1949
11008TIP3    H254440   6.312   1.971  14.742 -0.0765 -0.6597 -0.0032
11009TIP3   OH254441   4.827   5.851  10.761 -0.1068 -1.1481 -0.2138
11009TIP3    H154442   4.779   5.768  10.758 -0.6502 -0.8348 -0.3496
11009TIP3    H254443   4.910   5.829  10.803 -1.0928 -1.3393  1.7686
11010TIP3   OH254444   1.872   0.354  14.454  0.1033 -0.0535 -0.4425
11010TIP3    H154445   1.790   0.368  14.501  0.6773  0.9319  0.3054
11010TIP3    H254446   1.849   0.360  14.362 -0.6269  0.4301 -0.2285
11011TIP3   OH254447   3.408   0.314  14.498  0.5595  0.0546 -0.0938
11011TIP3    H154448   3.469   0.372  14.453  1.0544  1.3373  2.0610
11011TIP3    H254449   3.463   0.255  14.548  0.0318 -0.7531 -0.4519
11012TIP3   OH254450   5.960   1.335   2.768 -0.3792 -0.3217 -0.1565
11012TIP3    H154451   5.971   1.402   2.700  1.3531 -1.4698 -1.1047
11012TIP3    H254452   5.877   1.293   2.747  0.1349 -0.6746 -1.6373
11013TIP3   OH254453   6.737   4.033  12.789  0.2118 -0.4178 -0.9363
11013TIP3    H154454   6.644   4.014  12.780 -0.4485  2.1035 -0.1195
11013TIP3    H254455   6.749   4.118  12.746  1.0397  1.8005  3.1799
11014TIP3   OH254456   0.232   6.453   4.460  0.0858  0.0385 -0.2351
11014TIP3    H154457   0.215   6.546   4.451  1.4739  0.6294  2.2444
11014TIP3    H254458   0.147   6.414   4.479 -0.4486  0.8391 -0.9428
11015TIP3   OH254459   0.651   4.575   2.312  0.0301  0.4557 -0.2078
11015TIP3    H154460   0.629   4.532   2.230 -0.0995  1.4531 -0.7080
11015TIP3    H254461   0.744   4.555   2.326 -0.2754 -0.8507  0.1244
11016TIP3   OH254462   3.529   3.665   4.727 -0.1905 -0.0663  0.3768
11016TIP3    H154463   3.457   3.727   4.735  0.5040  1.0160 -1.1902
11016TIP3    H254464   3.503   3.606   4.657 -0.7029 -1.3891  1.6377
11017TIP3   OH254465   3.556   4.483  15.300  0.2156  0.4678  0.1437
11017TIP3    H154466   3.568   4.571  15.337  0.4025  0.2010  0.7295
11017TIP3    H254467   3.543   4.498  15.207  1.2543  1.0655  0.0717
11018TIP3   OH254468   2.066   6.745  12.820  0.0398  0.3297 -0.2207
11018TIP3    H154469   2.052   6.679  12.887  1.0958 -1.6805 -1.8687
11018TIP3    H254470   1.982   6.791  12.814 -0.7404 -0.8620  0.9743
11019TIP3   OH254471   2.919   2.992   0.308  0.5765 -0.1371 -0.2722
11019TIP3    H154472   2.992   3.049   0.335 -1.4834  1.8752  1.4954
11019TIP3    H254473   2.932   2.912   0.358  1.0630  0.6072  0.8468
11020TIP3   OH254474   4.189   1.094   3.750  0.5711 -0.2436 -0.1963
11020TIP3    H154475   4.201   1.119   3.841  2.2163 -2.0716  0.1718
11020TIP3    H254476   4.230   1.165   3.700  0.8517  0.1288  0.5422
11021TIP3   OH254477   2.935   2.794   0.536 -0.3258  0.3017  0.5455
11021TIP3    H154478   3.001   2.863   0.543  0.7033 -0.6664  0.7431
11021TIP3    H254479   2.979   2.724   0.487 -1.1293 -0.4551  0.8799
11022TIP3   OH254480   0.321   2.072   5.546 -0.1675  0.5542 -0.4380
11022TIP3    H154481   0.234   2.051   5.513 -0.1648 -0.6274  0.2691
11022TIP3    H254482   0.352   2.142   5.488 -1.2384  0.4156 -1.2144
11023TIP3   OH254483   2.975   4.607   4.490 -0.3500  0.3502  0.7387
11023TIP3    H154484   2.995   4.657   4.569 -0.3503 -0.3148  1.1619
11023TIP3    H254485   3.061   4.580   4.457 -0.4184 -0.5827  1.3050
11024TIP3   OH254486   4.369   2.152  13.299  0.1358  0.1472  0.8988
11024TIP3    H154487   4.367   2.056  13.296 -1.6777  0.1611  0.6208
11024TIP3    H254488   4.459   2.174  13.274  0.4547 -1.4620  0.4675
11025TIP3   OH254489   4.292   1.753  11.064 -0.3597 -0.6703 -0.4084
11025TIP3    H154490   4.357   1.718  11.125  0.8609 -0.6433 -1.6310
11025TIP3    H254491   4.316   1.845  11.053 -0.6798 -0.6242 -0.7697
11026TIP3   OH254492   0.048   2.722   5.954 -0.0616  0.0603 -0.1253
11026TIP3    H154493   0.129   2.744   5.908 -0.7767  0.8353 -1.0603
11026TIP3    H254494   0.010   2.651   5.902  0.1515 -0.4905  0.4686
11027TIP3   OH254495   1.006   3.639   1.541 -0.5086 -0.9218 -0.2441
11027TIP3    H154496   0.949   3.599   1.475 -2.1615 -1.5246  1.4551
11027TIP3    H254497   1.003   3.579   1.615  1.6702 -0.5019  0.2607
11028TIP3   OH254498   0.430   2.864   3.527 -0.1862 -0.5380 -0.2450
11028TIP3    H154499   0.429   2.777   3.488  0.7192  0.5794 -2.9895
11028TIP3    H254500   0.361   2.912   3.481 -0.6903  0.2242  1.2385
11029TIP3   OH254501   1.655   0.610   1.494  0.0197 -0.2790  0.1895
11029TIP3    H154502   1.733   0.590   1.443  0.2701 -1.8056  1.1152
11029TIP3    H254503   1.624   0.525   1.525 -1.9202  0.3108 -0.0120
11030TIP3   OH254504   1.390   0.854  16.402 -0.3295  0.2439  0.0526
11030TIP3    H154505   1.354   0.814  16.481 -1.7715  0.0896 -0.6463
11030TIP3    H254506   1.399   0.781  16.340 -0.0170  0.5003 -0.2044
11031TIP3   OH254507   3.587   3.859  11.980  0.1073 -0.2949 -0.2926
11031TIP3    H154508   3.616   3.922  12.046 -0.2064 -1.7328  1.2764
11031TIP3    H254509   3.493   3.872  11.974  0.0575 -0.5329 -0.0449
11032TIP3   OH254510   6.237   1.262   3.600  0.9211  0.2090 -0.1006
11032TIP3    H154511   6.233   1.357   3.613  2.0812  0.2409  0.0771
11032TIP3    H254512   6.168   1.228   3.657  0.1571  0.9691 -0.5423
11033TIP3   OH254513   4.083   0.765   4.366  0.2843  0.3833 -0.5453
11033TIP3    H154514   3.993   0.797   4.364  0.6161  1.2820 -1.5894
11033TIP3    H254515   4.083   0.690   4.307 -0.1608 -0.7270  0.8073
11034TIP3   OH254516   0.722   4.032  14.692  0.6067 -0.4330 -0.5860
11034TIP3    H154517   0.758   4.108  14.738  0.9754 -0.5352 -0.7026
11034TIP3    H254518   0.633   4.058  14.669 -0.2379 -0.9967  1.7391
11035TIP3   OH254519   3.014   4.191   0.928  0.0571 -0.0137 -0.1907
11035TIP3    H154520   3.105   4.211   0.949 -0.2405  0.5086  0.6452
11035TIP3    H254521   2.964   4.224   1.003 -0.9070  0.5461 -1.0602
11036TIP3   OH254522   1.429   1.934   5.925  0.2269  0.1671 -0.2913
11036TIP3    H154523   1.342   1.968   5.908 -0.1183  0.8652  2.3542
11036TIP3    H254524   1.414   1.852   5.973  0.9737  0.7630  1.0144
11037TIP3   OH254525   2.352   0.871  17.077  0.1137 -0.6199  0.4672
11037TIP3    H154526   2.262   0.899  17.059  0.2096 -0.4992  0.1726
11037TIP3    H254527   2.393   0.864  16.991  0.4116 -0.5964  0.6042
11038TIP3   OH254528   4.378   2.627  13.048 -0.3147  0.2423  0.0621
11038TIP3    H154529   4.454   2.641  12.991  0.1119 -1.0983  0.2626
11038TIP3    H254530   4.353   2.536  13.031 -0.9208  0.1996  1.1459
11039TIP3   OH254531   2.886   1.380  14.351 -0.3479  0.1039 -0.0651
11039TIP3    H154532   2.810   1.436  14.364 -2.4691 -1.5895 -3.6402
11039TIP3    H254533   2.874   1.308  14.414 -0.9212  0.5283  0.3224
11040TIP3   OH254534   2.419   5.505   0.105  0.4205  0.8019  0.0279
11040TIP3    H154535   2.355   5.574   0.120 -1.7323 -1.2671  1.0706
11040TIP3    H254536   2.382   5.451   0.035  1.6925  0.2796 -0.2843
11041TIP3   OH254537   6.125   1.606  14.886 -0.0477  0.2072  0.0406
11041TIP3    H154538   6.164   1.648  14.963  0.8222  0.2197 -0.3903
11041TIP3    H254539   6.187   1.536  14.864  0.1432  0.7225 -1.1360
11042TIP3   OH254540   4.648   1.054  10.359  0.5874  0.1455  0.5391
11042TIP3    H154541   4.710   1.077  10.290  0.8385 -1.5156  0.1767
11042TIP3    H254542   4.568   1.102  10.337  1.2412  1.0716  0.1409
11043TIP3   OH254543   2.114   4.380  13.265 -0.2681 -0.1257  0.1674
11043TIP3    H154544   2.097   4.303  13.319  0.4839  0.7407  1.7241
11043TIP3    H254545   2.205   4.371  13.237 -0.4269 -0.1926 -0.3450
11044TIP3   OH254546   6.174   2.127  13.149 -0.0017 -0.2381 -0.2659
11044TIP3    H154547   6.147   2.036  13.156  1.5561 -0.7567 -0.5704
11044TIP3    H254548   6.198   2.152  13.239  0.0565 -0.2953 -0.2650
11045TIP3   OH254549   5.777   2.205   3.509  0.6275 -0.1471  0.1294
11045TIP3    H154550   5.803   2.158   3.588  0.7807 -0.8428 -0.3264
11045TIP3    H254551   5.838   2.279   3.505  1.5889 -0.9257 -0.1238
11046TIP3   OH254552   3.554   5.954  14.359  0.5560 -0.1478  0.0961
11046TIP3    H154553   3.508   5.894  14.300  0.8858 -1.0830  0.7644
11046TIP3    H254554   3.569   5.902  14.438  0.3235  1.0058  0.9217
11047TIP3   OH254555   3.869   4.498  11.318 -0.0764  0.0229 -0.0415
11047TIP3    H154556   3.863   4.414  11.271  0.1864 -0.1439  0.2196
11047TIP3    H254557   3.861   4.564  11.250 -3.8444 -0.1172  0.0579
11048TIP3   OH254558   3.171   6.507   1.000 -0.1562  0.2406 -0.6588
11048TIP3    H154559   3.159   6.548   0.914  0.3697  0.8530 -0.4456
11048TIP3    H254560   3.082   6.492   1.031 -0.4571  2.9781  0.0782
11049TIP3   OH254561   2.472   5.005   2.986  0.5701  0.4089  0.1532
11049TIP3    H154562   2.422   5.076   2.947 -0.0219 -1.1919 -2.2051
11049TIP3    H254563   2.559   5.012   2.947  0.2889 -0.5732 -0.6897
11050TIP3   OH254564   6.132   2.851  13.147 -0.5334 -0.0700 -0.1722
11050TIP3    H154565   6.056   2.906  13.132 -0.4786  0.0881  0.1295
11050TIP3    H254566   6.202   2.893  13.096 -0.9294 -0.8854 -1.4333
11051TIP3   OH254567   5.544   4.294   1.545  0.2367 -0.2777  0.1390
11051TIP3    H154568   5.579   4.360   1.485 -0.7310  1.9144  1.8417
11051TIP3    H254569   5.458   4.327   1.570 -0.3424 -2.2789  0.9986
11052TIP3   OH254570   3.573   5.793   1.742  0.0494 -0.1399  0.4992
11052TIP3    H154571   3.586   5.848   1.665  0.1879 -0.0952  0.5540
11052TIP3    H254572   3.649   5.736   1.744 -0.1396 -0.3972  0.3910
11053TIP3   OH254573   1.752   1.677  12.421  0.0091 -0.4268 -0.6967
11053TIP3    H154574   1.705   1.760  12.414  0.6813 -0.0256 -0.6115
11053TIP3    H254575   1.798   1.683  12.505  2.6299  0.5174 -2.0852
11054TIP3   OH254576   0.842   1.381   1.990 -0.1550 -0.1046 -0.0601
11054TIP3    H154577   0.889   1.462   2.006 -0.6019  0.3390 -0.9192
11054TIP3    H254578   0.844   1.335   2.074  3.4037 -0.9826 -0.4737
11055TIP3   OH254579   4.155   1.916   4.676  0.7994  0.8037 -0.1354
11055TIP3    H154580   4.239   1.941   4.638  1.7727 -0.8951  0.7420
11055TIP3    H254581   4.117   1.855   4.613  1.1803  0.0341  0.3628
11056TIP3   OH254582   0.054   0.087   3.297  0.1395  0.2594 -0.1798
11056TIP3    H154583   0.146   0.093   3.324 -0.2068 -0.5592  1.2964
11056TIP3    H254584   0.058   0.051   3.209  1.2421  0.2473 -0.1446
11057TIP3   OH254585   3.475   4.869  12.396  0.3510 -0.2254  0.5885
11057TIP3    H154586   3.488   4.796  12.334 -1.9354 -0.0468 -0.2013
11057TIP3    H254587   3.449   4.942  12.340 -1.3470  0.0588  1.6816
11058TIP3   OH254588   1.183   5.178  11.183  0.2421 -0.0014  0.0475
11058TIP3    H154589   1.105   5.175  11.128 -0.8141  0.2470  1.4667
11058TIP3    H254590   1.223   5.262  11.163 -0.2186  0.1608 -0.2103
11059TIP3   OH254591   2.972   1.209   3.412  0.0805  0.2839 -0.0578
11059TIP3    H154592   2.885   1.239   3.436  0.0729 -0.2401  0.6087
11059TIP3    H254593   2.969   1.114   3.424  0.7005  0.2482 -0.1524
11060TIP3   OH254594   6.595   1.961  12.468 -0.3893  0.3401 -0.0797
11060TIP3    H154595   6.513   1.953  12.420  0.3739  0.0875 -1.3818
11060TIP3    H254596   6.654   1.898  12.426  1.2918  2.3746 -0.9355
11061TIP3   OH254597   0.483   2.566   3.871  0.0583  0.6895  0.0148
11061TIP3    H154598   0.546   2.581   3.941  0.1869 -1.7748  0.5144
11061TIP3    H254599   0.497   2.639   3.810  3.4194  0.2718  0.0910
11062TIP3   OH254600   3.626   1.111  11.529  0.2313 -0.0548  0.0398
11062TIP3    H154601   3.593   1.173  11.464 -1.1373 -0.6213  0.1568
11062TIP3    H254602   3.580   1.135  11.610  0.4141 -0.6050  0.3143
11063TIP3   OH254603   3.970   3.986  11.387  0.8168  0.4185  0.0452
11063TIP3    H154604   3.970   3.920  11.456  4.2771 -0.2428 -0.4152
11063TIP3    H254605   3.968   3.935  11.306 -0.5283  1.1095 -0.3950
11064TIP3   OH254606   1.621   6.272  14.318 -0.0595  0.0748  1.2207
11064TIP3    H154607   1.631   6.272  14.223  0.7161 -0.5060  1.2954
11064TIP3    H254608   1.618   6.365  14.342 -1.3006  0.2317  0.5457
11065TIP3   OH254609   2.847   6.438   5.172 -0.4132  0.1996 -0.0182
11065TIP3    H154610   2.830   6.525   5.210  0.5884  0.0807  0.7424
11065TIP3    H254611   2.765   6.415   5.129 -2.3616 -0.4311  3.6191
11066TIP3   OH254612   0.413   0.694  10.958  0.3812  0.0736 -0.2077
11066TIP3    H154613   0.347   0.763  10.947  0.2725 -0.1429 -0.9118
11066TIP3    H254614   0.425   0.657  10.871  1.5923  0.2478 -0.1434
11067TIP3   OH254615   6.024   5.011  12.060 -0.1370  0.0894  0.7301
11067TIP3    H154616   6.078   4.933  12.049 -2.0937 -1.3203  0.6540
11067TIP3    H254617   6.041   5.040  12.150  0.0914 -0.8310  0.9846
11068TIP3   OH254618   2.685   4.777  14.520  0.1387  0.1605  0.7060
11068TIP3    H154619   2.663   4.811  14.607 -1.4346 -1.9442  1.2036
11068TIP3    H254620   2.611   4.802  14.465 -0.1284 -0.7969  0.6224
11069TIP3   OH254621   1.423   4.885  16.745  0.2057 -0.1059 -0.3045
11069TIP3    H154622   1.454   4.804  16.784 -0.1536 -1.6934 -3.0804
11069TIP3    H254623   1.503   4.935  16.727  0.4382  0.1341  1.2101
11070TIP3   OH254624   3.726   2.473   0.432  0.4421  0.2026  0.0168
11070TIP3    H154625   3.664   2.400   0.434 -0.8121  1.0738 -2.7571
11070TIP3    H254626   3.701   2.528   0.506 -1.9596  0.3489 -0.8261
11071TIP3   OH254627   5.819   4.699   4.380  0.2805 -0.4190 -0.6796
11071TIP3    H154628   5.866   4.732   4.304  0.1099 -0.6214 -0.8774
11071TIP3    H254629   5.762   4.630   4.345  0.2297 -0.5425 -0.3632
11072TIP3   OH254630   6.454   1.726  14.689 -0.0672 -0.1225 -0.0760
11072TIP3    H154631   6.474   1.768  14.773 -1.3786 -0.2186  0.3188
11072TIP3    H254632   6.533   1.677  14.667  0.5870  0.5490  0.7026
11073TIP3   OH254633   4.095   0.443  12.061  0.3456  0.4276 -0.6710
11073TIP3    H154634   4.175   0.489  12.033 -0.2983  1.9274 -0.1302
11073TIP3    H254635   4.110   0.423  12.153  0.8051 -0.8869 -1.0149
11074TIP3   OH254636   1.576   1.807   1.450  0.2135  0.3823  0.5442
11074TIP3    H154637   1.531   1.730   1.487 -1.5608  1.0635 -0.0622
11074TIP3    H254638   1.559   1.800   1.356 -0.5507  1.8442  0.5483
11075TIP3   OH254639   0.794   0.112   0.884  1.0373  0.5374  0.1586
11075TIP3    H154640   0.716   0.166   0.890 -0.7203 -1.9085  0.8762
11075TIP3    H254641   0.820   0.119   0.792 -1.6363 -0.6108 -0.7813
11076TIP3   OH254642   6.271   6.444   2.948 -0.3506  0.3610 -0.6055
11076TIP3    H154643   6.186   6.488   2.952 -1.1436 -1.0297 -1.5210
11076TIP3    H254644   6.310   6.477   2.867 -0.9778 -0.6345 -1.3321
11077TIP3   OH254645   3.365   1.931   2.394 -0.3484  0.6374  0.4507
11077TIP3    H154646   3.306   1.991   2.440 -0.2646  0.3865  0.8867
11077TIP3    H254647   3.431   1.908   2.458 -0.7558 -0.4519  0.4918
11078TIP3   OH254648   2.874   0.787   1.787  0.1576 -0.3364 -0.7856
11078TIP3    H154649   2.790   0.756   1.753  0.8775 -0.8990 -2.1581
11078TIP3    H254650   2.935   0.716   1.766  0.7401 -0.5497  1.4326
11079TIP3   OH254651   5.627   4.205  15.905 -0.2544  0.3936 -0.0058
11079TIP3    H154652   5.662   4.120  15.931 -0.2837 -0.0086 -1.2433
11079TIP3    H254653   5.702   4.254  15.873 -0.1538  1.0319  1.1247
11080TIP3   OH254654   2.535   1.086  17.157  0.8235  0.3033 -0.5711
11080TIP3    H154655   2.477   1.011  17.149  2.9077 -1.6500  1.1016
11080TIP3    H254656   2.538   1.125  17.070 -0.2780 -1.5866 -1.4990
11081TIP3   OH254657   4.325   5.243  13.621 -0.1255 -0.5750  0.2551
11081TIP3    H154658   4.251   5.298  13.645 -0.0747 -0.2780 -0.2437
11081TIP3    H254659   4.389   5.257  13.690 -0.2513 -0.2762  0.3122
11082TIP3   OH254660   1.548   1.805  15.609  0.4574  0.5104  0.2793
11082TIP3    H154661   1.454   1.806  15.623  0.6228  1.8567  1.4168
11082TIP3    H254662   1.586   1.832  15.692  2.0622 -3.3271  1.0339
11083TIP3   OH254663   4.601   2.438  14.766 -0.3783 -0.4724  0.3359
11083TIP3    H154664   4.655   2.495  14.712 -2.4693  0.2415 -1.1294
11083TIP3    H254665   4.611   2.473  14.854  0.8275  0.1775 -0.0253
11084TIP3   OH254666   0.742   2.986  11.842 -0.0334  0.2243 -0.7880
11084TIP3    H154667   0.777   2.955  11.758  2.2493  0.7994 -0.1170
11084TIP3    H254668   0.649   2.999  11.825 -0.2358 -2.5255 -2.3827
11085TIP3   OH254669   2.145   4.133   3.670  0.0632 -0.6563  0.6427
11085TIP3    H154670   2.061   4.173   3.649  0.1667  0.4974  2.2441
11085TIP3    H254671   2.154   4.144   3.765  1.8181 -1.1643  0.5702
11086TIP3   OH254672   0.726   3.801  14.176  0.1531 -0.1188  0.2604
11086TIP3    H154673   0.691   3.721  14.136 -0.1617  0.2382 -0.1883
11086TIP3    H254674   0.773   3.844  14.105  0.2572  0.1330  0.4825
11087TIP3   OH254675   6.598   6.473   3.072 -0.2031 -0.0923  0.0122
11087TIP3    H154676   6.537   6.432   3.133  0.2387 -0.0873  0.4634
11087TIP3    H254677   6.684   6.460   3.112  0.0214  0.5251 -0.2583
11088TIP3   OH254678   3.172   5.828   6.065  0.0009  0.0133 -0.4362
11088TIP3    H154679   3.104   5.896   6.067  0.3556  0.4577 -1.8549
11088TIP3    H254680   3.223   5.842   6.145 -1.3331 -0.0906  0.4623
11089TIP3   OH254681   4.725   1.601  13.493 -0.0237  0.2041 -0.8867
11089TIP3    H154682   4.803   1.553  13.466  0.3983  0.4705 -0.1520
11089TIP3    H254683   4.661   1.533  13.513  0.2137 -0.0299 -0.9116
11090TIP3   OH254684   5.378   5.173   4.774  0.2708 -0.2198  0.1217
11090TIP3    H154685   5.382   5.176   4.870  0.9104 -1.4331  0.1614
11090TIP3    H254686   5.317   5.102   4.755 -2.1954  1.9383 -0.4230
11091TIP3   OH254687   0.507   4.587   1.836  0.3822  0.6774  0.3017
11091TIP3    H154688   0.572   4.518   1.830  0.1578  0.5307 -0.5313
11091TIP3    H254689   0.436   4.549   1.889  1.1160  0.9678  1.5275
11092TIP3   OH254690   0.794   1.422   4.554 -0.4164 -0.2929  0.7293
11092TIP3    H154691   0.769   1.359   4.486 -0.8230  0.5599  0.0804
11092TIP3    H254692   0.725   1.488   4.553  0.3079  0.4857  0.9930
11093TIP3   OH254693   6.065   4.784   2.233  0.3802  0.2917  0.0359
11093TIP3    H154694   5.978   4.821   2.250 -1.0564 -2.5354 -0.6396
11093TIP3    H254695   6.106   4.779   2.319 -2.7787 -4.3456  1.6507
11094TIP3   OH254696   4.526   0.097  12.343 -0.4868  0.1050  0.0163
11094TIP3    H154697   4.547   0.071  12.433  2.3248 -1.2584 -0.9012
11094TIP3    H254698   4.463   0.032  12.313 -0.7049 -0.0073  0.7094
11095TIP3   OH254699   5.711   2.307  12.460  0.1109 -0.2465 -0.2869
11095TIP3    H154700   5.669   2.221  12.456  0.1801 -0.2620 -0.8083
11095TIP3    H254701   5.676   2.347  12.538  1.3570 -1.4133  0.9399
11096TIP3   OH254702   2.140   0.811   3.577  0.1711 -0.0144  0.3277
11096TIP3    H154703   2.180   0.865   3.646 -1.4853  1.8214 -0.0788
11096TIP3    H254704   2.047   0.809   3.599 -0.0988 -0.9809 -0.8367
11097TIP3   OH254705   2.546   2.047  13.260 -0.3560  0.1027  0.1779
11097TIP3    H154706   2.537   2.125  13.315  0.8180 -0.4762  1.2696
11097TIP3    H254707   2.518   1.975  13.316 -2.5090 -0.2072 -1.1899
11098TIP3   OH254708   5.662   4.923   6.316 -0.4341 -0.0846 -0.2372
11098TIP3    H154709   5.585   4.894   6.365 -1.9055  0.6604 -1.9859
11098TIP3    H254710   5.669   4.862   6.243 -0.3400  0.7873 -0.9770
11099TIP3   OH254711   1.021   5.512  11.285  0.3362 -0.3999 -0.4215
11099TIP3    H154712   0.971   5.519  11.367  0.8510  3.7572 -0.2367
11099TIP3    H254713   1.112   5.522  11.313  0.8561 -2.3988 -1.2697
11100TIP3   OH254714   4.181   3.996  11.618 -0.4059  0.3731 -0.3873
11100TIP3    H154715   4.106   3.987  11.677  0.2435 -0.9665  0.2569
11100TIP3    H254716   4.181   3.916  11.566 -0.2093  0.9737 -1.3377
11101TIP3   OH254717   6.642   2.607   4.016 -0.7293  0.0240  0.1481
11101TIP3    H154718   6.611   2.698   4.012 -1.8977 -0.3400  0.5341
11101TIP3    H254719   6.577   2.557   3.968  0.1074 -0.5751 -0.3777
11102TIP3   OH254720   6.526   2.330  13.146 -0.3075 -0.3601 -0.6449
11102TIP3    H154721   6.496   2.409  13.100  1.8497  1.4558  0.8217
11102TIP3    H254722   6.460   2.316  13.215 -0.9066 -0.0908 -1.1491
11103TIP3   OH254723   5.821   1.509  14.791 -0.0154 -0.2293 -0.2612
11103TIP3    H154724   5.866   1.432  14.757  0.6402  0.1979 -0.3753
11103TIP3    H254725   5.731   1.480  14.804  0.0492 -0.7999 -1.0203
11104TIP3   OH254726   3.299   4.320  14.753 -0.6730  0.0084  0.2657
11104TIP3    H154727   3.330   4.247  14.700 -0.1408 -0.2216  0.8834
11104TIP3    H254728   3.352   4.394  14.725 -0.0473 -0.2227  0.8077
11105TIP3   OH254729   5.856   3.910  15.622  0.4835  0.1455 -0.3017
11105TIP3    H154730   5.776   3.944  15.582  1.2261  1.1941 -0.9705
11105TIP3    H254731   5.829   3.830  15.666 -0.9976  0.6570 -0.2164
11106TIP3   OH254732   1.976   4.804   4.623 -0.4034 -1.0205 -0.1631
11106TIP3    H154733   1.908   4.765   4.569  0.0427 -0.6339 -1.0268
11106TIP3    H254734   2.018   4.730   4.667 -0.2936 -1.4124 -0.9158
11107TIP3   OH254735   4.925   1.519  13.846 -0.0403 -0.3400 -0.3435
11107TIP3    H154736   5.016   1.496  13.830 -0.4954 -1.0104 -2.3465
11107TIP3    H254737   4.914   1.605  13.804 -0.0789  0.2543  0.8566
11108TIP3   OH254738   5.998   6.643  14.482  0.7199  0.2810 -0.4264
11108TIP3    H154739   5.977   6.700  14.408  0.7246 -0.7207 -1.2259
11108TIP3    H254740   5.940   6.673  14.552  0.0247  0.6346 -1.1321
11109TIP3   OH254741   5.969   5.495   5.341 -0.1480  0.0266  0.0762
11109TIP3    H154742   5.966   5.551   5.263  2.0228 -0.6427 -0.5581
11109TIP3    H254743   6.042   5.529   5.392 -0.7809 -0.3056  1.2372
11110TIP3   OH254744   0.833   3.992   5.291 -0.0243  0.0464 -0.0456
11110TIP3    H154745   0.914   3.993   5.342 -0.9646  0.2011  1.4971
11110TIP3    H254746   0.795   4.078   5.304 -0.4812 -0.0469 -0.7130
11111TIP3   OH254747   0.989   4.063   2.406  0.1132  0.0417 -0.3111
11111TIP3    H154748   1.016   4.034   2.493  1.1817 -0.0832 -0.6718
11111TIP3    H254749   1.053   4.130   2.382 -1.2080  1.3682 -0.2842
11112TIP3   OH254750   5.814   4.751  13.610 -0.6390 -0.2529  1.1388
11112TIP3    H154751   5.775   4.773  13.526  2.5199  0.8336 -0.1729
11112TIP3    H254752   5.816   4.834  13.658  0.5049 -0.1497  0.9429
11113TIP3   OH254753   6.168   4.271  14.007 -0.2862 -0.2799  0.0711
11113TIP3    H154754   6.113   4.303  14.078  0.8101 -0.7343  1.1701
11113TIP3    H254755   6.256   4.266  14.045 -0.0563 -2.6787 -0.5961
11114TIP3   OH254756   4.286   5.378   3.902  0.1564  0.1700 -0.2527
11114TIP3    H154757   4.377   5.408   3.913 -0.1208  1.0293 -0.2305
11114TIP3    H254758   4.234   5.441   3.951 -0.2675 -1.8336  2.0719
11115TIP3   OH254759   2.955   0.508  13.488  0.0987  0.1715 -0.5984
11115TIP3    H154760   3.047   0.503  13.461  0.3056 -0.0263  0.1126
11115TIP3    H254761   2.909   0.454  13.424  0.2738  1.3845 -1.7840
11116TIP3   OH254762   0.223   0.935  10.959 -0.0820 -0.5959 -0.2434
11116TIP3    H154763   0.146   0.992  10.964 -0.3504 -0.9710 -0.1071
11116TIP3    H254764   0.250   0.939  10.867  0.8560  1.0036  0.0576
11117TIP3   OH254765   5.875   2.807  15.949 -0.3229 -0.0009  0.4824
11117TIP3    H154766   5.865   2.775  15.859 -1.3093  0.5553  0.3845
11117TIP3    H254767   5.970   2.813  15.961 -0.0620  3.1273 -1.7465
11118TIP3   OH254768   0.367   5.742   1.841  0.2804 -0.1025 -0.0856
11118TIP3    H154769   0.286   5.692   1.847 -0.6011  1.3781  1.8192
11118TIP3    H254770   0.385   5.750   1.748 -1.7547 -0.4995 -0.5408
11119TIP3   OH254771   5.610   5.577   2.574 -0.0268 -0.3647 -0.3306
11119TIP3    H154772   5.598   5.495   2.622  1.6994  0.0774  0.9410
11119TIP3    H254773   5.703   5.578   2.553 -0.2483  0.7579 -1.3262
11120TIP3   OH254774   0.221   3.124   3.988  0.4049  0.0575  0.3215
11120TIP3    H154775   0.132   3.158   3.995  0.9026  1.6678 -0.7209
11120TIP3    H254776   0.216   3.037   4.029 -1.5838  0.1789  0.4569
11121TIP3   OH254777   1.647   0.769   0.255 -0.1051 -0.4171  1.0154
11121TIP3    H154778   1.735   0.803   0.273 -0.1328  0.2242  0.0045
11121TIP3    H254779   1.601   0.843   0.216 -0.1559 -1.5851 -1.2984
11122TIP3   OH254780   4.150   0.225  14.283  0.0059 -0.6285  0.2510
11122TIP3    H154781   4.066   0.209  14.326 -0.6851  2.2653  0.1591
11122TIP3    H254782   4.200   0.276  14.346 -0.0203  1.4279 -1.3050
11123TIP3   OH254783   4.782   0.438  13.655  0.3360  0.3343  0.3660
11123TIP3    H154784   4.697   0.404  13.682  0.7392 -1.9978 -1.0265
11123TIP3    H254785   4.769   0.533  13.651 -2.3012  0.0545 -0.0658
11124TIP3   OH254786   3.900   5.167  13.247 -0.0570 -0.4957 -0.4479
11124TIP3    H154787   3.837   5.116  13.196 -0.1147  0.5710 -1.4890
11124TIP3    H254788   3.874   5.258  13.232  1.3311 -0.0657 -0.3531
11125TIP3   OH254789   4.180   4.935   2.160 -0.3129 -0.3992  0.4038
11125TIP3    H154790   4.103   4.978   2.199 -0.7189 -1.3813  0.7075
11125TIP3    H254791   4.254   4.969   2.211 -0.1838  2.5011 -1.4662
11126TIP3   OH254792   6.286   3.610  11.264 -0.4932  0.1805 -0.0894
11126TIP3    H154793   6.333   3.532  11.234  0.3431  0.5920  0.1426
11126TIP3    H254794   6.284   3.602  11.359 -1.9877 -0.4503 -0.1427
11127TIP3   OH254795   4.257   3.824   3.436  0.0880  0.7086 -0.1768
11127TIP3    H154796   4.189   3.797   3.497  0.5707 -1.6237 -0.5933
11127TIP3    H254797   4.333   3.842   3.492  0.0320  0.2578  0.0451
11128TIP3   OH254798   5.027   2.534   0.431 -0.0568  0.2106  0.0105
11128TIP3    H154799   5.033   2.496   0.519 -0.9616 -2.5773 -1.0328
11128TIP3    H254800   4.948   2.588   0.434 -1.2623 -1.4906  0.3928
11129TIP3   OH254801   5.217   3.963  16.951  0.2506  0.3904 -0.1865
11129TIP3    H154802   5.264   4.046  16.957  0.1601  0.3544  1.3902
11129TIP3    H254803   5.286   3.897  16.948  0.3739  0.5073 -2.8354
11130TIP3   OH254804   1.996   3.452   4.668  0.1312  0.2056  0.4609
11130TIP3    H154805   2.026   3.542   4.684  1.6238 -0.2378  0.2845
11130TIP3    H254806   2.027   3.432   4.579 -0.1128 -0.5126  0.5333
11131TIP3   OH254807   6.090   0.601   3.465  0.1740 -0.4212 -0.0944
11131TIP3    H154808   6.146   0.524   3.461 -0.3155 -0.7501 -3.7935
11131TIP3    H254809   6.001   0.567   3.454 -0.1254  0.5447 -0.8503
11132TIP3   OH254810   0.815   3.627  14.928  0.5292 -0.6434  0.4579
11132TIP3    H154811   0.747   3.686  14.893  1.6465 -0.7537 -2.1560
11132TIP3    H254812   0.768   3.547  14.949 -1.1261  1.1052  4.5784
11133TIP3   OH254813   3.893   1.719  13.125  0.0430 -0.0886 -0.0833
11133TIP3    H154814   3.845   1.777  13.066  0.4281 -1.1361 -1.4849
11133TIP3    H254815   3.826   1.661  13.161  0.0228 -0.4906 -0.7606
11134TIP3   OH254816   3.977   4.230   4.266  0.0175 -0.0488 -0.8820
11134TIP3    H154817   4.043   4.249   4.200 -0.9295 -0.3668 -1.9525
11134TIP3    H254818   4.023   4.180   4.333  0.7479 -0.7568 -1.8795
11135TIP3   OH254819   5.499   2.950  12.981 -0.3743  0.3124 -0.2544
11135TIP3    H154820   5.534   3.029  12.941  0.4065 -1.0997 -2.5410
11135TIP3    H254821   5.575   2.895  12.997 -0.9347 -0.1379  1.0124
11136TIP3   OH254822   4.364   5.381   0.448 -0.2037  0.0817  0.2046
11136TIP3    H154823   4.311   5.441   0.395 -1.2751 -0.3103  0.8051
11136TIP3    H254824   4.381   5.307   0.389 -0.9246 -0.1070  0.2317
11137TIP3   OH254825   0.408   3.348  15.417 -0.7479  0.6465 -0.2494
11137TIP3    H154826   0.417   3.400  15.337  0.0148 -2.0370 -2.0631
11137TIP3    H254827   0.495   3.308  15.429 -1.1679  0.1156  1.2721
11138TIP3   OH254828   4.639   2.448  16.857  0.2431 -0.0006  0.4162
11138TIP3    H154829   4.639   2.542  16.836 -0.2397 -0.1091 -0.0852
11138TIP3    H254830   4.599   2.443  16.944 -2.3426  0.0209 -0.7114
11139TIP3   OH254831   2.154   0.268   0.090  0.1690 -0.2746  0.9756
11139TIP3    H154832   2.101   0.296   0.015  1.1238 -0.0927  0.3469
11139TIP3    H254833   2.146   0.173   0.091  1.0562 -0.3780 -0.0738
11140TIP3   OH254834   3.462   1.327   6.761 -0.5661 -0.4105 -0.0634
11140TIP3    H154835   3.551   1.351   6.735 -0.6643  3.6167  2.5190
11140TIP3    H254836   3.406   1.363   6.693 -0.3641  0.4758  0.2305
11141TIP3   OH254837   3.458   5.523  13.681 -0.0676 -0.1014  0.8339
11141TIP3    H154838   3.467   5.605  13.729 -0.9106  0.4323  0.1071
11141TIP3    H254839   3.439   5.550  13.591 -1.3041 -1.0943  0.7780
11142TIP3   OH254840   1.637   6.522   2.897 -0.8178 -0.5445 -0.3153
11142TIP3    H154841   1.626   6.450   2.835 -1.1643 -0.8143  0.0564
11142TIP3    H254842   1.548   6.550   2.918 -0.6889 -0.0142 -0.4406
11143TIP3   OH254843   5.438   5.720  12.889 -0.0945 -0.7991  0.0804
11143TIP3    H154844   5.446   5.740  12.983 -1.0493 -0.5054  0.1071
11143TIP3    H254845   5.348   5.689  12.879 -0.0276 -0.7334 -0.7648
11144TIP3   OH254846   3.729   3.505   2.888  0.1445  0.4041  0.1423
11144TIP3    H154847   3.809   3.539   2.927  0.1573  0.1489  0.3415
11144TIP3    H254848   3.666   3.577   2.896  0.6362  0.9842 -0.9408
11145TIP3   OH254849   5.223   5.615  16.064  0.2502  0.4177 -0.3143
11145TIP3    H154850   5.279   5.672  16.012 -0.8589  1.1080 -0.7838
11145TIP3    H254851   5.134   5.641  16.040 -0.3165 -1.9487 -1.0783
11146TIP3   OH254852   6.022   2.391   2.368 -0.2213  0.5407  1.1370
11146TIP3    H154853   6.065   2.313   2.404  0.1521  0.6210  0.8699
11146TIP3    H254854   5.948   2.357   2.318  1.3144  0.1651 -0.9875
11147TIP3   OH254855   5.055   5.636  16.503 -0.4640 -0.5881 -0.1808
11147TIP3    H154856   5.094   5.593  16.579 -0.5091  1.0145  0.8134
11147TIP3    H254857   5.129   5.666  16.451 -0.4276 -1.1757 -0.4726
11148TIP3   OH254858   4.468   6.311  11.690 -0.4085  0.4765  0.3039
11148TIP3    H154859   4.396   6.319  11.627  0.2378 -0.2345 -0.5604
11148TIP3    H254860   4.452   6.380  11.754 -1.2639  1.0286 -0.4732
11149TIP3   OH254861   5.130   6.734   5.671 -0.1068 -0.0602 -0.4842
11149TIP3    H154862   5.165   6.803   5.727  0.2212 -1.0872  0.6222
11149TIP3    H254863   5.173   6.748   5.586 -1.7731  2.4497 -1.0174
11150TIP3   OH254864   1.422   4.865  17.303 -0.6915 -0.4712  0.1539
11150TIP3    H154865   1.378   4.787  17.335 -1.6847  0.1272  0.2805
11150TIP3    H254866   1.446   4.914  17.382  3.6482 -2.4941  0.3918
11151TIP3   OH254867   5.635   0.717  16.414 -0.0634  0.2769  0.4364
11151TIP3    H154868   5.614   0.680  16.500  1.9798  0.2218  0.9622
11151TIP3    H254869   5.671   0.804  16.434 -1.2497  1.0208 -0.5258
11152TIP3   OH254870   2.533   0.337  13.423  0.4320  0.1203 -0.1186
11152TIP3    H154871   2.454   0.324  13.476  0.6019 -0.6917 -0.0620
11152TIP3    H254872   2.536   0.432  13.409  0.4191  0.3586  1.3580
11153TIP3   OH254873   6.222   3.385  16.433  0.5440  0.0606  0.5057
11153TIP3    H154874   6.198   3.478  16.440  1.2666  0.4788 -1.6544
11153TIP3    H254875   6.285   3.383  16.360 -0.6997 -2.3419 -0.5903
11154TIP3   OH254876   3.759   2.316  12.688  0.3528 -0.8597 -0.0648
11154TIP3    H154877   3.827   2.287  12.749  1.2429  0.1260 -0.5552
11154TIP3    H254878   3.750   2.244  12.625  1.0766 -0.9236 -0.0983
11155TIP3   OH254879   4.909   0.745   2.180  0.6959 -0.3084 -0.2707
11155TIP3    H154880   4.855   0.783   2.249 -0.6192 -2.4457 -0.0196
11155TIP3    H254881   4.998   0.744   2.216  0.3391  0.2331  0.6554
11156TIP3   OH254882   3.299   4.852   4.541 -0.1511  0.0299 -0.5204
11156TIP3    H154883   3.226   4.845   4.601 -0.2602 -1.2947 -0.7631
11156TIP3    H254884   3.365   4.904   4.587 -0.9653  0.6317 -0.0304
11157TIP3   OH254885   0.196   2.935  10.764 -0.6987  0.6758  0.2904
11157TIP3    H154886   0.108   2.973  10.768 -0.9276  0.2247 -0.2777
11157TIP3    H254887   0.248   3.000  10.718 -0.9681  0.5309 -0.2297
11158TIP3   OH254888   6.347   0.155   0.470  0.2120  0.2316 -0.6838
11158TIP3    H154889   6.420   0.102   0.438  1.6448  0.4091  2.0063
11158TIP3    H254890   6.364   0.242   0.436  1.5989  0.3900  0.3473
11159TIP3   OH254891   6.576   3.548   0.664 -0.1649  0.5253 -0.3023
11159TIP3    H154892   6.626   3.615   0.619 -0.5650 -0.0398 -1.6177
11159TIP3    H254893   6.497   3.592   0.695  0.1557  0.9353 -0.0643
11160TIP3   OH254894   6.419   0.195  11.816 -0.5624  0.1944  0.2290
11160TIP3    H154895   6.477   0.190  11.891 -1.6348  0.7597  1.1278
11160TIP3    H254896   6.406   0.104  11.789 -0.0849 -0.0033  0.6584
11161TIP3   OH254897   0.057   5.365   4.072  0.5648  0.0648 -0.3155
11161TIP3    H154898  -0.004   5.436   4.093  0.7795 -0.0700  0.8016
11161TIP3    H254899   0.005   5.285   4.083  0.3792  0.0230 -1.3780
11162TIP3   OH254900   5.125   6.652   6.017 -0.0064  0.1806 -0.2214
11162TIP3    H154901   5.108   6.574   5.964 -1.5715  0.0088  0.4935
11162TIP3    H254902   5.187   6.623   6.084 -1.2464 -0.6975  0.5704
11163TIP3   OH254903   3.632   5.000  10.709 -0.1665 -0.1158 -0.3570
11163TIP3    H154904   3.636   4.905  10.714 -0.8745 -0.1736 -0.7064
11163TIP3    H254905   3.549   5.018  10.664 -0.3502  0.6816  0.2793
11164TIP3   OH254906   2.294   1.677   5.445 -0.0383 -0.3389 -0.0449
11164TIP3    H154907   2.368   1.630   5.483  0.2181  0.2370  0.1757
11164TIP3    H254908   2.236   1.694   5.519 -0.0792 -0.2200 -0.1032
11165TIP3   OH254909   6.446   3.618  13.553  0.5541  0.0354  0.3530
11165TIP3    H154910   6.458   3.712  13.542  0.8002 -0.1156 -0.8847
11165TIP3    H254911   6.357   3.608  13.585  0.5652  0.6963  0.5943
11166TIP3   OH254912   6.386   5.798   6.181  0.2191  0.1455 -0.3701
11166TIP3    H154913   6.417   5.813   6.092 -1.7888  3.0756 -0.7089
11166TIP3    H254914   6.453   5.838   6.237  0.8718 -0.6013 -0.5961
11167TIP3   OH254915   2.416   6.474   2.089  0.2316  0.6588  0.0387
11167TIP3    H154916   2.347   6.537   2.071  0.1081 -0.1897 -2.9579
11167TIP3    H254917   2.484   6.494   2.026  1.3974 -0.4920  0.8702
11168TIP3   OH254918   4.956   0.787   1.304 -0.1598  0.1554 -0.2881
11168TIP3    H154919   4.978   0.748   1.220  1.8531  1.7027 -0.5386
11168TIP3    H254920   4.933   0.878   1.283 -2.1758 -0.0959  0.5775
11169TIP3   OH254921   5.483   5.122   0.668  0.3564 -0.0483  0.0267
11169TIP3    H154922   5.514   5.033   0.685  1.8798 -0.0338 -2.2317
11169TIP3    H254923   5.478   5.163   0.755 -1.3122 -2.5600  1.2358
11170TIP3   OH254924   6.063   1.931  12.395  0.0157  0.2516  0.2570
11170TIP3    H154925   5.983   1.983  12.397 -0.2044 -0.0389 -0.4510
11170TIP3    H254926   6.078   1.914  12.302  1.2375  0.8072  0.3319
11171TIP3   OH254927   5.075   2.568  15.231 -0.0457 -0.6522 -0.3076
11171TIP3    H154928   5.111   2.521  15.306  0.2011 -1.1501 -0.7334
11171TIP3    H254929   5.104   2.659  15.243  0.9786 -0.9545 -0.4125
11172TIP3   OH254930   6.591   1.225   0.845  0.0495  0.2667  0.0396
11172TIP3    H154931   6.576   1.307   0.892 -3.2723  1.2263 -2.3143
11172TIP3    H254932   6.621   1.252   0.759  1.1118 -1.1557 -0.0605
11173TIP3   OH254933   4.763   0.042   5.078 -0.4557  0.0994  0.3782
11173TIP3    H154934   4.690   0.079   5.028 -0.1102 -1.7759 -1.6665
11173TIP3    H254935   4.728   0.032   5.167 -2.3725  0.1273 -0.3239
11174TIP3   OH254936   6.166   0.029   5.215  0.4172 -0.0484 -0.0450
11174TIP3    H154937   6.096  -0.018   5.259  0.3873  0.3522  0.3382
11174TIP3    H254938   6.210   0.078   5.284  1.0614 -0.2693 -0.2822
11175TIP3   OH254939   1.904   2.290  12.897 -0.1711  0.1741 -0.4708
11175TIP3    H154940   1.935   2.268  12.985  0.2720  3.0163  0.1827
11175TIP3    H254941   1.817   2.250  12.891 -0.6046  0.6828  1.6476
11176TIP3   OH254942   2.635   4.191   4.395  0.0522 -0.6348  0.3882
11176TIP3    H154943   2.610   4.112   4.444 -0.1454 -0.8524 -0.0607
11176TIP3    H254944   2.578   4.191   4.318  0.3332 -0.2695  0.1745
11177TIP3   OH254945   1.504   6.395   5.451 -0.2555  0.3777 -0.5764
11177TIP3    H154946   1.478   6.364   5.538  1.9303 -1.1681 -0.3834
11177TIP3    H254947   1.446   6.347   5.391  0.9132 -1.7720 -0.1023
11178TIP3   OH254948   5.265   4.358  13.224  0.7014  0.8274  0.1311
11178TIP3    H154949   5.291   4.447  13.249  0.0448  1.1978 -0.4505
11178TIP3    H254950   5.256   4.311  13.307  0.5549  1.4503  0.4789
11179TIP3   OH254951   3.080   3.014  13.198 -0.3854 -0.3907  0.5561
11179TIP3    H154952   3.153   3.067  13.230  1.0219 -1.3657 -0.8665
11179TIP3    H254953   3.121   2.950  13.140 -2.4751 -0.5352 -0.8723
11180TIP3   OH254954   3.472   1.469  13.489  0.0862 -0.2044 -0.3208
11180TIP3    H154955   3.538   1.508  13.430  1.4067  2.9232  2.8516
11180TIP3    H254956   3.500   1.378  13.498  2.0338  0.1785 -1.6233
11181TIP3   OH254957   2.931   2.693   0.027  0.5485 -0.3411  0.2564
11181TIP3    H154958   2.929   2.789   0.027  1.1055 -0.2966  1.7692
11181TIP3    H254959   2.877   2.668  -0.048 -0.7450  1.1347  0.6349
11182TIP3   OH254960   4.871   5.649   2.384  0.2621 -0.3956  0.3221
11182TIP3    H154961   4.964   5.663   2.368 -0.2666  2.0510 -1.0566
11182TIP3    H254962   4.867   5.617   2.474  2.4775 -1.5414  0.0863
11183TIP3   OH254963   4.847   6.038  11.325  0.9161  0.2883  0.1860
11183TIP3    H154964   4.842   6.026  11.420 -2.6539 -1.3499 -0.0785
11183TIP3    H254965   4.834   6.132  11.312  1.0930  0.4774  1.2569
11184TIP3   OH254966   0.219   2.650   2.846  0.8610 -0.2567 -0.0332
11184TIP3    H154967   0.153   2.680   2.783  1.8255 -0.6811 -1.2721
11184TIP3    H254968   0.187   2.564   2.874 -0.0388  0.3171  0.7889
11185TIP3   OH254969   0.634   2.263  12.784  0.4121 -0.6574  0.0670
11185TIP3    H154970   0.689   2.196  12.825 -0.2207 -0.9410  0.4712
11185TIP3    H254971   0.555   2.265  12.838 -0.2122 -0.6497 -0.8307
11186TIP3   OH254972   0.605   1.980   0.049  0.0015 -0.7569  0.3808
11186TIP3    H154973   0.609   2.042   0.122 -1.9213  0.7446 -0.6926
11186TIP3    H254974   0.679   1.921   0.064 -0.0980 -0.3162  3.3433
11187TIP3   OH254975   1.686   0.459  12.755 -0.0054 -0.0542  0.9146
11187TIP3    H154976   1.669   0.467  12.849 -1.0438 -2.7113  1.0385
11187TIP3    H254977   1.617   0.400  12.723  2.5950 -2.4755 -0.7100
11188TIP3   OH254978   0.915   4.444  12.633  0.2342  0.5188 -0.2278
11188TIP3    H154979   0.821   4.439  12.620  0.4209 -2.4098 -1.1781
11188TIP3    H254980   0.926   4.489  12.716 -1.9026  2.2413 -0.8031
11189TIP3   OH254981   0.091   0.532  16.139 -0.3049  0.3244 -0.2568
11189TIP3    H154982   0.056   0.473  16.206  0.3069  0.3091  0.0581
11189TIP3    H254983   0.062   0.494  16.056 -1.6097  0.6928  0.0038
11190TIP3   OH254984   3.902   2.922  16.116  0.0691 -0.3826  0.2106
11190TIP3    H154985   3.821   2.939  16.068 -0.8879  0.3787  2.0000
11190TIP3    H254986   3.874   2.876  16.195  1.0991  1.5964  1.8220
11191TIP3   OH254987   0.114   6.759   3.043  0.3479  0.4606 -0.5243
11191TIP3    H154988   0.107   6.711   2.961  0.8051 -3.4638  1.4555
11191TIP3    H254989   0.203   6.792   3.044  0.7138 -0.4528 -1.1754
11192TIP3   OH254990   5.570   4.323  11.987  0.6151 -0.5342 -0.9106
11192TIP3    H154991   5.500   4.299  12.048 -2.1387  1.5990 -2.9376
11192TIP3    H254992   5.548   4.278  11.906  0.4309  1.6453 -2.1386
11193TIP3   OH254993   0.413   3.835   5.998  0.6055  0.5967  0.0814
11193TIP3    H154994   0.346   3.815   5.933  0.7980  1.4124 -0.3886
11193TIP3    H254995   0.442   3.749   6.030 -1.4464  0.2369  1.1594
11194TIP3   OH254996   0.712   0.528   1.996  0.6655  0.0570 -0.1790
11194TIP3    H154997   0.692   0.454   2.053  1.1876 -1.8523 -2.3062
11194TIP3    H254998   0.678   0.605   2.042  1.2628 -1.3143  2.7348
11195TIP3   OH254999   0.999   2.620   0.976 -0.0102  0.0353  0.1573
11195TIP3    H155000   0.935   2.592   0.910 -0.7589  1.0794  0.4205
11195TIP3    H255001   1.003   2.715   0.967  0.9704  0.0540  0.6478
11196TIP3   OH255002   1.702   0.175  10.925 -0.4912 -1.0148 -0.0757
11196TIP3    H155003   1.731   0.248  10.871 -0.7509 -1.3488 -0.6766
11196TIP3    H255004   1.780   0.146  10.972 -0.1638 -1.0234 -0.6315
11197TIP3   OH255005   0.186   0.403   0.554  0.6173  0.5573  0.0961
11197TIP3    H155006   0.212   0.315   0.528 -0.4176 -0.1344  1.2910
11197TIP3    H255007   0.220   0.414   0.642 -0.4219  0.8094  0.4834
11198TIP3   OH255008   3.783   1.088   1.426  0.3126 -0.0393  0.0189
11198TIP3    H155009   3.694   1.076   1.457  0.2701  0.9996  0.3541
11198TIP3    H255010   3.794   1.023   1.356 -1.6086  1.5726 -1.9163
11199TIP3   OH255011   2.983   0.041  13.707  0.8614  0.5995  0.5510
11199TIP3    H155012   2.996  -0.053  13.705  0.7864  0.5996  0.0527
11199TIP3    H255013   2.935   0.057  13.789  0.7029  0.1897  0.5372
11200TIP3   OH255014   0.212   4.974  14.050  0.0742  0.2511 -0.5224
11200TIP3    H155015   0.298   4.951  14.016 -1.2117 -1.6669 -2.7947
11200TIP3    H255016   0.230   5.022  14.131  3.2424  0.2922 -1.1272
11201TIP3   OH255017   6.173   0.777  16.127 -0.5066  0.2128  0.4159
11201TIP3    H155018   6.235   0.832  16.078 -2.0543  0.1622 -1.7500
11201TIP3    H255019   6.095   0.832  16.137 -0.7697 -0.3244  1.5497
11202TIP3   OH255020   0.779   2.177  16.551 -0.1462  0.0253 -0.2821
11202TIP3    H155021   0.731   2.119  16.610  0.6236  0.9204  1.3010
11202TIP3    H255022   0.871   2.169  16.578  0.2116  0.5356 -1.2919
11203TIP3   OH255023   6.664   1.998  14.107 -0.6156 -1.0269  0.3789
11203TIP3    H155024   6.683   1.916  14.061  0.0257 -1.4768  1.4109
11203TIP3    H255025   6.741   2.053  14.090 -1.4433 -0.2428 -1.0914
11204TIP3   OH255026   1.110   5.703  14.377 -0.2013  0.0654 -0.4984
11204TIP3    H155027   1.120   5.610  14.357  0.2523 -0.0519  0.2477
11204TIP3    H255028   1.165   5.747  14.311 -1.3187 -0.1121 -1.5782
11205TIP3   OH255029   3.487   1.166   3.146 -0.3629  0.1358 -0.4368
11205TIP3    H155030   3.392   1.166   3.144 -0.4181 -0.5910  1.1920
11205TIP3    H255031   3.512   1.142   3.056 -1.7184 -0.5085 -0.6673
11206TIP3   OH255032   0.812   2.798   0.485 -0.1731  0.1322 -0.9195
11206TIP3    H155033   0.857   2.862   0.540 -0.1632 -2.0685  1.8598
11206TIP3    H255034   0.881   2.760   0.431  0.5242 -0.0595  0.0704
11207TIP3   OH255035   4.430   1.344  15.811 -0.2043  0.0602  0.0518
11207TIP3    H155036   4.400   1.413  15.751 -1.4268  0.6929  1.3267
11207TIP3    H255037   4.355   1.328  15.868  0.6170 -1.1873  0.8190
11208TIP3   OH255038   3.128   1.757  14.802 -0.1967  0.4960 -0.0999
11208TIP3    H155039   3.169   1.685  14.754  1.1554  2.0817 -1.4835
11208TIP3    H255040   3.096   1.816  14.733  0.6193  2.2091  0.9113
11209TIP3   OH255041   4.462   2.975   4.473 -0.1864  0.3938  0.2437
11209TIP3    H155042   4.437   2.894   4.517 -1.3715  0.4381 -0.2878
11209TIP3    H255043   4.515   2.947   4.398  1.2625  0.2764  1.2747
11210TIP3   OH255044   0.556   6.616  16.776 -0.5554  0.1747  0.2048
11210TIP3    H155045   0.525   6.690  16.724  0.6429  0.7530  0.2823
11210TIP3    H255046   0.485   6.598  16.837 -0.6586  1.6187  0.5470
11211TIP3   OH255047   3.602   0.196  17.161 -0.0314 -0.6852 -0.2971
11211TIP3    H155048   3.612   0.192  17.066 -1.6849 -0.9899 -0.4884
11211TIP3    H255049   3.569   0.110  17.186 -0.1570 -0.4232  0.4836
11212TIP3   OH255050   2.085   4.010  16.631 -0.2234 -0.1177 -0.6013
11212TIP3    H155051   2.168   4.018  16.678  1.1495 -0.6793 -2.7886
11212TIP3    H255052   2.053   4.100  16.624  0.6084  0.1987 -0.4300
11213TIP3   OH255053   3.924   6.142   3.762  0.2613 -0.1226 -0.0911
11213TIP3    H155054   3.921   6.209   3.693  0.1551 -0.2249 -0.1874
11213TIP3    H255055   3.850   6.163   3.819  0.6141  0.2294  0.2459
11214TIP3   OH255056   4.914   0.087   1.350  0.0055  0.3725  0.0035
11214TIP3    H155057   4.946   0.164   1.397  0.4482 -0.0398  0.3820
11214TIP3    H255058   4.825   0.074   1.382  0.5545 -0.3380  1.2745
11215TIP3   OH255059   5.773   1.743   2.278  0.2597  0.4867  0.5515
11215TIP3    H155060   5.736   1.756   2.365  2.0161  2.4058  1.0864
11215TIP3    H255061   5.775   1.830   2.239  1.0788 -0.0840 -0.7627
11216TIP3   OH255062   1.075   5.954   0.905 -0.7227  0.2740  0.1276
11216TIP3    H155063   1.052   5.862   0.920 -0.9081  0.4155  0.7628
11216TIP3    H255064   1.065   5.995   0.991  2.7042  0.1869  0.6884
11217TIP3   OH255065   3.680   0.669   5.304 -0.2389  0.3599 -0.2758
11217TIP3    H155066   3.618   0.607   5.343  0.2339  0.5725  0.8450
11217TIP3    H255067   3.750   0.615   5.270  1.2174  0.3055  2.5435
11218TIP3   OH255068   4.266   4.428   6.438 -0.0889  0.0725 -0.2821
11218TIP3    H155069   4.214   4.475   6.372 -0.1051 -0.1350 -0.4167
11218TIP3    H255070   4.347   4.406   6.393 -2.0017 -4.7230 -2.0596
11219TIP3   OH255071   0.279   2.605  16.026 -0.2381  0.5466  0.3292
11219TIP3    H155072   0.353   2.551  16.053 -0.8812 -0.1157  0.8260
11219TIP3    H255073   0.213   2.591  16.095 -0.7419  1.2811  0.0058
11220TIP3   OH255074   3.651   0.387   0.369  0.0381 -0.4485 -0.3656
11220TIP3    H155075   3.706   0.364   0.444  1.2334  0.9553 -0.7757
11220TIP3    H255076   3.700   0.355   0.293  1.4259  2.6232 -0.9070
11221TIP3   OH255077   2.111   0.953  16.947  0.1435 -0.0375 -0.4704
11221TIP3    H155078   2.038   0.892  16.940  0.7013 -0.7473 -0.3049
11221TIP3    H255079   2.109   1.003  16.866  0.7061 -1.4763 -1.4182
11222TIP3   OH255080   0.295   6.082  15.673 -0.0152 -0.8176 -0.6213
11222TIP3    H155081   0.322   5.992  15.657 -2.1501 -1.5482 -0.3532
11222TIP3    H255082   0.200   6.079  15.679 -0.2707  1.6487 -1.8308
11223TIP3   OH255083   0.128   4.201   1.823  0.4319 -0.0148 -0.0665
11223TIP3    H155084   0.221   4.223   1.833  0.6297 -1.0004  0.4227
11223TIP3    H255085   0.124   4.107   1.841 -0.4354 -0.3025 -1.6075
11224TIP3   OH255086   0.766   3.131   4.634  0.0827 -0.3588 -0.3344
11224TIP3    H155087   0.853   3.105   4.665 -0.4630  0.1266  1.7374
11224TIP3    H255088   0.754   3.219   4.670 -1.0692 -0.2316 -1.0188
11225TIP3   OH255089   2.423   4.048   3.106  0.1680 -0.2325  0.2515
11225TIP3    H155090   2.436   4.114   3.038  2.2480 -0.8839 -0.0440
11225TIP3    H255091   2.335   4.066   3.139 -0.5743  0.6602 -1.9846
11226TIP3   OH255092   1.447   6.450  11.325  0.5866 -0.7572 -0.5356
11226TIP3    H155093   1.413   6.378  11.272  0.4346  0.1288 -1.6665
11226TIP3    H255094   1.501   6.501  11.265  0.9234 -0.0775  0.3223
11227TIP3   OH255095   4.695   0.845  12.055 -0.2562 -0.0837 -0.4173
11227TIP3    H155096   4.748   0.768  12.037  1.4181  0.9160  0.0426
11227TIP3    H255097   4.611   0.827  12.012 -0.5193 -2.8384  1.0404
11228TIP3   OH255098   1.826   0.751  15.496 -0.2112 -0.2117 -0.5020
11228TIP3    H155099   1.863   0.758  15.583  1.0410 -1.2256 -0.9274
11228TIP3    H255100   1.870   0.819  15.445  0.7687 -1.1303 -0.9004
11229TIP3   OH255101   6.263   2.729  14.212  0.2897 -0.6375  0.4301
11229TIP3    H155102   6.272   2.735  14.117 -2.3212  0.6955  0.1695
11229TIP3    H255103   6.330   2.789  14.246 -0.2103  0.6382 -0.7141
11230TIP3   OH255104   2.046   6.215   0.198  0.2725 -0.0988  0.0196
11230TIP3    H155105   2.068   6.270   0.122 -0.0611  2.2040  1.5047
11230TIP3    H255106   2.120   6.226   0.258 -1.4698  1.8992  1.9590
11231TIP3   OH255107   4.919   0.002   3.466  0.1395 -0.4358 -0.2348
11231TIP3    H155108   5.006   0.015   3.429  0.0732  1.1941  0.1021
11231TIP3    H255109   4.862   0.058   3.413 -0.7901 -1.6957 -0.6429
11232TIP3   OH255110   2.830   6.093  13.788  0.4261  0.0821  0.1619
11232TIP3    H155111   2.837   6.163  13.853 -1.0699  0.8444 -0.4553
11232TIP3    H255112   2.912   6.097  13.739  0.8412  0.6335  0.8758
11233TIP3   OH255113   1.194   2.398   5.323 -0.0096 -0.8708  0.1341
11233TIP3    H155114   1.104   2.379   5.351  0.0797  0.3437  1.3550
11233TIP3    H255115   1.185   2.468   5.259  0.1625  0.9220  1.9843
11234TIP3   OH255116   2.639   5.946   1.034  0.2307 -0.3524 -0.3456
11234TIP3    H155117   2.609   5.999   0.960  0.3846  3.1661  1.8291
11234TIP3    H255118   2.734   5.961   1.037  0.1708 -0.0462  0.7365
11235TIP3   OH255119   1.648   2.172   5.130  0.0591 -0.0565  0.0418
11235TIP3    H155120   1.633   2.079   5.116  2.7956 -0.4127 -1.0302
11235TIP3    H255121   1.642   2.182   5.225  0.0332 -1.3914  0.2062
11236TIP3   OH255122   0.513   0.307  15.815  0.2552 -0.1369  0.3184
11236TIP3    H155123   0.471   0.292  15.730  1.5786  0.0784 -0.4008
11236TIP3    H255124   0.440   0.320  15.876 -0.8002 -2.4835 -0.3216
11237TIP3   OH255125   0.985   6.532   2.209  0.0364 -0.5468 -0.4398
11237TIP3    H155126   0.906   6.584   2.223  1.3512  1.7654 -1.1461
11237TIP3    H255127   0.997   6.532   2.114  1.6036  0.2996 -0.2628
11238TIP3   OH255128   1.309   2.969   2.721 -0.4282  0.1655 -0.0098
11238TIP3    H155129   1.381   2.908   2.738  1.0748  0.8039 -3.3980
11238TIP3    H255130   1.351   3.055   2.717 -1.3990  0.5993 -1.6667
11239TIP3   OH255131   6.106   3.622  12.157 -0.1157 -0.1344 -0.1757
11239TIP3    H155132   6.052   3.690  12.197 -0.6924 -0.8312  0.2734
11239TIP3    H255133   6.188   3.625  12.205  0.1088  0.6754 -0.5956
11240TIP3   OH255134   1.401   1.358   5.385  0.2078  0.6913 -0.3485
11240TIP3    H155135   1.420   1.452   5.389 -0.0602  0.8035 -1.5463
11240TIP3    H255136   1.477   1.320   5.341 -0.4129  0.5819 -1.3609
11241TIP3   OH255137   1.423   2.308  16.888 -0.6818 -0.1633 -0.1954
11241TIP3    H155138   1.434   2.283  16.796  1.2698 -1.1704  0.2455
11241TIP3    H255139   1.468   2.392  16.896  2.1961 -1.6325  0.4425
11242TIP3   OH255140   4.219   0.784   0.852  0.0809  0.1320  0.3488
11242TIP3    H155141   4.288   0.760   0.790 -0.5089 -1.0341  0.1215
11242TIP3    H255142   4.160   0.840   0.802 -1.2608 -2.0898 -0.6811
11243TIP3   OH255143   1.940   1.415   3.624 -0.3585 -0.0070 -0.2837
11243TIP3    H155144   1.930   1.391   3.716 -0.4225 -0.3407 -0.3735
11243TIP3    H255145   1.940   1.331   3.578 -0.5138  0.1673 -0.6063
11244TIP3   OH255146   6.411   1.822   4.165  0.2850  0.0759 -0.4178
11244TIP3    H155147   6.399   1.849   4.074 -1.5491  0.9655  0.0549
11244TIP3    H255148   6.397   1.727   4.164  3.8803 -0.6020 -1.5999
11245TIP3   OH255149   3.715   5.451   3.257  0.2459  0.0210  0.2431
11245TIP3    H155150   3.739   5.523   3.200 -0.4126 -1.1747 -1.6208
11245TIP3    H255151   3.634   5.479   3.300 -0.3941  0.1543 -0.9996
11246TIP3   OH255152   1.300   3.350  12.283  0.3606 -0.1675  0.3666
11246TIP3    H155153   1.272   3.308  12.364  0.1836 -0.6435  0.0673
11246TIP3    H255154   1.377   3.402  12.308 -0.3224  0.5343  1.0352
11247TIP3   OH255155   3.546   1.116  14.744  0.9321  0.4187  0.3057
11247TIP3    H155156   3.527   1.025  14.720 -0.2078  0.7799 -0.2061
11247TIP3    H255157   3.636   1.130  14.714  0.2940  0.1946 -1.8963
11248TIP3   OH255158   0.972   0.216  10.447  0.3387 -0.5979 -0.4077
11248TIP3    H155159   0.924   0.157  10.505  0.5259  1.0188  1.4529
11248TIP3    H255160   0.908   0.241  10.380 -0.9452  0.2160  1.0807
11249TIP3   OH255161   4.118   4.842   5.181  0.0923 -0.4449 -1.0332
11249TIP3    H155162   4.167   4.866   5.102  1.6537 -1.3838 -0.4000
11249TIP3    H255163   4.157   4.759   5.208 -1.6037 -1.0202 -0.2395
11250TIP3   OH255164   1.798   3.145   0.470 -0.6455 -0.1574 -0.2406
11250TIP3    H155165   1.811   3.222   0.416 -0.7492 -0.3801 -0.5834
11250TIP3    H255166   1.867   3.149   0.536 -2.1633  1.6338  1.3736
11251TIP3   OH255167   3.784   2.353   6.286 -0.3788  0.1781  0.2250
11251TIP3    H155168   3.811   2.323   6.373 -1.6645  1.3251  1.0586
11251TIP3    H255169   3.727   2.283   6.253 -0.8362  0.2716  0.8110
11252TIP3   OH255170   2.702   0.722  12.067  0.7515 -0.1218 -0.3364
11252TIP3    H155171   2.744   0.666  12.132  2.3920 -0.3652 -1.5368
11252TIP3    H255172   2.637   0.666  12.025  0.2133 -0.1784  0.5395
11253TIP3   OH255173   2.362   2.327  16.359 -0.1348  0.2928  0.3179
11253TIP3    H155174   2.297   2.281  16.306  0.3267 -1.7295  1.4295
11253TIP3    H255175   2.446   2.288  16.335  0.3700  1.0366  0.8089
11254TIP3   OH255176   2.808   1.369   3.681 -0.5721 -0.1568 -0.7617
11254TIP3    H155177   2.876   1.423   3.721  1.3569 -1.9730 -1.3662
11254TIP3    H255178   2.785   1.305   3.749 -1.3860  0.1649 -0.7181
11255TIP3   OH255179   3.393   3.851   5.560  0.3763  0.1295 -0.3536
11255TIP3    H155180   3.419   3.764   5.589  1.6716  0.8131  0.6180
11255TIP3    H255181   3.473   3.890   5.524 -0.4554  0.5029 -1.8885
11256TIP3   OH255182   3.905   1.479  13.488 -0.1233  0.8160  0.2795
11256TIP3    H155183   3.876   1.460  13.399 -0.1656  1.7800  0.0746
11256TIP3    H255184   3.867   1.565  13.507 -2.0141 -0.3239  2.0569
11257TIP3   OH255185   3.515   6.196   0.623 -0.7092  0.2906 -0.5375
11257TIP3    H155186   3.426   6.228   0.640 -1.0020  0.1134 -1.6664
11257TIP3    H255187   3.527   6.125   0.686 -1.2226  0.5461 -0.1378
11258TIP3   OH255188   6.571   4.684   2.343  0.4117 -0.4179 -0.1866
11258TIP3    H155189   6.543   4.598   2.314  1.6521 -0.7984 -0.3348
11258TIP3    H255190   6.643   4.707   2.283 -0.5063  1.1321 -0.7458
11259TIP3   OH255191   0.562   1.513   3.584  0.3322  0.3890  0.1828
11259TIP3    H155192   0.603   1.504   3.670 -2.1558  0.7936  1.5211
11259TIP3    H255193   0.581   1.430   3.540  0.7182 -0.3077  1.5804
11260TIP3   OH255194   2.716   6.446   5.619  0.3614 -0.3232  0.2833
11260TIP3    H155195   2.675   6.478   5.700 -0.0257  1.2431 -0.5010
11260TIP3    H255196   2.649   6.391   5.579  0.2841 -0.5085  0.6540
11261TIP3   OH255197   2.405   6.618   4.761 -0.2544  0.3731  0.0952
11261TIP3    H155198   2.411   6.530   4.724  0.8865  0.2235  0.5922
11261TIP3    H255199   2.466   6.617   4.835  0.6938  1.9496 -0.6147
11262TIP3   OH255200   4.996   6.266  12.247 -0.1817  0.0150 -0.8071
11262TIP3    H155201   5.040   6.350  12.259  1.1877 -0.7625 -0.1626
11262TIP3    H255202   5.066   6.201  12.245 -1.2772 -1.6163  3.0511
11263TIP3   OH255203   3.077   1.541   1.125  0.1940 -0.3546 -0.7900
11263TIP3    H155204   3.012   1.559   1.058 -0.2232 -3.2752 -1.3303
11263TIP3    H255205   3.160   1.540   1.077  0.2317  0.1454 -0.7384
11264TIP3   OH255206   1.324   1.947  15.650 -0.1229  0.2207  0.3004
11264TIP3    H155207   1.349   2.012  15.584  0.0337  0.9996  1.1141
11264TIP3    H255208   1.258   1.990  15.704  2.4211  1.0704  3.0227
11265TIP3   OH255209   5.649   1.787  12.516 -0.1852  0.1097 -0.3338
11265TIP3    H155210   5.555   1.786  12.496 -0.0981 -0.8077 -0.7625
11265TIP3    H255211   5.691   1.751  12.438  0.6154  1.3167 -0.4904
11266TIP3   OH255212   4.220   4.122  14.249 -0.0048  0.3796 -0.0434
11266TIP3    H155213   4.237   4.135  14.342  0.2380 -0.0171 -0.0317
11266TIP3    H255214   4.285   4.058  14.221 -0.6638 -0.1967 -0.2838
11267TIP3   OH255215   4.337   6.257   1.335 -0.1607  0.1131 -0.2007
11267TIP3    H155216   4.303   6.285   1.421 -0.9801  0.6404 -0.6753
11267TIP3    H255217   4.431   6.247   1.348 -0.2052  0.6854  0.6382
11268TIP3   OH255218   0.664   6.486   2.605  0.3022  0.7952 -0.1502
11268TIP3    H155219   0.685   6.540   2.681  1.3472  0.3151 -0.0868
11268TIP3    H255220   0.642   6.400   2.642 -0.0548  0.8015 -0.3403
11269TIP3   OH255221   1.473   0.805   5.568  0.4910  0.8963  0.6694
11269TIP3    H155222   1.468   0.816   5.473  0.2699  1.1938  0.7124
11269TIP3    H255223   1.567   0.798   5.586  0.4750 -0.4186  0.3063
11270TIP3   OH255224   3.833   2.339   3.077  0.1666 -0.4315  0.0652
11270TIP3    H155225   3.867   2.316   2.990  2.3765  1.2904  0.3802
11270TIP3    H255226   3.841   2.435   3.080 -1.3200 -0.3172  1.6245
11271TIP3   OH255227   3.462   0.007   3.063  0.0193  0.4515  0.0721
11271TIP3    H155228   3.539  -0.014   3.115  0.6225 -0.6204 -1.2021
11271TIP3    H255229   3.390  -0.038   3.108  0.6113 -0.8666 -0.2653
11272TIP3   OH255230   3.734   3.454   5.113  0.6891  0.3458  1.0829
11272TIP3    H155231   3.693   3.372   5.087 -0.0102  1.4900 -1.8100
11272TIP3    H255232   3.695   3.474   5.198 -1.8139 -0.5936  0.2523
11273TIP3   OH255233   3.267   5.583   5.159 -0.5719 -0.0497 -0.4420
11273TIP3    H155234   3.197   5.621   5.212 -0.3910 -1.7277  1.0953
11273TIP3    H255235   3.238   5.493   5.144  0.1745 -0.0863 -1.8150
11274TIP3   OH255236   1.979   5.545  11.527 -0.1873  0.2606  0.0837
11274TIP3    H155237   2.064   5.508  11.505 -1.0206 -1.9843  0.4055
11274TIP3    H255238   1.916   5.482  11.494 -1.7530  1.6877  0.1979
11275TIP3   OH255239   2.558   0.401   1.905  0.1254 -0.3951  0.4097
11275TIP3    H155240   2.499   0.475   1.890  0.7523  0.5836  2.4527
11275TIP3    H255241   2.610   0.395   1.825 -0.3212  1.0103 -0.0085
11276TIP3   OH255242   0.294   3.858  12.827 -0.1993  0.0997 -0.5975
11276TIP3    H155243   0.271   3.856  12.734  0.6486  1.2472 -0.8487
11276TIP3    H255244   0.238   3.925  12.864 -2.1294 -1.8351  0.2235
11277TIP3   OH255245   3.772   2.208   5.538  0.3780 -0.7865  0.4992
11277TIP3    H155246   3.697   2.190   5.594 -0.3772  0.9566  0.1147
11277TIP3    H255247   3.839   2.242   5.597 -0.5209  1.3384  0.3839
11278TIP3   OH255248   4.936   1.153  12.850  0.5997  0.0618 -0.4766
11278TIP3    H155249   4.956   1.234  12.899  0.3695  0.6538 -1.3383
11278TIP3    H255250   4.841   1.148  12.852  0.4206  1.3203 -2.7320
11279TIP3   OH255251   4.712   2.027   1.428  0.6339 -0.1637 -0.1999
11279TIP3    H155252   4.676   1.956   1.376  0.5964 -0.4939  0.2732
11279TIP3    H255253   4.752   1.984   1.504  1.3744  0.2454 -0.3417
11280TIP3   OH255254   3.542   2.218   2.908 -0.0092 -0.1544  0.1502
11280TIP3    H155255   3.470   2.165   2.942 -1.3744  1.2263 -0.4859
11280TIP3    H255256   3.529   2.304   2.947  0.8326  0.3266 -0.5965
11281TIP3   OH255257   4.106   0.322  13.538 -0.3513  0.0522  0.5457
11281TIP3    H155258   4.074   0.236  13.510 -1.5312  0.5987  0.1476
11281TIP3    H255259   4.077   0.382  13.469 -0.8087  0.9892  1.5273
11282TIP3   OH255260   1.503   2.294   1.001 -0.2250 -0.4310 -0.2622
11282TIP3    H155261   1.516   2.223   1.064 -1.2682 -0.4987 -0.0946
11282TIP3    H255262   1.472   2.367   1.054  1.5708  0.4134 -0.3309
11283TIP3   OH255263   2.788   5.327   0.618 -0.2233 -0.4615 -0.9283
11283TIP3    H155264   2.825   5.290   0.538  5.3319 -1.9027  1.8278
11283TIP3    H255265   2.765   5.251   0.671 -0.7340  0.3912  0.1126
11284TIP3   OH255266   3.027   1.765  11.600  0.3013  0.3816  0.2280
11284TIP3    H155267   2.991   1.823  11.667  1.2834  0.0305  1.0919
11284TIP3    H255268   2.953   1.712  11.571  0.0106 -0.0026  1.6179
11285TIP3   OH255269   0.054   3.394  11.652 -0.5728  0.3753  0.1238
11285TIP3    H155270   0.147   3.415  11.663 -0.4689  0.6733 -1.1912
11285TIP3    H255271   0.025   3.450  11.579 -1.5702 -0.3488 -0.0576
11286TIP3   OH255272   0.022   4.413   0.501  0.0279  0.2198  0.9013
11286TIP3    H155273   0.087   4.346   0.520 -0.5907 -0.4952  0.5981
11286TIP3    H255274   0.067   4.496   0.513  1.0864 -0.2619  0.3719
11287TIP3   OH255275   0.929   3.977  14.355 -0.4749  0.0199 -0.9791
11287TIP3    H155276   1.006   4.005  14.306 -0.6103 -0.1239 -1.2737
11287TIP3    H255277   0.869   3.943  14.289  0.0895 -1.9397 -0.5532
11288TIP3   OH255278   6.019   3.347   4.923 -0.0646 -0.5207  0.6301
11288TIP3    H155279   6.087   3.412   4.944  1.5545 -2.8837  3.4007
11288TIP3    H255280   5.946   3.400   4.891  1.8488  2.4690  0.7046
11289TIP3   OH255281   2.083   2.625  15.857 -1.0245  0.0725 -0.4476
11289TIP3    H155282   2.126   2.603  15.940 -0.4807 -0.5822 -0.8987
11289TIP3    H255283   2.074   2.720  15.860  1.8226  0.4495 -0.9821
11290TIP3   OH255284   2.940   1.503  17.265  0.8597  0.1689 -1.0153
11290TIP3    H155285   2.955   1.593  17.235  1.7442  0.0220 -1.0452
11290TIP3    H255286   2.848   1.487  17.246  0.0107  1.8963  1.1969
11291TIP3   OH255287   4.874   2.534   6.250  0.2579  0.3136  0.0176
11291TIP3    H155288   4.956   2.584   6.254  1.1598 -1.0569 -0.6440
11291TIP3    H255289   4.861   2.502   6.339  1.7857 -1.4853 -0.3550
11292TIP3   OH255290   5.595   6.059  13.797 -0.2689  0.1911  0.6072
11292TIP3    H155291   5.636   6.091  13.717 -0.7229  1.4562  0.8556
11292TIP3    H255292   5.625   5.969  13.806 -0.2088  0.0346 -0.9842
11293TIP3   OH255293   2.331   2.304  13.247  0.0707 -0.6035 -0.5241
11293TIP3    H155294   2.317   2.354  13.328 -0.3455  0.3198 -1.1496
11293TIP3    H255295   2.288   2.220  13.263  0.5791 -0.6947  0.4616
11294TIP3   OH255296   3.631   2.967   3.665  0.4597  0.4449 -0.2023
11294TIP3    H155297   3.538   2.947   3.660  0.4541  0.1910  0.8499
11294TIP3    H255298   3.668   2.928   3.586 -0.1138 -0.5894  0.0300
11295TIP3   OH255299   3.845   6.415   4.270  0.4629 -0.1094 -0.2845
11295TIP3    H155300   3.877   6.355   4.202 -0.1895  1.9017 -2.5215
11295TIP3    H255301   3.911   6.484   4.274 -0.5921  0.9642 -0.5778
11296TIP3   OH255302   3.409   2.352   5.041 -0.6281  0.2961 -0.5108
11296TIP3    H155303   3.367   2.266   5.048 -0.2988  0.1860  0.2472
11296TIP3    H255304   3.465   2.345   4.964  1.2816 -1.0401  0.8972
11297TIP3   OH255305   3.504   0.666  14.271  0.1308 -0.4285 -0.3725
11297TIP3    H155306   3.538   0.755  14.259  1.8295 -1.0260 -0.1786
11297TIP3    H255307   3.581   0.613  14.291 -0.7917 -2.0412 -0.9288
11298TIP3   OH255308   3.908   6.341  14.244 -0.4225 -0.6420 -0.6337
11298TIP3    H155309   3.939   6.312  14.158 -0.3863 -1.9599 -0.1945
11298TIP3    H255310   3.980   6.396  14.278  1.0300 -2.7432 -0.1113
11299TIP3   OH255311   2.251   2.199   3.295 -0.1915  0.7274  0.5216
11299TIP3    H155312   2.200   2.129   3.336 -0.1906  0.5633  0.2482
11299TIP3    H255313   2.342   2.173   3.306 -0.0829  1.6928  2.2208
11300TIP3   OH255314   3.341   0.052  11.421 -0.1418 -0.2735  0.5612
11300TIP3    H155315   3.389   0.134  11.408  0.9565 -0.8151  1.0475
11300TIP3    H255316   3.250   0.079  11.435  0.3876  0.9502  1.8446
11301TIP3   OH255317   2.543   2.080  15.589 -0.3802 -0.1331 -0.6489
11301TIP3    H155318   2.571   2.163  15.628 -0.6437  0.3773 -1.5072
11301TIP3    H255319   2.623   2.042  15.553  0.0892 -1.1959  1.3763
11302TIP3   OH255320   5.487   0.778   0.602 -0.5619 -0.5902  0.4789
11302TIP3    H155321   5.490   0.697   0.652 -1.2378 -2.4635 -2.3358
11302TIP3    H255322   5.394   0.797   0.592 -0.5198 -1.2827 -1.5483
11303TIP3   OH255323   2.407   2.317   1.224  1.1330  0.0338 -0.3210
11303TIP3    H155324   2.387   2.264   1.146 -0.6714 -0.3992  0.3804
11303TIP3    H255325   2.423   2.253   1.293  1.1453  0.4016  0.0213
11304TIP3   OH255326   3.878   4.939   1.365  0.3743  0.0850  0.0394
11304TIP3    H155327   3.939   4.946   1.291  0.4132  0.6677  0.1221
11304TIP3    H255328   3.806   4.997   1.342  0.2501  0.0454  0.3294
11305TIP3   OH255329   1.560   2.747  16.715  0.1800 -0.1877  0.1286
11305TIP3    H155330   1.561   2.729  16.621  2.8950 -1.7718  0.3464
11305TIP3    H255331   1.515   2.672  16.753 -0.6275  0.2922  0.1315
11306TIP3   OH255332   2.550   4.768  17.172 -0.2669 -0.0163  0.7669
11306TIP3    H155333   2.510   4.681  17.172  0.0181 -0.2020 -1.4794
11306TIP3    H255334   2.635   4.756  17.214 -0.1275 -0.8944  0.2517
11307TIP3   OH255335   3.222   1.886   1.476 -0.0453 -0.2529  0.2471
11307TIP3    H155336   3.209   1.839   1.393  0.0970 -1.1508  0.7277
11307TIP3    H255337   3.137   1.926   1.494  0.1439  0.6554 -0.7493
11308TIP3   OH255338   5.671   0.299  14.912  0.2469 -0.1581  0.0761
11308TIP3    H155339   5.750   0.253  14.941  1.2136  0.6476 -1.1904
11308TIP3    H255340   5.697   0.390  14.904 -1.6115  0.6656  2.3897
11309TIP3   OH255341   4.824   5.655   5.724 -0.6327 -0.5142  0.6528
11309TIP3    H155342   4.877   5.601   5.782  1.5890  1.3052  0.4867
11309TIP3    H255343   4.843   5.622   5.636 -0.3437 -0.3530  0.6520
11310TIP3   OH255344   2.842   4.748  16.867 -0.3837 -0.1480 -0.5270
11310TIP3    H155345   2.793   4.829  16.850  0.1596  0.0716 -1.0712
11310TIP3    H255346   2.877   4.722  16.781  2.0761  0.7495  0.1255
11311TIP3   OH255347   3.584   2.979   4.004  0.7464  0.0957 -0.8851
11311TIP3    H155348   3.508   3.032   3.982 -0.0895 -0.8504 -0.3553
11311TIP3    H255349   3.632   2.971   3.922  0.7162  1.3691 -1.0492
11312TIP3   OH255350   1.290   3.978   1.056  0.0903  0.1199  0.3621
11312TIP3    H155351   1.201   3.993   1.023 -0.1282  0.6997  1.1793
11312TIP3    H255352   1.305   3.884   1.042 -0.8007 -0.0633  0.5528
11313TIP3   OH255353   3.983   3.098  15.404 -0.3882 -0.0240  0.7705
11313TIP3    H155354   3.982   3.065  15.315  1.0768  0.8262  0.4056
11313TIP3    H255355   3.952   3.024  15.457 -0.3216 -0.8710 -0.3260
11314TIP3   OH255356   0.902   4.295   3.884  0.4672 -0.4510  0.2132
11314TIP3    H155357   0.944   4.381   3.880  0.0990 -0.1786  1.6645
11314TIP3    H255358   0.808   4.313   3.880  0.3953 -0.8017  0.2518
11315TIP3   OH255359   0.217   0.124  11.766  0.9820 -0.3664  0.1471
11315TIP3    H155360   0.280   0.119  11.694  0.1940  2.0138 -0.8126
11315TIP3    H255361   0.136   0.155  11.725 -0.2336 -1.3544  1.6879
11316TIP3   OH255362   3.906   5.688  15.743 -0.6374  0.1718 -0.8280
11316TIP3    H155363   3.891   5.775  15.706  0.6068  0.2367 -1.2237
11316TIP3    H255364   3.914   5.631  15.667  0.2232  0.0152 -0.6337
11317TIP3   OH255365   4.382   5.793  16.453  0.3544 -0.9545  0.0683
11317TIP3    H155366   4.453   5.748  16.498 -0.0139 -0.5979  1.0348
11317TIP3    H255367   4.333   5.837  16.523  0.8256  1.1457 -0.8292
11318TIP3   OH255368   0.522   6.448   5.308 -0.0519  0.4602 -0.2862
11318TIP3    H155369   0.613   6.461   5.335  0.1205  2.0709 -1.4644
11318TIP3    H255370   0.521   6.474   5.216 -1.9318  1.6668  0.0187
11319TIP3   OH255371   4.193   2.769   3.568  0.7550  0.4660 -0.0747
11319TIP3    H155372   4.129   2.780   3.639  0.8834 -0.6121  0.2372
11319TIP3    H255373   4.141   2.772   3.488  0.5067  0.9825  0.1037
11320TIP3   OH255374   5.814   0.715  11.970  0.9249 -0.2488  0.2297
11320TIP3    H155375   5.903   0.748  11.957  0.1116  1.5717 -1.1290
11320TIP3    H255376   5.760   0.793  11.978 -0.8608 -1.2656 -1.1931
11321TIP3   OH255377   6.379   2.464  16.443 -0.5005  0.6510 -0.1966
11321TIP3    H155378   6.295   2.502  16.468 -0.1800  1.5102 -0.3728
11321TIP3    H255379   6.441   2.536  16.454  0.1153  0.1922 -0.6297
11322TIP3   OH255380   0.514   3.163   2.854 -0.4530  0.2735 -0.3148
11322TIP3    H155381   0.445   3.107   2.819 -1.5496  0.9422  0.7428
11322TIP3    H255382   0.574   3.176   2.780 -0.8860 -1.1555 -0.9572
11323TIP3   OH255383   0.803   0.364  12.308 -0.0220  0.1224  0.1416
11323TIP3    H155384   0.760   0.431  12.361  1.7609  0.6872  0.9485
11323TIP3    H255385   0.885   0.346  12.354  0.1001 -1.7430 -0.7221
11324TIP3   OH255386   2.519   5.488   0.860  0.1220  0.0122  0.1985
11324TIP3    H155387   2.544   5.395   0.860  0.4369  0.0828  1.2383
11324TIP3    H255388   2.428   5.488   0.831 -0.0660 -0.6916  0.7339
11325TIP3   OH255389   0.930   4.242  12.162  0.5836  0.5538  0.0248
11325TIP3    H155390   0.916   4.279  12.249  2.9229  0.7693  0.3800
11325TIP3    H255391   1.025   4.227  12.157  0.5577  0.7257 -2.5417
11326TIP3   OH255392   1.275   3.348  17.338  0.1308  0.3838 -0.3979
11326TIP3    H155393   1.218   3.276  17.313  2.4247 -1.7832  0.1194
11326TIP3    H255394   1.224   3.427  17.323 -2.4570 -1.3351 -1.1636
11327TIP3   OH255395   1.175   3.206   2.076  0.3282 -0.1647 -0.4180
11327TIP3    H155396   1.108   3.267   2.106 -1.2634 -1.5148 -1.0956
11327TIP3    H255397   1.154   3.190   1.984  2.3721  0.3426 -1.0490
11328TIP3   OH255398   1.952   3.326  17.007  0.2050  0.3640  0.3693
11328TIP3    H155399   1.979   3.270  16.934  1.7764 -1.2200  2.0690
11328TIP3    H255400   1.858   3.309  17.015  0.4441 -1.2547  0.1671
11329TIP3   OH255401   2.706   0.649  12.641 -0.2834  0.5115 -0.5786
11329TIP3    H155402   2.771   0.716  12.622 -1.9399  2.1868 -0.6618
11329TIP3    H255403   2.674   0.622  12.554 -0.8150  0.8537 -0.4898
11330TIP3   OH255404   5.502   5.103  12.001  0.1916  0.5017 -0.3252
11330TIP3    H155405   5.556   5.073  11.928 -0.0732  0.4487 -0.5005
11330TIP3    H255406   5.505   5.198  11.996 -0.3124  0.4944 -0.7639
11331TIP3   OH255407   1.000   1.437   4.726 -0.8336 -0.2749 -0.3358
11331TIP3    H155408   0.928   1.446   4.663 -1.1534  0.8524  0.1457
11331TIP3    H255409   0.971   1.490   4.801  0.9231  1.0506 -0.5271
11332TIP3   OH255410   0.376   4.933  14.700 -0.3993  0.3958  0.4163
11332TIP3    H155411   0.465   4.959  14.679 -0.6898  1.4891  0.4560
11332TIP3    H255412   0.384   4.843  14.733  0.4616 -0.1557 -1.1877
11333TIP3   OH255413   0.630   4.755  13.482 -0.4518  0.4007 -0.2622
11333TIP3    H155414   0.565   4.779  13.416 -0.2283  0.2293 -0.5473
11333TIP3    H255415   0.596   4.674  13.521 -1.2244  1.1627  0.7242
11334TIP3   OH255416   3.229   5.966   5.510  0.6118  0.1764  0.2120
11334TIP3    H155417   3.207   5.874   5.496  2.3099 -0.1759 -0.3908
11334TIP3    H255418   3.146   6.013   5.499 -0.6777 -1.4064  2.4094
11335TIP3   OH255419   6.551   1.536  11.205  0.2831 -0.4124 -0.4006
11335TIP3    H155420   6.645   1.552  11.196  0.0380  0.8914 -0.8205
11335TIP3    H255421   6.524   1.503  11.120  0.1778  0.2253 -0.6191
11336TIP3   OH255422   2.828   1.244  14.563  0.3072  0.1782 -0.2445
11336TIP3    H155423   2.833   1.174  14.629 -0.8872  0.7345  0.4638
11336TIP3    H255424   2.735   1.266  14.559  0.6022  1.3726 -0.8457
11337TIP3   OH255425   1.303   2.840  12.546  0.3711 -0.3935  0.0111
11337TIP3    H155426   1.338   2.758  12.510 -0.1414 -0.7414  0.2779
11337TIP3    H255427   1.217   2.815  12.581  1.1082 -0.2359  2.0563
11338TIP3   OH255428   4.349   4.583  16.701  0.4363  0.0198  0.2306
11338TIP3    H155429   4.393   4.499  16.683 -0.6486 -0.3187 -0.9547
11338TIP3    H255430   4.376   4.640  16.629 -1.1360 -0.2392 -0.6066
11339TIP3   OH255431   1.597   3.537  11.794 -0.6205  0.0467  0.0602
11339TIP3    H155432   1.610   3.523  11.888  2.0771 -1.2427 -0.4372
11339TIP3    H255433   1.617   3.630  11.781 -1.7509  0.4249  0.8215
11340TIP3   OH255434   1.448   2.298  15.793  0.6450 -0.1479 -0.3498
11340TIP3    H155435   1.530   2.343  15.812 -0.6802  1.9327  0.7298
11340TIP3    H255436   1.448   2.222  15.851  2.2330 -0.7583 -1.1057
11341TIP3   OH255437   3.672   0.764   1.112  0.5127 -0.1005  0.0120
11341TIP3    H155438   3.625   0.715   1.179  0.7647 -1.2094 -0.5948
11341TIP3    H255439   3.761   0.772   1.145  0.0569  1.5691  0.9364
11342TIP3   OH255440   4.698   1.459   2.859  0.2838  0.2686 -0.2708
11342TIP3    H155441   4.666   1.536   2.905 -1.2482  1.4598 -3.0858
11342TIP3    H255442   4.633   1.391   2.878 -1.3541  1.2734 -1.9934
11343TIP3   OH255443   5.465   2.075  12.831  0.0025  0.3575 -0.2109
11343TIP3    H155444   5.443   2.166  12.810  0.1357  0.6952  1.0517
11343TIP3    H255445   5.438   2.064  12.922 -0.3974 -1.0031 -0.4724
11344TIP3   OH255446   0.006   5.171  10.352  0.6316 -0.2240 -0.2763
11344TIP3    H155447   0.022   5.082  10.384  0.3063 -0.0225  0.4724
11344TIP3    H255448  -0.076   5.164  10.303  0.4625 -0.2832  0.0135
11345TIP3   OH255449   0.136   1.752   0.792  0.0708 -0.5069 -0.1626
11345TIP3    H155450   0.050   1.791   0.776 -0.4106 -1.1809  0.7296
11345TIP3    H255451   0.128   1.662   0.760  0.8032 -0.2702 -1.0889
11346TIP3   OH255452   6.485   1.733   2.097  0.1287 -0.0484  0.6168
11346TIP3    H155453   6.391   1.719   2.103  0.1539 -1.1125 -0.8577
11346TIP3    H255454   6.519   1.651   2.061  1.3350  1.0445 -0.8983
11347TIP3   OH255455   3.476   2.256  11.180  1.1293 -0.4313 -0.8982
11347TIP3    H155456   3.414   2.329  11.175  1.2479 -0.2997 -0.5149
11347TIP3    H255457   3.426   2.185  11.220  1.4273 -0.0883  0.1240
11348TIP3   OH255458   0.416   2.258  16.877  0.0636  0.3680 -1.1692
11348TIP3    H155459   0.344   2.205  16.841  0.3377  0.1627 -1.4184
11348TIP3    H255460   0.438   2.318  16.807  0.4832  0.0843 -1.2845
11349TIP3   OH255461   3.915   0.677  16.272 -0.5198  0.3311 -0.0722
11349TIP3    H155462   4.000   0.633  16.262 -0.4869  0.3089  0.2879
11349TIP3    H255463   3.913   0.740  16.201 -0.0364  0.5905  0.1345
11350TIP3   OH255464   4.936   2.925  15.899 -0.1561  0.3576  0.5984
11350TIP3    H155465   4.878   2.863  15.855 -1.5483  2.1684 -0.2811
11350TIP3    H255466   4.964   2.984  15.829 -0.8312  2.1443  1.7757
11351TIP3   OH255467   4.814   4.414   5.785 -0.0096  0.4289 -0.5141
11351TIP3    H155468   4.909   4.405   5.796 -0.0507 -0.0413 -0.4963
11351TIP3    H255469   4.802   4.501   5.749  0.5960 -0.1717 -2.2862
11352TIP3   OH255470   5.917   4.161  17.064 -0.1251 -0.5087  0.5623
11352TIP3    H155471   5.966   4.079  17.059 -0.9820 -1.0698  1.1775
11352TIP3    H255472   5.860   4.160  16.987  2.9178  1.5868 -1.9405
11353TIP3   OH255473   2.153   3.352   4.452 -0.0480 -0.1460  0.1465
11353TIP3    H155474   2.161   3.287   4.382 -2.1540 -2.2330  1.6778
11353TIP3    H255475   2.243   3.368   4.480  0.6884 -0.7180 -1.7385
11354TIP3   OH255476   0.872   6.256   5.300  0.1368  0.1256 -0.1151
11354TIP3    H155477   0.947   6.281   5.354  0.1002 -0.2337  0.1122
11354TIP3    H255478   0.849   6.169   5.332  0.3853 -0.2798 -1.0034
11355TIP3   OH255479   1.956   6.035  15.988 -0.2050 -0.9731 -0.1696
11355TIP3    H155480   1.970   6.061  16.079 -0.5554  1.5221 -0.7326
11355TIP3    H255481   1.863   6.014  15.984  0.0731 -2.3501  0.2978
11356TIP3   OH255482   5.599   6.136   3.481 -0.6750 -0.3922  0.4475
11356TIP3    H155483   5.656   6.059   3.485 -0.4906 -0.2777  0.0618
11356TIP3    H255484   5.513   6.103   3.506 -0.4730 -0.5984  0.8846
11357TIP3   OH255485   0.279   4.264  14.564 -0.2702 -0.2418 -0.4124
11357TIP3    H155486   0.272   4.276  14.659  1.0661  2.6608 -0.5937
11357TIP3    H255487   0.239   4.178  14.548 -0.1260 -1.0364  2.8071
11358TIP3   OH255488   0.997   3.477  13.275 -0.5039 -0.1180  0.1240
11358TIP3    H155489   1.059   3.429  13.220 -0.4989 -3.9123  3.0478
11358TIP3    H255490   0.912   3.438  13.254 -0.6596 -0.7853  1.8989
11359TIP3   OH255491   5.983   2.915   4.245  0.1883 -0.0949 -0.0643
11359TIP3    H155492   5.901   2.926   4.294  0.6009  0.9214  0.4304
11359TIP3    H255493   5.955   2.898   4.155 -0.5770  0.8123 -0.0195
11360TIP3   OH255494   6.704   1.360  12.091  0.3014 -0.1894 -0.5362
11360TIP3    H155495   6.675   1.320  12.174  0.6726 -1.1221 -0.8438
11360TIP3    H255496   6.741   1.287  12.041 -0.2018  0.2953 -1.6580
11361TIP3   OH255497   5.354   3.355   2.294 -0.0117 -0.3255 -0.0401
11361TIP3    H155498   5.391   3.407   2.366  2.2632  0.3766 -1.6023
11361TIP3    H255499   5.357   3.265   2.325  1.9227 -0.1479  0.3835
11362TIP3   OH255500   2.197   3.747  12.044 -0.0669 -0.6323 -0.2216
11362TIP3    H155501   2.198   3.665  11.994  0.3882 -0.0856 -1.1467
11362TIP3    H255502   2.215   3.721  12.134  0.8256 -1.4761 -0.6248
11363TIP3   OH255503   3.690   2.061   2.219 -0.2510  0.3377 -0.2866
11363TIP3    H155504   3.697   1.978   2.172 -2.1959 -0.2150  0.3010
11363TIP3    H255505   3.604   2.095   2.195 -0.2527  1.2530  0.9160
11364TIP3   OH255506   5.132   1.519   4.511  0.2085  0.4410  0.1030
11364TIP3    H155507   5.043   1.488   4.494 -0.1914  1.4400  0.2894
11364TIP3    H255508   5.161   1.468   4.587  0.6300 -1.4229 -1.2366
11365TIP3   OH255509   6.464   6.054  14.974 -0.3256 -0.8670  0.5454
11365TIP3    H155510   6.421   6.137  14.995  0.7283 -0.2583  0.3965
11365TIP3    H255511   6.398   6.004  14.926 -1.2219 -0.4145  1.2786
11366TIP3   OH255512   4.007   4.342   4.966 -0.2001 -0.3638  0.1777
11366TIP3    H155513   4.039   4.320   5.054  0.7106  2.7954  0.7643
11366TIP3    H255514   4.026   4.436   4.956 -1.9570 -0.1844 -2.6954
11367TIP3   OH255515   3.370   2.518  14.299  0.0041  0.1025 -0.0314
11367TIP3    H155516   3.422   2.554  14.227 -0.2337  0.6241  0.0548
11367TIP3    H255517   3.408   2.557  14.377 -1.6741  1.9864 -0.0760
11368TIP3   OH255518   1.594   2.419   5.051  0.1429 -0.3031  1.0343
11368TIP3    H155519   1.638   2.417   4.966  0.9425  0.3593  1.4081
11368TIP3    H255520   1.610   2.333   5.088 -2.1129 -1.4061 -0.3763
11369TIP3   OH255521   2.161   0.988   5.184  0.2084 -0.2588 -0.2087
11369TIP3    H155522   2.146   0.916   5.245  0.2203  0.1192  0.2391
11369TIP3    H255523   2.253   1.010   5.194 -0.1693  0.9034  0.8478
11370TIP3   OH255524   0.203   0.363   3.593 -0.6498  0.4872 -0.1093
11370TIP3    H155525   0.171   0.276   3.619 -0.8060  0.0753 -1.5510
11370TIP3    H255526   0.287   0.346   3.551 -1.2878  0.8401 -1.6065
11371TIP3   OH255527   4.886   6.121  12.509 -0.1200  0.1281  0.2722
11371TIP3    H155528   4.847   6.165  12.433  0.3384  1.2330  0.6608
11371TIP3    H255529   4.980   6.119  12.490  0.1418  1.3951  1.2590
11372TIP3   OH255530   2.187   4.711  14.303 -0.3493  0.6128  0.2890
11372TIP3    H155531   2.122   4.730  14.235  0.1004 -0.0273 -0.3410
11372TIP3    H255532   2.268   4.697  14.254 -0.5392 -2.4723  0.6788
11373TIP3   OH255533   5.094   2.850   2.586  0.2623 -0.5533  0.3969
11373TIP3    H155534   5.189   2.849   2.590  0.2491 -0.2687  0.7699
11373TIP3    H255535   5.065   2.807   2.666  0.0762 -1.0445  0.0748
11374TIP3   OH255536   5.183   1.282  11.951  0.3416  0.1479  0.4300
11374TIP3    H155537   5.188   1.305  11.859 -0.3464  0.4648  0.4704
11374TIP3    H255538   5.092   1.298  11.976  0.3315 -0.6922  0.9680
11375TIP3   OH255539   2.940   1.855   5.305 -0.3452 -0.0775  0.1596
11375TIP3    H155540   2.846   1.869   5.301 -0.3559 -0.3436 -0.7120
11375TIP3    H255541   2.965   1.883   5.394 -0.8111  2.5827 -0.4521
11376TIP3   OH255542   5.306   4.111   2.407  0.5026  0.0331  0.4089
11376TIP3    H155543   5.322   4.116   2.313 -0.0674 -1.7811  0.1794
11376TIP3    H255544   5.226   4.059   2.416 -0.2182  1.2951  1.8652
11377TIP3   OH255545   5.007   0.478  12.430  0.2851  0.1994  0.1822
11377TIP3    H155546   5.000   0.430  12.512  0.2865 -0.7336 -0.3412
11377TIP3    H255547   4.916   0.495  12.404  0.2511 -0.3809 -0.1036
11378TIP3   OH255548   1.137   0.262  16.949 -0.2267  0.4286  0.3868
11378TIP3    H155549   1.048   0.226  16.942 -0.5153  1.3494 -0.9415
11378TIP3    H255550   1.183   0.228  16.872 -0.4597  2.6743 -0.8210
11379TIP3   OH255551   4.657   5.256  14.092  0.5872 -0.1454  0.0303
11379TIP3    H155552   4.693   5.189  14.034  0.1403 -0.2448 -0.1378
11379TIP3    H255553   4.662   5.218  14.179 -2.4122 -1.6818 -0.3345
11380TIP3   OH255554   6.177   5.430  13.805  0.4120  0.4544  0.4102
11380TIP3    H155555   6.248   5.377  13.842  0.6449 -0.2700 -0.9993
11380TIP3    H255556   6.097   5.382  13.826  0.5435  0.0338 -0.0445
11381TIP3   OH255557   1.501   6.352   1.867  0.9886  0.0905 -0.5446
11381TIP3    H155558   1.460   6.325   1.950  1.5364  0.5998 -0.0938
11381TIP3    H255559   1.507   6.272   1.816 -2.1241  0.2454 -1.3417
11382TIP3   OH255560   4.411   5.271  15.013 -0.1932 -0.7948  0.0436
11382TIP3    H155561   4.464   5.275  15.092 -0.0762 -0.1630 -0.0577
11382TIP3    H255562   4.360   5.352  15.015  0.1721 -0.5411 -0.7746
11383TIP3   OH255563   4.101   5.955  11.222  0.4810 -0.2992  0.4236
11383TIP3    H155564   4.108   6.012  11.299  0.4329 -0.4165  0.5164
11383TIP3    H255565   4.077   5.870  11.259  0.0954 -0.2687  0.2450
11384TIP3   OH255566   3.694   2.357  15.691 -0.1441  0.1239  0.0826
11384TIP3    H155567   3.652   2.366  15.777  1.9986  1.2076  1.0941
11384TIP3    H255568   3.768   2.417  15.695 -0.6736  1.1196 -3.0090
11385TIP3   OH255569   5.795   4.607  11.698 -0.2357 -0.0882  0.5249
11385TIP3    H155570   5.719   4.623  11.753 -0.4683 -0.8895  0.4580
11385TIP3    H255571   5.758   4.594  11.610 -0.5389 -4.3576  1.0582
11386TIP3   OH255572   4.409   1.218  15.490 -0.4127 -0.0889 -0.1176
11386TIP3    H155573   4.430   1.176  15.406  0.1669 -0.6926  0.3186
11386TIP3    H255574   4.446   1.306  15.482  0.7112 -0.5417 -0.0533
11387TIP3   OH255575   3.329   0.367   5.255  0.1660  0.3029  0.3486
11387TIP3    H155576   3.339   0.452   5.298 -1.6023  1.2764 -1.0422
11387TIP3    H255577   3.294   0.387   5.168 -1.4148 -1.9062  0.3754
11388TIP3   OH255578   1.431   3.701  14.019  0.9398 -0.3025  0.4340
11388TIP3    H155579   1.349   3.651  14.014  1.5555 -1.3858  0.8475
11388TIP3    H255580   1.442   3.738  13.932  0.5202 -0.9897  0.0825
11389TIP3   OH255581   2.667   2.992   5.781  0.6253 -0.4878 -0.2588
11389TIP3    H155582   2.747   3.030   5.743  0.9214  0.7468  1.4784
11389TIP3    H255583   2.699   2.922   5.839  0.5819  0.5941  1.1369
11390TIP3   OH255584   2.551   4.208  13.383 -0.3942  0.9017 -0.1196
11390TIP3    H155585   2.619   4.141  13.393  0.1168  1.1607 -1.6106
11390TIP3    H255586   2.470   4.159  13.368 -0.3419  0.6070  0.5337
11391TIP3   OH255587   1.672   5.181  17.288  0.2783 -0.3111  0.0670
11391TIP3    H155588   1.710   5.130  17.359  1.7641  2.1249  1.1399
11391TIP3    H255589   1.585   5.207  17.320  0.4798 -0.1863  0.5191
11392TIP3   OH255590   0.254   6.056   5.176 -0.4306 -0.1736  0.7157
11392TIP3    H155591   0.277   5.963   5.178 -0.7234 -0.3846 -1.7570
11392TIP3    H255592   0.162   6.060   5.202 -0.0300 -0.3845  2.2016
11393TIP3   OH255593   4.374   2.715   4.596 -0.0819 -0.3689 -0.3580
11393TIP3    H155594   4.354   2.652   4.665  1.4264 -1.9079 -1.2296
11393TIP3    H255595   4.291   2.729   4.551 -0.5148 -1.5481  0.0336
11394TIP3   OH255596   6.328   5.242   0.939 -0.4426 -0.1200  0.0133
11394TIP3    H155597   6.341   5.331   0.973  0.9530 -0.3120  0.0397
11394TIP3    H255598   6.250   5.249   0.883 -1.1841  0.7900  1.1032
11395TIP3   OH255599   0.951   5.153  12.073 -0.0264  0.7410 -0.0854
11395TIP3    H155600   0.900   5.073  12.061 -1.1120  1.4440 -0.4185
11395TIP3    H255601   0.935   5.203  11.993  0.2886  1.4729  0.2961
11396TIP3   OH255602   0.486   6.504   3.217  0.7096  0.0430  0.1426
11396TIP3    H155603   0.444   6.436   3.271 -1.5463  0.3353 -1.1006
11396TIP3    H255604   0.468   6.478   3.127  1.4934  1.2979 -0.4020
11397TIP3   OH255605   2.079   6.186  13.038  0.7212 -0.0022 -0.3508
11397TIP3    H155606   2.172   6.199  13.018  0.4688  2.8008 -0.1392
11397TIP3    H255607   2.065   6.237  13.118 -1.3465  1.1599 -1.3695
11398TIP3   OH255608   3.582   0.995   3.570 -0.0234  0.8101 -0.5229
11398TIP3    H155609   3.527   1.057   3.618 -1.9668  0.0716 -1.6619
11398TIP3    H255610   3.531   0.974   3.492  2.4577  0.9717 -2.2867
11399TIP3   OH255611   6.114   2.392   4.419  0.3495 -0.6009 -0.3292
11399TIP3    H155612   6.066   2.352   4.491 -0.2253 -0.7406 -0.7767
11399TIP3    H255613   6.105   2.486   4.434  0.8490 -0.6310  0.1757
11400TIP3   OH255614   6.487   3.434   3.242  0.4665 -0.2837  0.5168
11400TIP3    H155615   6.415   3.450   3.303  0.1999  0.8567 -0.0612
11400TIP3    H255616   6.540   3.514   3.246  0.7716 -0.4362 -0.2939
11401TIP3   OH255617   4.799   4.212   4.795  0.5053 -0.0572 -0.1854
11401TIP3    H155618   4.893   4.226   4.808  0.7412  0.0340 -1.8150
11401TIP3    H255619   4.760   4.299   4.802  0.4349 -0.1748  1.1268
11402TIP3   OH255620   5.683   0.659  12.867 -0.7591  0.4959 -0.2197
11402TIP3    H155621   5.755   0.664  12.804 -1.9615 -1.2465 -1.8858
11402TIP3    H255622   5.723   0.624  12.946  0.4143  0.5591 -0.7570
11403TIP3   OH255623   0.411   3.484  14.613  0.2462 -0.4581  0.1597
11403TIP3    H155624   0.321   3.454  14.603 -0.7858  2.4969 -0.5575
11403TIP3    H255625   0.462   3.427  14.556 -1.2969 -1.6455 -0.0970
11404TIP3   OH255626   5.026   0.425  14.406 -0.3537  0.3249 -0.1293
11404TIP3    H155627   5.003   0.407  14.315 -0.6066  1.7754 -0.3755
11404TIP3    H255628   4.954   0.478  14.439 -0.6210 -0.7757  1.1549
11405TIP3   OH255629   0.171   4.585   2.934  0.5914  0.0484  0.3999
11405TIP3    H155630   0.115   4.657   2.962  1.9392  1.8187 -1.1555
11405TIP3    H255631   0.166   4.587   2.839  1.1035 -1.5803  0.3214
11406TIP3   OH255632   1.589   5.688   0.559 -0.5772  0.0251 -0.0576
11406TIP3    H155633   1.503   5.728   0.546 -1.8499 -2.6725 -0.4753
11406TIP3    H255634   1.574   5.620   0.625  1.3449 -0.2233  0.1725
11407TIP3   OH255635   0.104   3.171   4.510 -0.2594  0.1501  0.0791
11407TIP3    H155636   0.179   3.135   4.462 -0.3392 -0.2814  0.2746
11407TIP3    H255637   0.073   3.098   4.564  0.3194  0.8435  1.3817
11408TIP3   OH255638   4.997   1.788  16.717  0.0227  0.2788  0.6855
11408TIP3    H155639   5.081   1.803  16.674 -0.5187 -0.9133 -0.9256
11408TIP3    H255640   4.949   1.869  16.705  0.2693  0.3207 -0.0871
11409TIP3   OH255641   0.512   1.608  13.912  0.2376  0.0442 -0.3304
11409TIP3    H155642   0.551   1.661  13.843  1.5150 -2.1472 -1.3916
11409TIP3    H255643   0.583   1.554  13.945 -0.7250 -0.1523  1.6076
11410TIP3   OH255644   1.705   2.478   2.925 -0.6888  0.2315  0.8839
11410TIP3    H155645   1.744   2.393   2.946 -0.1382  0.3706  0.4373
11410TIP3    H255646   1.652   2.461   2.847  1.0354  0.6904 -0.4735
11411TIP3   OH255647   4.467   1.962  12.778  0.0089 -0.0013 -0.3373
11411TIP3    H155648   4.458   1.867  12.790 -0.2861 -0.0261 -0.7323
11411TIP3    H255649   4.560   1.975  12.761 -0.1534 -0.3824 -1.6182
11412TIP3   OH255650   5.196   1.265  12.546 -0.1082  0.6689 -0.4310
11412TIP3    H155651   5.178   1.304  12.632  1.2520  2.0807 -0.7555
11412TIP3    H255652   5.259   1.324  12.505 -0.3039 -0.2827 -2.1921
11413TIP3   OH255653   5.324   3.748   4.214  0.9071  0.3702 -0.0423
11413TIP3    H155654   5.286   3.825   4.257  1.3532  1.0167 -0.7807
11413TIP3    H255655   5.419   3.759   4.224  0.9866  0.1272 -0.5045
11414TIP3   OH255656   4.157   1.670  13.045 -0.6486 -0.6322  0.8940
11414TIP3    H155657   4.181   1.587  13.086  0.0853 -0.9323 -0.0923
11414TIP3    H255658   4.061   1.670  13.045 -0.6628 -1.8163  0.2643
11415TIP3   OH255659   2.047   1.518   5.041  0.4201  0.3986 -0.1033
11415TIP3    H155660   2.096   1.438   5.060 -0.6828 -0.1125  0.7034
11415TIP3    H255661   2.098   1.588   5.080  0.5610 -0.1150  0.6609
11416TIP3   OH255662   4.564   5.599   4.188 -0.1878  0.1548  0.2909
11416TIP3    H155663   4.642   5.600   4.244  0.6601  2.4786 -0.7752
11416TIP3    H255664   4.495   5.637   4.242 -0.1919 -0.4681  0.7333
11417TIP3   OH255665   2.358   2.773  14.308 -0.1707  0.2919  0.5559
11417TIP3    H155666   2.270   2.737  14.293 -0.1344  0.5532 -0.3893
11417TIP3    H255667   2.347   2.868  14.300  0.3960  0.2731 -0.8506
11418TIP3   OH255668   4.074   0.946   0.724 -0.2634  0.6891  0.5319
11418TIP3    H155669   4.042   0.966   0.636  0.9232  0.7460  0.1001
11418TIP3    H255670   3.995   0.942   0.778 -1.0436  0.1718 -0.6217
11419TIP3   OH255671   4.444   3.457   4.641  0.2389 -0.2047  0.1575
11419TIP3    H155672   4.446   3.428   4.550 -0.6563  0.9325 -0.2543
11419TIP3    H255673   4.356   3.435   4.671 -0.0732  1.0141  0.1809
11420TIP3   OH255674   3.228   6.394   5.996 -0.7331  0.1656 -0.1283
11420TIP3    H155675   3.236   6.473   5.942 -1.4210  0.5214  0.2701
11420TIP3    H255676   3.310   6.390   6.044 -0.7400  0.7114 -0.0613
11421TIP3   OH255677   1.262   1.211  11.550  0.3908  0.2734  0.1443
11421TIP3    H155678   1.232   1.252  11.469  1.0211 -0.7899 -0.6558
11421TIP3    H255679   1.358   1.213  11.545  0.4477 -1.2779  0.0594
11422TIP3   OH255680   5.131   2.623  16.366 -0.0838  0.0283  0.0206
11422TIP3    H155681   5.070   2.689  16.399 -1.4287 -1.5296  0.7998
11422TIP3    H255682   5.161   2.577  16.445  1.3798  0.1330 -0.4460
11423TIP3   OH255683   0.541   4.496  11.091  0.1368 -0.0333 -0.2885
11423TIP3    H155684   0.494   4.496  11.007 -0.2983 -2.2786 -0.0981
11423TIP3    H255685   0.562   4.404  11.107  0.7156  0.4152  1.8022
11424TIP3   OH255686   3.046   4.466   0.538 -0.2285  0.4349 -0.1146
11424TIP3    H155687   3.100   4.427   0.607  1.4947  1.7350 -0.6531
11424TIP3    H255688   3.007   4.391   0.493  0.2304 -0.5089  0.9928
11425TIP3   OH255689   6.585   2.716   6.090  0.5155 -0.5123  0.0205
11425TIP3    H155690   6.649   2.694   6.158  0.0612 -0.3865  0.4954
11425TIP3    H255691   6.638   2.741   6.014  1.0441  0.9465  0.8336
11426TIP3   OH255692   4.525   0.806  10.337 -0.3770  0.8682 -0.0277
11426TIP3    H155693   4.459   0.809  10.268  0.2380  1.0834 -0.6254
11426TIP3    H255694   4.564   0.893  10.338 -2.0958  1.7121  2.3722
11427TIP3   OH255695   1.219   5.980  12.203 -0.0583  0.1829 -0.0631
11427TIP3    H155696   1.163   6.040  12.253  0.3018  0.5322 -0.0771
11427TIP3    H255697   1.210   5.896  12.248 -0.0556  0.4007  0.3485
11428TIP3   OH255698   2.245   2.643  11.656 -0.2956 -0.3672 -0.2492
11428TIP3    H155699   2.181   2.714  11.659 -1.1769 -1.1670  1.9801
11428TIP3    H255700   2.205   2.576  11.602  0.6567  0.8375 -2.6014
11429TIP3   OH255701   4.834   6.189  17.309 -0.5889  0.1515  0.2571
11429TIP3    H155702   4.840   6.151  17.222 -1.2611 -0.1281  0.3315
11429TIP3    H255703   4.787   6.271  17.297 -0.6979  0.1046  0.3570
11430TIP3   OH255704   0.063   0.464  13.715 -0.3494 -0.4391  0.1113
11430TIP3    H155705   0.156   0.438  13.715 -0.5848 -1.3480 -0.6389
11430TIP3    H255706   0.020   0.398  13.660 -0.9536  1.7039 -2.2109
11431TIP3   OH255707   4.338   4.380  16.204 -0.0915  0.8806 -0.2021
11431TIP3    H155708   4.318   4.287  16.189 -0.5598  1.1026 -1.0207
11431TIP3    H255709   4.346   4.417  16.116  0.0606  1.6299  0.1194
11432TIP3   OH255710   2.645   1.654   5.232 -0.0246 -0.4381  0.1370
11432TIP3    H155711   2.622   1.564   5.207 -2.9568  0.5289 -1.1483
11432TIP3    H255712   2.689   1.645   5.316  0.7434 -3.1367 -0.4505
11433TIP3   OH255713   6.413   0.269   4.357 -0.1814 -0.0796 -0.7104
11433TIP3    H155714   6.357   0.197   4.329  0.3004 -0.9113  0.3912
11433TIP3    H255715   6.393   0.280   4.450  2.3063 -1.2377  0.0466
11434TIP3   OH255716   6.361   1.531  15.049 -0.2234 -0.3801  0.2564
11434TIP3    H155717   6.421   1.473  15.002 -0.3668 -0.8195  0.6075
11434TIP3    H255718   6.312   1.472  15.106  0.3197  0.2109  1.3493
11435TIP3   OH255719   3.918   5.525  12.419  0.1637 -0.1110  0.1923
11435TIP3    H155720   3.910   5.450  12.478 -0.1693 -1.3070 -1.3173
11435TIP3    H255721   3.918   5.487  12.331  0.5189  1.6240 -0.6079
11436TIP3   OH255722   0.556   2.070   1.277 -0.0113  0.1418 -0.3986
11436TIP3    H155723   0.631   2.128   1.264  0.8140 -0.6994  0.3712
11436TIP3    H255724   0.553   2.017   1.197  1.0019 -0.6472  0.0654
11437TIP3   OH255725   0.094   1.678   1.101  0.3820 -0.1128  0.1516
11437TIP3    H155726   0.090   1.728   1.019 -1.1161  3.3000  2.1094
11437TIP3    H255727   0.182   1.695   1.134 -0.0525  1.1538  0.7085
11438TIP3   OH255728   1.783   4.959   3.178  0.6671 -0.1997 -0.0195
11438TIP3    H155729   1.867   4.935   3.218  0.7600 -1.1871 -0.7729
11438TIP3    H255730   1.752   4.879   3.137 -0.2546  0.3672 -0.4664
11439TIP3   OH255731   0.226   5.985   4.599 -0.4454 -0.4498  0.2180
11439TIP3    H155732   0.138   5.969   4.565 -0.5754 -1.9563  1.1577
11439TIP3    H255733   0.218   6.065   4.651 -1.1098 -0.2243 -0.2215
11440TIP3   OH255734   4.211   1.618  11.284 -0.2457  0.0233 -0.0550
11440TIP3    H155735   4.182   1.599  11.195 -0.1971  0.1111 -0.0905
11440TIP3    H255736   4.260   1.540  11.310 -0.7861 -0.2611  0.1280
11441TIP3   OH255737   3.401   2.734   0.897  0.2070  0.1230  0.1164
11441TIP3    H155738   3.482   2.685   0.883  0.8324  0.9923  0.5957
11441TIP3    H255739   3.410   2.771   0.985 -1.1173 -0.5106  0.5493
11442TIP3   OH255740   5.948   4.854  14.099 -0.2215  0.0039 -0.0034
11442TIP3    H155741   5.979   4.837  14.188  1.1037  2.3123  0.0466
11442TIP3    H255742   5.882   4.923  14.109 -1.3494 -0.9311 -0.6869
11443TIP3   OH255743   4.430   6.551  12.262 -0.6300 -0.3876  0.2790
11443TIP3    H155744   4.410   6.465  12.225  0.9063 -0.4950 -0.3683
11443TIP3    H255745   4.524   6.548  12.280 -0.7870  0.7115  1.4681
11444TIP3   OH255746   1.147   1.962   3.221  0.6400  0.3842  0.1794
11444TIP3    H155747   1.072   1.906   3.199  0.9603  0.2039 -0.4771
11444TIP3    H255748   1.129   2.044   3.175  0.4046  0.6580  0.7557
11445TIP3   OH255749   5.390   0.920  16.628  0.0462  0.1358 -0.2300
11445TIP3    H155750   5.468   0.904  16.576  0.3439  1.9401 -0.4085
11445TIP3    H255751   5.422   0.933  16.717  0.2765  2.8305 -0.6062
11446TIP3   OH255752   2.006   5.100  15.167 -0.4592  0.1232  0.2094
11446TIP3    H155753   2.049   5.184  15.157 -1.3218  0.3766 -1.8792
11446TIP3    H255754   2.061   5.039  15.119  0.8990 -0.8735  2.8163
11447TIP3   OH255755   0.523   5.995  11.939 -0.1228  0.2004 -0.2644
11447TIP3    H155756   0.570   6.055  11.996 -0.2361 -0.0156  0.0655
11447TIP3    H255757   0.528   6.034  11.852  1.8307 -0.4979 -0.5034
11448TIP3   OH255758   6.027   4.176  12.399  0.0263  0.0211 -0.4545
11448TIP3    H155759   5.943   4.196  12.359 -0.7359 -0.8765  0.6418
11448TIP3    H255760   6.038   4.243  12.467  0.4386  0.4214 -0.9036
11449TIP3   OH255761   1.750   4.908  16.380  0.0254 -0.6479 -0.1508
11449TIP3    H155762   1.795   4.857  16.448  0.6230  1.4100  1.0911
11449TIP3    H255763   1.821   4.941  16.325  0.0533  1.5968  1.0959
11450TIP3   OH255764   3.645   3.233  12.859 -0.5102  0.0513 -0.1201
11450TIP3    H155765   3.644   3.138  12.869 -0.6381  0.1824  1.4215
11450TIP3    H255766   3.577   3.264  12.919  1.0841  1.2279  1.1699
11451TIP3   OH255767   4.998   5.954   2.340 -0.2863 -0.4899 -0.2183
11451TIP3    H155768   5.009   5.979   2.432  2.5012  0.6394 -0.7453
11451TIP3    H255769   5.075   5.902   2.319 -0.7339 -0.5236 -2.0006
11452TIP3   OH255770   3.718   0.795  13.586  0.1820  0.0015 -0.1567
11452TIP3    H155771   3.623   0.791  13.573  0.1499 -0.2744  0.1395
11452TIP3    H255772   3.731   0.869  13.646  0.1189 -0.1843  0.0892
11453TIP3   OH255773   5.163   5.435  15.440  0.2304  0.2396 -0.1320
11453TIP3    H155774   5.126   5.506  15.493  0.6948  0.6996 -0.4185
11453TIP3    H255775   5.252   5.464  15.420  0.4014 -0.3991 -0.3037
11454TIP3   OH255776   0.488   3.712   3.058 -0.7396  0.0162  0.4713
11454TIP3    H155777   0.510   3.619   3.054  1.2231  0.4603 -0.0104
11454TIP3    H255778   0.466   3.727   3.150  0.4759 -0.6387  0.8965
11455TIP3   OH255779   2.567   4.494   3.899 -0.4640  0.5274 -0.4125
11455TIP3    H155780   2.601   4.448   3.976 -1.3789 -0.7613 -0.7455
11455TIP3    H255781   2.490   4.540   3.930 -0.5342  0.4269 -0.4349
11456TIP3   OH255782   4.550   1.264  12.481  0.1986 -1.4211  0.4471
11456TIP3    H155783   4.568   1.257  12.388  0.4358  0.2094  0.3433
11456TIP3    H255784   4.536   1.174  12.510 -0.9684 -1.8647 -1.3707
11457TIP3   OH255785   3.606   3.281   4.271  0.2858 -0.5031 -0.5027
11457TIP3    H155786   3.670   3.352   4.283 -0.2887 -0.1988  0.9553
11457TIP3    H255787   3.631   3.214   4.335 -0.6765 -0.4896 -0.0863
11458TIP3   OH255788   1.629   5.266  10.883  0.1804 -0.1138  0.0031
11458TIP3    H155789   1.681   5.191  10.911  0.2090 -0.6197 -1.3733
11458TIP3    H255790   1.693   5.326  10.844 -0.3458 -1.2878 -2.8683
11459TIP3   OH255791   2.864   0.550   0.972 -0.6174 -1.0783  0.6996
11459TIP3    H155792   2.770   0.551   0.956 -0.6138 -0.3281  0.6811
11459TIP3    H255793   2.877   0.615   1.041  0.0487 -0.1239 -0.2922
11460TIP3   OH255794   1.581   4.426  16.175 -0.1164  0.2470  0.3094
11460TIP3    H155795   1.654   4.482  16.201  0.5429 -0.6079  0.3652
11460TIP3    H255796   1.593   4.346  16.227 -0.8949 -0.0394  0.0575
11461TIP3   OH255797   0.081   0.878   2.731 -0.0604  0.3983  1.1794
11461TIP3    H155798   0.107   0.937   2.802  0.3488  0.9415  0.5949
11461TIP3    H255799   0.113   0.792   2.758  1.2147  0.8206  1.0819
11462TIP3   OH255800   6.602   1.405   5.820  0.1694 -0.3722  0.2576
11462TIP3    H155801   6.516   1.363   5.813  1.1731 -2.4028 -0.7776
11462TIP3    H255802   6.615   1.444   5.733 -0.9274  2.6245  1.3282
11463TIP3   OH255803   1.219   2.218   1.116 -0.2944  0.2757 -0.2486
11463TIP3    H155804   1.178   2.263   1.190 -1.0183 -0.4789 -0.1884
11463TIP3    H255805   1.208   2.278   1.042 -0.2400  0.6975  0.0819
11464TIP3   OH255806   4.655   0.539   4.626 -0.0093 -0.2258 -0.2644
11464TIP3    H155807   4.716   0.489   4.680  0.5493  0.9046  0.1882
11464TIP3    H255808   4.569   0.519   4.663  0.1570 -1.1267 -0.3327
11465TIP3   OH255809   5.008   2.763   3.102  0.0776  0.0783 -0.0125
11465TIP3    H155810   5.014   2.839   3.159 -0.2009 -0.7173  1.1187
11465TIP3    H255811   5.078   2.775   3.038  0.0115  1.2878  0.1228
11466TIP3   OH255812   5.164   0.208   1.710  0.3438 -0.1332  0.3311
11466TIP3    H155813   5.095   0.237   1.650  1.2586 -0.2900 -0.8199
11466TIP3    H255814   5.225   0.160   1.655  0.2234 -2.0108  1.7270
11467TIP3   OH255815   6.771   0.774   0.700  0.4560  0.3324  0.5090
11467TIP3    H155816   6.854   0.792   0.743 -0.4110 -1.1402  3.0111
11467TIP3    H255817   6.749   0.684   0.726 -1.6234  0.4522 -0.5802
11468TIP3   OH255818   0.985   4.701  14.320 -0.2645  0.0330  0.5501
11468TIP3    H155819   0.892   4.697  14.339 -0.3355  1.5436  0.6369
11468TIP3    H255820   1.027   4.663  14.397 -0.8027 -1.4991  0.1343
11469TIP3   OH255821   0.834   6.530   1.967 -0.0010  0.1687  0.3219
11469TIP3    H155822   0.813   6.584   1.890  0.1172  0.1201  0.2552
11469TIP3    H255823   0.787   6.448   1.952 -1.0736  0.6501  0.9507
11470TIP3   OH255824   3.088   1.033   0.579  0.0453  0.5284 -0.2974
11470TIP3    H155825   2.992   1.035   0.586  0.0902  1.1399  0.1902
11470TIP3    H255826   3.108   1.093   0.508  0.0006 -0.6076 -1.3081
11471TIP3   OH255827   6.023   5.999  14.939 -0.3552  0.0389  0.6295
11471TIP3    H155828   6.115   5.988  14.961 -0.7020 -2.0428  1.2535
11471TIP3    H255829   6.016   5.970  14.848 -0.3922  0.3229  0.5384
11472TIP3   OH255830   0.758   0.779   1.520 -0.6649 -0.1754 -0.2243
11472TIP3    H155831   0.767   0.728   1.601 -0.3124 -0.3329 -0.3645
11472TIP3    H255832   0.737   0.714   1.453  0.9220 -0.2992 -0.6309
11473TIP3   OH255833   2.082   0.945   5.630  0.2309  0.2107  0.0429
11473TIP3    H155834   2.131   0.942   5.712 -1.2806 -1.9036  0.9678
11473TIP3    H255835   2.013   1.010   5.646 -0.7027 -0.9401  0.9127
11474TIP3   OH255836   3.843   0.841   5.748 -0.1118  0.1423  1.1814
11474TIP3    H155837   3.823   0.835   5.655  0.0933 -0.1848  1.1583
11474TIP3    H255838   3.760   0.864   5.789  0.0405  1.4801  0.7959
11475TIP3   OH255839   4.497   3.280   4.411 -0.5614 -0.0738 -0.0470
11475TIP3    H155840   4.507   3.227   4.490 -2.5895 -1.0012 -0.3540
11475TIP3    H255841   4.496   3.217   4.339  0.6600  0.7146 -0.7890
11476TIP3   OH255842   4.521   6.625  14.423  0.3409  0.5909 -0.0619
11476TIP3    H155843   4.611   6.609  14.450  0.0099 -1.4493 -0.0392
11476TIP3    H255844   4.526   6.640  14.329  0.8272  1.9566  0.1489
11477TIP3   OH255845   4.353   6.688  12.651  0.3769 -0.2000  0.3866
11477TIP3    H155846   4.385   6.775  12.677 -0.3998 -0.2853  1.7573
11477TIP3    H255847   4.276   6.674  12.707 -0.1931 -1.2894 -0.6332
11478TIP3   OH255848   2.863   3.317  14.411  0.4934 -0.0053 -1.0499
11478TIP3    H155849   2.932   3.314  14.477 -0.1850  1.3518 -0.2304
11478TIP3    H255850   2.806   3.243  14.432  0.5482  0.1332 -0.3947
11479TIP3   OH255851   1.768   1.458   5.704 -0.5081  0.2111 -1.0154
11479TIP3    H155852   1.848   1.414   5.674  0.3545  1.4592 -0.6090
11479TIP3    H255853   1.726   1.394   5.761  0.3417 -0.3723 -1.0239
11480TIP3   OH255854   3.401   5.326   3.051 -0.0522 -0.1901  0.0981
11480TIP3    H155855   3.464   5.397   3.060 -0.2513 -0.0845  0.7365
11480TIP3    H255856   3.343   5.354   2.980 -0.6561  0.6948  0.9269
11481TIP3   OH255857   6.532   0.570   1.618 -0.0838  0.0601 -0.0368
11481TIP3    H155858   6.603   0.624   1.582  2.1140 -1.0579  2.3317
11481TIP3    H255859   6.545   0.484   1.578  0.5291 -0.3969  1.1045
11482TIP3   OH255860   6.188   1.387   4.748 -0.1374  0.0124 -0.0209
11482TIP3    H155861   6.119   1.323   4.766 -0.9571  1.1356  0.9271
11482TIP3    H255862   6.171   1.415   4.658  0.2144 -1.0585 -0.4383
11483TIP3   OH255863   6.004   1.950   5.213 -0.7413 -0.1025 -0.4020
11483TIP3    H155864   6.026   1.866   5.252 -1.9810 -0.0963  0.3624
11483TIP3    H255865   6.082   2.004   5.227 -0.9127 -0.2917  1.5795
11484TIP3   OH255866   1.856   5.445   1.180  0.3079 -0.1485 -0.2619
11484TIP3    H155867   1.941   5.448   1.137  0.8543 -0.0273  0.7869
11484TIP3    H255868   1.835   5.536   1.199  0.3451 -0.2419  0.2335
11485TIP3   OH255869   6.323   4.104   1.990 -0.2117 -0.5068  0.1075
11485TIP3    H155870   6.341   4.083   1.899 -1.5329  1.1881 -0.6130
11485TIP3    H255871   6.363   4.190   2.003 -1.9880  0.3247  0.3932
11486TIP3   OH255872   2.317   3.672   1.782  0.2264  0.3697 -0.4044
11486TIP3    H155873   2.369   3.626   1.716 -0.9259  0.5933 -1.5222
11486TIP3    H255874   2.273   3.602   1.831  0.6591  0.2129 -0.2412
11487TIP3   OH255875   3.802   5.673  14.612 -0.7134  0.3860  0.1605
11487TIP3    H155876   3.781   5.765  14.594  1.8094  1.2055  0.9872
11487TIP3    H255877   3.826   5.672  14.705  0.9104 -0.7346 -0.2322
11488TIP3   OH255878   0.564   2.705   4.338 -0.5988 -0.5758  0.0881
11488TIP3    H155879   0.532   2.620   4.310 -0.4498 -0.7880  0.5455
11488TIP3    H255880   0.643   2.720   4.286 -1.0427 -0.3695 -0.5369
11489TIP3   OH255881   6.095   5.460  15.128 -0.4413 -0.1117 -0.2204
11489TIP3    H155882   6.190   5.469  15.137 -0.3126 -1.8341  0.4892
11489TIP3    H255883   6.061   5.467  15.217 -0.9659  0.2517 -0.4423
11490TIP3   OH255884   1.245   5.921  13.040  0.6402 -0.1003 -0.1048
11490TIP3    H155885   1.171   5.974  13.012  0.5206  0.0252  0.4264
11490TIP3    H255886   1.225   5.898  13.131  2.2863  1.8764  0.8551
11491TIP3   OH255887   1.961   1.696   3.428 -0.4849 -0.4374  0.0155
11491TIP3    H155888   1.973   1.663   3.517 -0.6221  0.5329  0.4065
11491TIP3    H255889   2.048   1.726   3.402 -0.4398 -0.7421 -0.1975
11492TIP3   OH255890   4.073   3.858   6.405 -0.2067  0.4691  0.0285
11492TIP3    H155891   4.150   3.843   6.459 -0.2698  0.1293  0.0219
11492TIP3    H255892   4.001   3.864   6.467 -0.2360  0.3715  0.0039
11493TIP3   OH255893   2.023   2.176   0.157 -0.0665  0.0175  0.2159
11493TIP3    H155894   2.025   2.162   0.252  0.2683  0.0790  0.2181
11493TIP3    H255895   2.039   2.089   0.120 -0.1099  0.0095  0.2157
11494TIP3   OH255896   3.155   0.323   5.959 -0.0432 -0.2104 -0.2635
11494TIP3    H155897   3.140   0.398   6.017 -2.1615 -1.1106  0.4380
11494TIP3    H255898   3.231   0.279   5.998 -1.0254 -0.4463  1.5118
11495TIP3   OH255899   6.464   5.681  11.617  0.4885 -0.0569  0.0264
11495TIP3    H155900   6.543   5.664  11.668 -1.0780  1.3468  3.2108
11495TIP3    H255901   6.392   5.660  11.677 -1.5031  2.8009 -1.1390
11496TIP3   OH255902   1.287   4.846  15.168  0.0574 -0.1839 -0.5945
11496TIP3    H155903   1.247   4.886  15.245  1.1508 -2.6960  1.4112
11496TIP3    H255904   1.381   4.845  15.187  0.4658 -0.1489 -2.3706
11497TIP3   OH255905   0.483   5.002  17.082  0.5034 -0.3514 -0.6066
11497TIP3    H155906   0.462   4.917  17.045 -0.9200 -0.6695  0.8119
11497TIP3    H255907   0.459   4.995  17.174  0.8928  1.4032 -0.3262
11498TIP3   OH255908   3.514   1.391   4.573 -0.2238 -0.2090  0.0393
11498TIP3    H155909   3.571   1.314   4.567 -0.3647 -0.3471  0.3954
11498TIP3    H255910   3.449   1.378   4.504  0.2912  0.0490 -0.5004
11499TIP3   OH255911   2.628   1.891   0.210  0.2729 -0.0179 -0.3384
11499TIP3    H155912   2.718   1.897   0.243  0.2774 -2.0684  0.1162
11499TIP3    H255913   2.582   1.963   0.254  0.7887 -1.3318  2.5555
11500TIP3   OH255914   0.510   0.734  12.597  0.0822  0.4898 -0.5232
11500TIP3    H155915   0.466   0.724  12.513 -1.1058  1.1760 -0.0138
11500TIP3    H255916   0.464   0.674  12.656 -2.1014  3.1629  0.6935
11501TIP3   OH255917   2.674   1.560  13.828  0.4906  0.0578  0.2240
11501TIP3    H155918   2.647   1.651  13.846  0.1903  0.1536 -0.6402
11501TIP3    H255919   2.591   1.513  13.819  0.5224  0.3086 -2.2502
11502TIP3   OH255920   4.807   6.286  11.636 -0.5028 -0.0476 -0.1513
11502TIP3    H155921   4.758   6.360  11.600  0.6921  0.6978 -0.2914
11502TIP3    H255922   4.806   6.300  11.731 -3.6794 -2.0282  0.2907
11503TIP3   OH255923   2.345   0.084  11.304  0.2980  0.1748  0.4300
11503TIP3    H155924   2.321   0.106  11.394  0.2358  2.9043 -0.1659
11503TIP3    H255925   2.261   0.075  11.258  0.3183 -1.6452  0.6825
11504TIP3   OH255926   4.228   3.892   1.994 -0.6757 -0.1846  0.0032
11504TIP3    H155927   4.181   3.971   1.968  0.6091  0.5351 -0.2378
11504TIP3    H255928   4.197   3.873   2.082 -1.1166  0.5009 -0.0012
11505TIP3   OH255929   4.388   0.543  16.756  0.2741 -0.0267 -0.1450
11505TIP3    H155930   4.379   0.578  16.845  0.9426 -1.7841  0.6722
11505TIP3    H255931   4.409   0.618  16.702  1.7914  0.8181  1.5277
11506TIP3   OH255932   4.189   5.099  14.044  0.3827  0.0014  0.0986
11506TIP3    H155933   4.181   5.195  14.038 -0.1055 -0.1065 -1.9145
11506TIP3    H255934   4.283   5.083  14.040  0.4210  0.3659 -2.3348
11507TIP3   OH255935   4.948   2.177   5.900 -0.3211  0.4081 -0.0949
11507TIP3    H155936   4.892   2.126   5.958  0.5932 -0.1210  0.3634
11507TIP3    H255937   4.894   2.199   5.824 -2.1476  2.6691  1.7049
11508TIP3   OH255938   2.819   1.833   2.895  1.3236 -0.0544  0.6249
11508TIP3    H155939   2.885   1.764   2.901  2.4192  0.9791  1.0111
11508TIP3    H255940   2.840   1.879   2.814 -0.9796 -1.6839 -0.9813
11509TIP3   OH255941   1.341   1.776  13.461 -0.1439  0.7379  0.2860
11509TIP3    H155942   1.301   1.817  13.384  1.0266 -1.1014 -1.4019
11509TIP3    H255943   1.388   1.848  13.505  1.6509  1.3751 -2.4222
11510TIP3   OH255944   0.848   2.762  16.140  0.0085 -0.1650  0.2611
11510TIP3    H155945   0.755   2.747  16.127  0.1828 -1.0343 -0.0775
11510TIP3    H255946   0.853   2.833  16.205 -0.8931 -1.5588  1.9285
11511TIP3   OH255947   2.007   1.838   4.393 -0.0296 -0.1299 -0.5336
11511TIP3    H155948   1.925   1.839   4.343  0.2077  0.9536 -0.9152
11511TIP3    H255949   1.984   1.793   4.474 -1.1062  0.4803 -0.4744
11512TIP3   OH255950   6.163   2.888   0.786  0.1029 -0.2445 -0.1660
11512TIP3    H155951   6.249   2.846   0.789  0.8707  1.3171  0.9592
11512TIP3    H255952   6.152   2.928   0.872 -0.3134  2.2819 -1.2830
11513TIP3   OH255953   0.617   6.166  10.927 -0.5299  0.3800 -0.3387
11513TIP3    H155954   0.608   6.103  10.856  1.0825  0.5076 -0.7017
11513TIP3    H255955   0.530   6.206  10.935 -1.3679 -1.3032 -0.6152
11514TIP3   OH255956   4.316   3.162  17.304 -0.3940  0.3599  0.3740
11514TIP3    H155957   4.336   3.234  17.244 -0.9749  0.3358  0.1481
11514TIP3    H255958   4.249   3.198  17.362 -2.4392 -0.7310 -1.2223
11515TIP3   OH255959   3.934   6.080   5.574  0.3005  0.6591 -0.2087
11515TIP3    H155960   3.972   6.150   5.522 -0.6915 -0.5378 -2.7218
11515TIP3    H255961   3.841   6.100   5.577  0.1328 -0.0836 -0.2173
11516TIP3   OH255962   5.176   4.879  13.493 -0.0284  0.4283 -0.0452
11516TIP3    H155963   5.188   4.909  13.583 -0.3617 -1.0268  0.5195
11516TIP3    H255964   5.256   4.829  13.475  0.0269  0.6979 -0.5570
11517TIP3   OH255965   5.139   2.920   3.890  0.1589  0.0120  0.0861
11517TIP3    H155966   5.115   2.987   3.955 -0.0927  0.7321 -0.7232
11517TIP3    H255967   5.232   2.937   3.873  0.6551 -1.1739  1.3704
11518TIP3   OH255968   3.840   3.317  10.584  0.2063  0.0217  0.1113
11518TIP3    H155969   3.903   3.247  10.567 -0.0074 -0.0090 -0.5797
11518TIP3    H255970   3.756   3.272  10.593  0.4913 -0.1425  2.8340
11519TIP3   OH255971   3.890   1.456   6.621 -0.8544 -0.4103  0.1336
11519TIP3    H155972   3.938   1.389   6.669 -0.5709  0.1837  0.7012
11519TIP3    H255973   3.817   1.409   6.581 -0.2550 -1.1835 -0.0902
11520TIP3   OH255974   2.433   2.853   4.650 -0.5805  0.2109  0.0110
11520TIP3    H155975   2.357   2.910   4.647 -0.8991 -0.1707  0.6297
11520TIP3    H255976   2.404   2.771   4.609 -0.0318  0.5790 -1.1687
11521TIP3   OH255977   0.472   0.980  14.782  0.3679  0.2824  0.1200
11521TIP3    H155978   0.474   0.918  14.709  0.8764  1.2334 -0.7068
11521TIP3    H255979   0.471   1.066  14.739  0.6290  0.8542  1.2400
11522TIP3   OH255980   1.710   4.443   5.898  0.3792  0.6071 -0.2837
11522TIP3    H155981   1.778   4.467   5.836  1.8530 -2.1937  0.0481
11522TIP3    H255982   1.633   4.424   5.844  0.9159  0.4964 -1.0208
11523TIP3   OH255983   3.438   4.358  14.395 -0.5026  0.3712 -0.2155
11523TIP3    H155984   3.502   4.413  14.441 -0.3073  0.9748 -1.1826
11523TIP3    H255985   3.355   4.404  14.406 -0.3817  0.7351 -0.8223
11524TIP3   OH255986   5.315   6.273   0.761 -0.0485  0.4227 -0.7021
11524TIP3    H155987   5.274   6.258   0.847 -1.3484  0.7144 -1.2466
11524TIP3    H255988   5.244   6.307   0.707  0.5436 -0.5703 -2.1496
11525TIP3   OH255989   1.841   1.836   5.336  0.1366  0.4323 -1.2909
11525TIP3    H155990   1.797   1.800   5.413 -2.2724  0.4431 -2.5936
11525TIP3    H255991   1.855   1.929   5.358 -1.6146  0.7215 -1.2799
11526TIP3   OH255992   2.110   3.855   0.451 -0.4047 -0.2588 -0.3166
11526TIP3    H155993   2.050   3.890   0.517  0.1500  1.8882 -0.8995
11526TIP3    H255994   2.074   3.883   0.367  1.9553  2.2140 -0.6471
11527TIP3   OH255995   2.667   1.618  17.267  0.4510 -1.1222  0.1292
11527TIP3    H155996   2.634   1.561  17.197  1.6596 -0.8933 -0.6721
11527TIP3    H255997   2.640   1.706  17.241 -0.6402 -1.2068  0.9039
11528TIP3   OH255998   2.843   3.314  16.379 -0.9039  0.0127  0.1350
11528TIP3    H155999   2.825   3.344  16.468 -1.6680 -0.5645  0.1861
11528TIP3    H256000   2.815   3.386  16.323  0.4206  0.7532  0.3790
11529TIP3   OH256001   1.270   3.968  13.759 -0.2530  0.3154 -0.3975
11529TIP3    H156002   1.203   3.964  13.691 -1.1160 -1.0137  0.4767
11529TIP3    H256003   1.341   3.912  13.727  0.9441  2.4914 -1.7718
11530TIP3   OH256004   1.725   2.124  11.006  0.2223 -0.2105  0.2481
11530TIP3    H156005   1.803   2.078  10.977  0.4120  2.1189 -3.5230
11530TIP3    H256006   1.669   2.127  10.929 -1.7358  1.8571  1.6388
11531TIP3   OH256007   5.541   4.795  16.161  0.0972  0.0337  0.1573
11531TIP3    H156008   5.565   4.754  16.244  0.6983 -1.0228 -0.5182
11531TIP3    H256009   5.460   4.751  16.135  0.6009 -0.5661 -0.4376
11532TIP3   OH256010   0.640   5.773  12.091  0.1415  0.4709  0.2727
11532TIP3    H156011   0.626   5.850  12.036 -1.1520  0.2815  0.2999
11532TIP3    H256012   0.566   5.773  12.152 -0.0647 -0.9417  0.0757
11533TIP3   OH256013   6.673   4.952  13.292 -0.1615  0.2834 -0.1202
11533TIP3    H156014   6.724   4.898  13.231  0.9553  0.5823  0.5052
11533TIP3    H256015   6.696   4.917  13.379 -1.5997 -0.0379  0.1526
11534TIP3   OH256016   6.529   2.229  11.529  0.1422  0.0708  0.3011
11534TIP3    H156017   6.515   2.192  11.442 -1.2797 -0.9738  0.9314
11534TIP3    H256018   6.605   2.181  11.563  1.2236  1.0500 -0.6199
11535TIP3   OH256019   5.009   5.717  13.659  0.0685  0.6879  0.4524
11535TIP3    H156020   5.102   5.703  13.642 -0.3575 -2.6108  0.1302
11535TIP3    H256021   4.977   5.761  13.580  1.3586  2.3931  0.7967
11536TIP3   OH256022   4.920   0.709   4.146  0.9316  0.1448  0.4378
11536TIP3    H156023   4.938   0.634   4.202 -0.5901  0.3456  1.2634
11536TIP3    H256024   4.847   0.754   4.190  0.8958  1.3157 -0.7678
11537TIP3   OH256025   6.443   5.907   5.431  0.1066  0.1007 -0.1838
11537TIP3    H156026   6.452   5.814   5.409  0.6404  0.2568 -0.6673
11537TIP3    H256027   6.498   5.952   5.366  0.2962  0.7135  0.3858
11538TIP3   OH256028   3.875   0.318   3.937 -0.0423  0.2842 -0.0894
11538TIP3    H156029   3.873   0.285   4.027  0.0286  2.0848  0.6186
11538TIP3    H256030   3.808   0.266   3.892 -0.0676 -0.6714  0.9901
11539TIP3   OH256031   3.083   6.043  14.160  0.1488  0.0943 -0.7942
11539TIP3    H156032   3.171   6.071  14.133 -0.1092  1.2531 -0.4756
11539TIP3    H256033   3.090   5.948  14.168  1.3937  0.1747 -0.7305
11540TIP3   OH256034   4.152   4.147  17.314  0.5137 -0.5489  0.5410
11540TIP3    H156035   4.185   4.209  17.249  2.7017 -1.0689  1.0627
11540TIP3    H256036   4.082   4.099  17.269  1.5581 -0.4871 -1.2492
11541TIP3   OH256037   4.080   0.589   4.144  0.2004  0.6570  0.4856
11541TIP3    H156038   4.099   0.642   4.066 -0.4376 -1.0894 -0.9265
11541TIP3    H256039   3.985   0.585   4.147  0.2242  0.6372  1.3317
11542TIP3   OH256040   5.764   1.293  16.026 -0.2470 -0.2556 -0.0030
11542TIP3    H156041   5.819   1.369  16.006  0.7781 -1.1414 -0.7085
11542TIP3    H256042   5.700   1.325  16.089  0.8671  0.9089  0.5831
11543TIP3   OH256043   2.517   1.452   4.604 -0.4317  0.7573 -0.8551
11543TIP3    H156044   2.518   1.418   4.694  0.7042  1.7488 -0.4629
11543TIP3    H256045   2.439   1.413   4.565 -1.7791  1.4278  0.9968
11544TIP3   OH256046   2.305   2.113  13.484 -0.3762 -0.0097  0.4293
11544TIP3    H156047   2.340   2.030  13.515 -0.5184 -0.1747  0.1495
11544TIP3    H256048   2.339   2.178  13.546  0.9629 -0.0740 -0.2011
11545TIP3   OH256049   1.996   3.644   1.843  0.7905  0.4003  0.2953
11545TIP3    H156050   2.075   3.592   1.827  1.8103  1.5093  1.5483
11545TIP3    H256051   1.956   3.604   1.920  0.1247 -0.1336 -0.3138
11546TIP3   OH256052   4.125   5.741  14.762 -0.8228 -0.4477  0.0364
11546TIP3    H156053   4.140   5.657  14.718 -0.2800 -0.7300  0.7336
11546TIP3    H256054   4.184   5.739  14.837 -1.3558  0.2412  0.4859
11547TIP3   OH256055   2.696   3.242   3.021  0.4398 -0.0759  0.3666
11547TIP3    H156056   2.617   3.199   2.989  0.4511 -0.4569  0.8355
11547TIP3    H256057   2.679   3.258   3.114 -0.1282  2.2253 -0.0673
11548TIP3   OH256058   3.587   6.492  13.118 -0.0058 -0.2241  0.5476
11548TIP3    H156059   3.602   6.559  13.052 -0.9896 -1.3393 -0.8634
11548TIP3    H256060   3.521   6.530  13.176  0.4541  0.5487  0.5734
11549TIP3   OH256061   1.745   5.427   5.238  0.1239  0.2916  0.1041
11549TIP3    H156062   1.684   5.425   5.164  0.3692 -1.5070 -0.1012
11549TIP3    H256063   1.831   5.444   5.198  0.1555  0.0132  0.0515
11550TIP3   OH256064   6.270   3.519  14.702 -0.5027  0.1074  0.5471
11550TIP3    H156065   6.208   3.552  14.767 -0.4992  2.9351 -0.7554
11550TIP3    H256066   6.218   3.509  14.622 -0.2796 -2.3250  0.6303
11551TIP3   OH256067   4.042   2.095   6.097 -0.0402  0.2083 -0.1707
11551TIP3    H156068   4.007   2.185   6.097 -1.9574 -0.3797 -3.0275
11551TIP3    H256069   4.077   2.084   6.009  0.3964 -1.7774  0.2159
11552TIP3   OH256070   5.257   4.897  11.975  0.8885  0.6696 -0.5125
11552TIP3    H156071   5.287   4.822  11.924  3.1642  1.4214 -0.3975
11552TIP3    H256072   5.336   4.950  11.988 -0.3854  2.4049  0.5584
11553TIP3   OH256073   1.631   0.725   2.682 -0.2105  0.3656 -0.7143
11553TIP3    H156074   1.699   0.667   2.717 -0.8441  0.0298 -0.0240
11553TIP3    H256075   1.657   0.739   2.591  1.0119  0.5852 -0.3557
11554TIP3   OH256076   5.107   0.739   2.857 -0.5090  0.2217  0.1355
11554TIP3    H156077   5.193   0.777   2.839 -0.6883  0.7857  0.4535
11554TIP3    H256078   5.055   0.760   2.780 -0.4527  0.1497  0.0779
11555TIP3   OH256079   5.420   4.943   2.238  0.4212 -0.8091 -0.2519
11555TIP3    H156080   5.428   4.897   2.154 -1.0817  0.4739 -1.1347
11555TIP3    H256081   5.483   4.898   2.295  1.3020 -1.8806 -1.9695
11556TIP3   OH256082   0.445   4.447   5.438 -0.1785  0.3708  0.3473
11556TIP3    H156083   0.486   4.453   5.524 -1.4828  0.6319  0.9809
11556TIP3    H256084   0.351   4.454   5.456 -0.4520  0.7796 -1.1367
11557TIP3   OH256085   5.916   1.912  13.142  0.0728 -0.2705 -0.1522
11557TIP3    H156086   5.914   1.996  13.188  0.2147 -0.5520  0.3761
11557TIP3    H256087   5.861   1.926  13.065  0.0245  0.2803 -0.0251
11558TIP3   OH256088   2.528   2.255  12.897  0.0878  0.5437  0.3554
11558TIP3    H156089   2.500   2.219  12.813 -0.4487  1.3514  0.1755
11558TIP3    H256090   2.583   2.330  12.873  0.4256  0.4168  0.7250
11559TIP3   OH256091   1.499   4.039   0.871  0.0840 -0.1831  0.0422
11559TIP3    H156092   1.546   3.958   0.848 -0.9359 -0.7830  0.0042
11559TIP3    H256093   1.422   4.009   0.918  0.4547  0.8637  1.3989
11560TIP3   OH256094   4.652   1.922  15.954 -0.2209  0.0165  0.0749
11560TIP3    H156095   4.595   1.903  16.028 -0.0544 -1.8522 -0.2215
11560TIP3    H256096   4.614   1.873  15.881  0.9308 -0.0658 -0.4993
11561TIP3   OH256097   6.566   2.363   0.237 -0.2888  0.6427  0.0036
11561TIP3    H156098   6.595   2.317   0.158 -1.4867  0.8896 -0.6167
11561TIP3    H256099   6.492   2.416   0.207 -1.3231  0.0943  1.4778
11562TIP3   OH256100   6.227   0.772  14.521  0.1235  0.1940  0.8110
11562TIP3    H156101   6.286   0.722  14.466 -0.5253  1.1785 -0.8583
11562TIP3    H256102   6.141   0.732  14.506 -0.4457  1.8875 -0.7470
11563TIP3   OH256103   0.180   4.102   3.098 -0.1103  0.6029  0.0062
11563TIP3    H156104   0.160   4.135   3.011 -1.6430  2.2534  0.9018
11563TIP3    H256105   0.171   4.178   3.155 -1.6062 -0.8798  1.9067
11564TIP3   OH256106   4.268   4.219  12.762 -0.6634 -0.2003 -0.3175
11564TIP3    H156107   4.233   4.282  12.824 -0.8308 -0.7638  0.1592
11564TIP3    H256108   4.287   4.272  12.684  1.1828  0.8626  0.7662
11565TIP3   OH256109   4.762   5.787  17.184  0.3677  0.1926 -0.3633
11565TIP3    H156110   4.693   5.798  17.249  0.4504  1.2392 -0.4398
11565TIP3    H256111   4.738   5.708  17.136 -1.2493  1.0128 -0.9545
11566TIP3   OH256112   2.261   4.645  12.461  0.1478 -0.1502  0.2290
11566TIP3    H156113   2.199   4.631  12.532 -0.1520 -0.7019 -0.1281
11566TIP3    H256114   2.228   4.721  12.414  1.1668  1.1684  1.5319
11567TIP3   OH256115   5.458   3.154   2.857 -0.4063 -0.3615 -0.3074
11567TIP3    H156116   5.518   3.228   2.845  0.4784 -1.1531 -0.9330
11567TIP3    H256117   5.423   3.166   2.945 -1.6601  1.7614 -1.0008
11568TIP3   OH256118   2.969   4.569   5.199  0.3552  0.5253 -0.1839
11568TIP3    H156119   2.914   4.640   5.231  0.2354  0.7400 -0.8457
11568TIP3    H256120   2.924   4.537   5.121  0.1794 -0.5699  0.3401
11569TIP3   OH256121   4.004   0.929   0.431 -0.5759  0.0636 -0.9199
11569TIP3    H156122   4.014   1.023   0.447  0.6288 -0.3647  1.2983
11569TIP3    H256123   3.954   0.924   0.349 -1.7683  2.6190 -0.4656
11570TIP3   OH256124   1.222   1.118   6.286  0.1107  0.1914 -0.2030
11570TIP3    H156125   1.266   1.185   6.235  1.4335 -0.8164 -0.4376
11570TIP3    H256126   1.286   1.047   6.293 -0.0195  0.2357  2.7857
11571TIP3   OH256127   3.970   0.350  10.688 -0.1735 -0.2068 -0.1469
11571TIP3    H156128   3.993   0.297  10.612 -1.8520 -1.1047 -0.0549
11571TIP3    H256129   3.896   0.403  10.659 -1.2372 -1.0089  1.0290
11572TIP3   OH256130   5.714   5.618  14.872  0.1288 -0.4025 -0.1082
11572TIP3    H156131   5.780   5.684  14.893  0.9811 -0.4957 -2.2080
11572TIP3    H256132   5.642   5.635  14.933  1.9891 -0.2003  2.1672
11573TIP3   OH256133   6.189   6.689  13.481  0.0853 -0.1816 -0.0882
11573TIP3    H156134   6.110   6.666  13.530 -1.1074  1.4171 -1.1665
11573TIP3    H256135   6.193   6.623  13.411  0.5007 -1.0764  0.7479
11574TIP3   OH256136   2.585   1.997   3.652 -0.4506 -0.6046 -0.0113
11574TIP3    H156137   2.598   2.092   3.656 -0.7750 -0.5682  0.2214
11574TIP3    H256138   2.504   1.986   3.601 -0.1210 -0.7807 -0.5018
11575TIP3   OH256139   3.237   2.575  13.239 -0.7108  0.0723  0.6817
11575TIP3    H156140   3.263   2.492  13.198  0.4739  0.2551  1.0318
11575TIP3    H256141   3.205   2.549  13.326 -0.0928  0.0097  0.8896
11576TIP3   OH256142   0.522   3.608   2.782  0.2482 -0.3568  0.4766
11576TIP3    H156143   0.459   3.536   2.786 -0.0274 -0.1083  0.7921
11576TIP3    H256144   0.521   3.644   2.871 -1.6701  1.7469 -0.2844
11577TIP3   OH256145   0.604   1.927  13.283  0.1255  0.1521  0.6220
11577TIP3    H156146   0.639   2.005  13.239  0.7125  0.5056  1.6813
11577TIP3    H256147   0.534   1.961  13.340 -0.6134 -0.2953  0.0071
11578TIP3   OH256148   5.456   1.090  16.293 -0.2915  0.1902 -0.5058
11578TIP3    H156149   5.535   1.077  16.346 -0.7291  2.9328  0.9814
11578TIP3    H256150   5.384   1.093  16.356 -1.3405 -0.0827 -1.6327
11579TIP3   OH256151   2.302   3.454  12.376 -0.1590  0.3307  0.4660
11579TIP3    H156152   2.326   3.516  12.445  0.0578  0.0003  0.6881
11579TIP3    H256153   2.377   3.456  12.316 -0.6267  1.1073 -0.1075
11580TIP3   OH256154   6.477   2.515  11.484  0.4926  0.3547 -0.0637
11580TIP3    H156155   6.529   2.435  11.477 -0.8153 -0.5480  0.0220
11580TIP3    H256156   6.406   2.502  11.420 -0.2611  1.0227  0.6155
11581TIP3   OH256157   6.326   5.305   2.104  0.1757  0.4310 -0.3013
11581TIP3    H156158   6.383   5.366   2.150 -0.4285  0.1954  0.7770
11581TIP3    H256159   6.384   5.233   2.079  0.6891  0.9784 -0.7184
11582TIP3   OH256160   0.198   4.123   0.443  0.0862  0.1547 -0.0378
11582TIP3    H156161   0.241   4.040   0.421 -0.2926 -0.1009  0.1615
11582TIP3    H256162   0.268   4.188   0.440  0.1295  0.0784 -1.6166
11583TIP3   OH256163   0.091   4.349  16.711 -0.0415 -0.2751  0.0031
11583TIP3    H156164   0.094   4.435  16.670 -0.4752 -0.9559 -1.5484
11583TIP3    H256165   0.120   4.364  16.801  3.1185  0.9608 -1.0744
11584TIP3   OH256166   5.138   6.314   4.841  0.1606 -0.2691  0.2130
11584TIP3    H156167   5.210   6.260   4.807  2.1293  1.7712  0.8873
11584TIP3    H256168   5.119   6.278   4.927  0.4058 -0.8022  0.0474
11585TIP3   OH256169   0.957   0.692   2.941 -0.5347  0.1439  0.5429
11585TIP3    H156170   1.037   0.712   2.989  1.1493 -0.5256 -1.8056
11585TIP3    H256171   0.967   0.738   2.857 -3.2478  1.1220  0.6439
11586TIP3   OH256172   6.318   3.517   2.687 -0.1111  0.1584  0.5705
11586TIP3    H156173   6.272   3.497   2.768 -2.6341  0.4795 -0.6735
11586TIP3    H256174   6.312   3.437   2.635  0.7902  0.2019  0.3830
11587TIP3   OH256175   3.456   2.961  14.424  0.0227  0.1030  0.3384
11587TIP3    H156176   3.467   3.056  14.420  1.0563 -0.0606 -1.5363
11587TIP3    H256177   3.531   2.926  14.376 -0.4026 -1.6763  0.8961
11588TIP3   OH256178   2.643   3.651   0.824 -0.0719 -0.2307  0.3436
11588TIP3    H156179   2.738   3.653   0.835 -0.0332  2.7748  0.2550
11588TIP3    H256180   2.629   3.611   0.738  1.1456 -0.0692  0.0629
11589TIP3   OH256181   2.821   6.456   3.304  0.4743  0.1610  0.5114
11589TIP3    H156182   2.895   6.510   3.332  1.5015 -0.6111 -0.6084
11589TIP3    H256183   2.831   6.374   3.354  0.4551  0.0122  0.2726
11590TIP3   OH256184   3.987   2.259   2.306  0.6722  0.2794  0.3585
11590TIP3    H156185   3.979   2.168   2.275  0.3165  0.4174  0.0434
11590TIP3    H256186   3.939   2.310   2.242  0.0894  0.5928  1.0366
11591TIP3   OH256187   0.017   0.943  14.873  1.1588 -0.3490 -0.8857
11591TIP3    H156188   0.042   0.884  14.801  0.9877 -0.7494 -0.6234
11591TIP3    H256189   0.069   0.913  14.947 -0.4596 -1.5757 -0.1697
11592TIP3   OH256190   6.231   2.836  16.982  0.1024 -0.9549  0.5082
11592TIP3    H156191   6.198   2.915  16.940 -1.0910 -1.5357  0.3135
11592TIP3    H256192   6.165   2.813  17.048  1.3314 -0.7788  1.8485
11593TIP3   OH256193   3.202   0.304  15.891 -0.2620  0.3770 -0.4314
11593TIP3    H156194   3.230   0.342  15.974  2.4495 -2.8029  0.3352
11593TIP3    H256195   3.124   0.355  15.866  0.2817  3.0860  2.7124
11594TIP3   OH256196   2.523   2.690  12.723 -0.3071  0.1978 -0.2350
11594TIP3    H156197   2.465   2.621  12.692  0.2984 -0.5183  0.1922
11594TIP3    H256198   2.604   2.678  12.672  0.7796 -1.1255  1.6659
11595TIP3   OH256199   3.281   5.838  12.271  0.1085  0.6426 -0.0964
11595TIP3    H156200   3.273   5.790  12.189 -3.3930  2.8664 -1.2998
11595TIP3    H256201   3.230   5.787  12.334  3.4786 -1.5135  1.1551
11596TIP3   OH256202   5.402   2.480   3.773  0.4251  0.6152 -0.1253
11596TIP3    H156203   5.411   2.446   3.684  0.4235 -1.4503  0.6142
11596TIP3    H256204   5.425   2.406   3.829 -0.3014  1.6474  1.6013
11597TIP3   OH256205   1.881   4.189   3.959  0.3600 -0.1518  0.6517
11597TIP3    H156206   1.911   4.119   4.017 -0.8584  0.0578  1.5709
11597TIP3    H256207   1.796   4.215   3.995  0.4852  1.3428 -0.0750
11598TIP3   OH256208   1.041   4.938   3.565 -0.0430 -0.2508  0.3619
11598TIP3    H156209   1.089   4.864   3.602  1.6642  0.0915 -1.0539
11598TIP3    H256210   1.061   4.935   3.472  1.0529  2.6882  0.4173
11599TIP3   OH256211   6.476   5.482   1.695 -0.3353  0.5328  0.4036
11599TIP3    H156212   6.516   5.415   1.640 -0.2044  0.3001  0.7837
11599TIP3    H256213   6.528   5.482   1.775  0.5101  2.0113 -0.1113
11600TIP3   OH256214   4.278   6.178   1.902 -0.2200 -0.7125 -0.4287
11600TIP3    H156215   4.199   6.142   1.942 -0.0911 -0.8297 -0.2844
11600TIP3    H256216   4.347   6.115   1.921  0.5223  0.6577  1.7999
11601TIP3   OH256217   6.548   3.442  12.654  0.1364  0.1754 -0.5489
11601TIP3    H156218   6.641   3.427  12.637 -0.0200  0.5639 -1.8681
11601TIP3    H256219   6.540   3.439  12.749  0.9884 -2.7949 -0.4749
11602TIP3   OH256220   4.032   4.601   4.947  0.0492  0.0859  0.2317
11602TIP3    H156221   4.073   4.641   5.024  1.8196  2.2301 -1.6922
11602TIP3    H256222   3.966   4.663   4.919 -0.1219 -0.3571 -0.3681
11603TIP3   OH256223   3.644   6.412   5.359 -0.1558  0.4711  0.2465
11603TIP3    H156224   3.729   6.432   5.398  0.0313  1.2639 -0.5153
11603TIP3    H256225   3.607   6.498   5.336 -1.8207  0.2508  1.8636
11604TIP3   OH256226   3.921   1.163  12.562  0.1686  0.1866 -0.0284
11604TIP3    H156227   3.865   1.239  12.576  0.5142  0.5556 -0.6055
11604TIP3    H256228   3.872   1.089  12.599 -2.2418 -0.1170 -3.4128
11605TIP3   OH256229   0.288   1.414  13.624  0.1893  0.0325 -0.3905
11605TIP3    H156230   0.285   1.501  13.664  1.3174 -0.4294  0.7722
11605TIP3    H256231   0.263   1.354  13.694  1.1568 -0.7080 -0.6526
11606TIP3   OH256232   0.885   5.263   1.149 -0.5852  0.0988  0.4626
11606TIP3    H156233   0.810   5.228   1.198  0.4514  1.1999  3.0173
11606TIP3    H256234   0.931   5.185   1.118 -2.5785 -0.6074 -0.9616
11607TIP3   OH256235   0.369   0.139  11.536 -0.6955 -0.7353  0.1136
11607TIP3    H156236   0.453   0.180  11.557 -1.2678  0.2090  0.5907
11607TIP3    H256237   0.392   0.048  11.515  0.4489 -0.4766  0.1837
11608TIP3   OH256238   0.541   1.835  16.106 -0.7845  0.2753 -0.4004
11608TIP3    H156239   0.485   1.882  16.044 -1.5594  1.2401  0.9805
11608TIP3    H256240   0.535   1.885  16.187 -1.1348 -1.8511  0.9716
11609TIP3   OH256241   5.675   2.728   5.914  0.4120 -0.2228 -0.4079
11609TIP3    H156242   5.728   2.686   5.981 -0.9371 -0.9426  0.2656
11609TIP3    H256243   5.591   2.682   5.918 -0.1396  0.6125 -1.6841
11610TIP3   OH256244   5.127   2.849  14.080 -0.2836 -0.7689  0.0940
11610TIP3    H156245   5.204   2.793  14.086  0.8606  0.8689  1.1300
11610TIP3    H256246   5.100   2.864  14.170  0.7352  2.0213  0.0355
11611TIP3   OH256247   1.168   0.453  16.640 -0.5417 -0.1915  0.0932
11611TIP3    H156248   1.194   0.464  16.731  0.6108 -1.3370 -0.0681
11611TIP3    H256249   1.090   0.507  16.630 -1.2526 -0.8199  1.9974
11612TIP3   OH256250   0.957   6.177  11.788  1.1063  0.0853 -0.2646
11612TIP3    H156251   1.026   6.111  11.793  0.1838 -0.9258 -0.5748
11612TIP3    H256252   1.003   6.258  11.766  2.3079 -0.3534  0.5388
11613TIP3   OH256253   0.149   6.131  13.759 -0.3445  0.8073 -0.1100
11613TIP3    H156254   0.223   6.071  13.745 -0.7751  0.2965 -0.2339
11613TIP3    H256255   0.075   6.073  13.779 -0.5698  1.3478  0.6432
11614TIP3   OH256256   1.142   2.678   4.398 -0.6009 -0.6038  0.4602
11614TIP3    H156257   1.187   2.627   4.465  0.0994 -0.2226  0.2910
11614TIP3    H256258   1.135   2.766   4.436 -1.2399 -0.6641  0.4959
11615TIP3   OH256259   6.514   6.130   4.818 -0.5786  0.5605 -0.4294
11615TIP3    H156260   6.449   6.149   4.750  0.7098  2.1304 -1.2899
11615TIP3    H256261   6.539   6.039   4.802 -1.8763  0.2335 -0.6750
11616TIP3   OH256262   5.502   3.913  15.823 -0.0891 -0.1948 -0.4533
11616TIP3    H156263   5.575   3.851  15.827 -0.3939 -0.5447 -0.1908
11616TIP3    H256264   5.521   3.969  15.748  1.1290  0.5722  0.3739
11617TIP3   OH256265   5.946   0.955   0.501  0.3116 -0.0958  0.1723
11617TIP3    H156266   5.876   0.890   0.517 -0.6865  1.0146  0.4399
11617TIP3    H256267   5.989   0.924   0.421 -1.3460 -0.0975 -0.7615
11618TIP3   OH256268   5.570   1.783   4.728  0.0674  0.0863  0.0519
11618TIP3    H156269   5.657   1.802   4.695 -0.7303  0.7438 -1.7918
11618TIP3    H256270   5.557   1.845   4.799  1.4938 -0.7750  1.1272
11619TIP3   OH256271   6.667   2.094   6.887 -0.7039  0.1508 -0.0881
11619TIP3    H156272   6.647   2.011   6.842  0.5150  0.1958 -0.7652
11619TIP3    H256273   6.752   2.079   6.928 -0.8495  0.8075  0.4660
11620TIP3   OH256274   4.571   5.019  16.642 -0.3627  0.8512  0.2201
11620TIP3    H156275   4.570   4.932  16.683 -0.2656  1.2920  1.1605
11620TIP3    H256276   4.488   5.024  16.596 -0.1498  0.0560 -0.2882
11621TIP3   OH256277   6.362   3.074   3.929  0.1610  0.4809 -0.1525
11621TIP3    H156278   6.317   3.130   3.865  0.0037  0.3739 -0.1378
11621TIP3    H256279   6.439   3.124   3.955  0.2614  0.4988 -0.4747
11622TIP3   OH256280   0.241   5.784   5.766 -0.0078  0.5339 -0.3048
11622TIP3    H156281   0.284   5.869   5.776 -0.8003  0.8809  0.2705
11622TIP3    H256282   0.226   5.754   5.856 -0.8586  0.3680 -0.5005
11623TIP3   OH256283   2.419   5.497  15.899  0.2203 -0.0561 -0.2939
11623TIP3    H156284   2.422   5.402  15.886  0.1121  0.0502 -1.1512
11623TIP3    H256285   2.326   5.519  15.892 -0.1086 -0.1984  2.4468
11624TIP3   OH256286   5.865   5.517   2.506  0.0612 -0.0312 -0.4191
11624TIP3    H156287   5.866   5.497   2.412 -0.7077 -2.4494  0.0245
11624TIP3    H256288   5.948   5.482   2.538 -1.2546 -2.6635  0.3578
11625TIP3   OH256289   4.972   0.315  12.209 -0.0176  0.3233 -0.2041
11625TIP3    H156290   4.878   0.315  12.191  0.1245  0.6984 -0.9784
11625TIP3    H256291   4.983   0.384  12.275 -0.1578  0.9665 -0.8429
11626TIP3   OH256292   1.320   2.386   1.991  0.1754  0.0487 -0.0508
11626TIP3    H156293   1.262   2.441   1.939 -0.4721 -0.5576  0.0130
11626TIP3    H256294   1.400   2.437   2.000 -0.9312  1.6421  1.3254
11627TIP3   OH256295   3.599   0.644   0.890  0.0059  0.2304 -1.5172
11627TIP3    H156296   3.619   0.697   0.966 -1.2830  1.3247 -1.8964
11627TIP3    H256297   3.503   0.637   0.890  0.1238 -2.8509 -1.0144
11628TIP3   OH256298   3.149   1.153  12.615 -0.0152  0.6473 -0.5970
11628TIP3    H156299   3.068   1.182  12.572 -0.5573  0.7677  0.4532
11628TIP3    H256300   3.133   1.169  12.709  1.4325  1.1589 -0.4070
11629TIP3   OH256301   1.780   5.149   3.937  0.0392 -0.3792  0.7150
11629TIP3    H156302   1.726   5.100   3.999 -0.7181  0.3234  0.6286
11629TIP3    H256303   1.770   5.241   3.962 -0.7395 -0.0218 -0.7662
11630TIP3   OH256304   6.138   1.374  17.130  0.3510 -0.6434  0.0692
11630TIP3    H156305   6.105   1.431  17.200 -0.4631 -0.5405 -0.3848
11630TIP3    H256306   6.181   1.302  17.176  2.6174  0.9720  0.6660
11631TIP3   OH256307   5.006   6.621  15.634 -0.0527  0.0474 -0.3358
11631TIP3    H156308   4.982   6.528  15.632 -1.3900  0.3003  1.4098
11631TIP3    H256309   5.052   6.632  15.717  0.8951  0.7851 -0.9492
11632TIP3   OH256310   5.194   0.116  11.018 -0.2662  0.1007  0.2382
11632TIP3    H156311   5.283   0.089  11.041 -0.7880 -1.8218  0.2479
11632TIP3    H256312   5.173   0.186  11.079 -0.1269 -2.0895  2.9896
11633TIP3   OH256313   2.469   2.902  12.392  0.0174 -0.3974  0.0408
11633TIP3    H156314   2.548   2.869  12.350 -0.1558 -0.9824  0.1657
11633TIP3    H256315   2.402   2.897  12.323 -0.1882 -1.0418  0.2808
11634TIP3   OH256316   3.949   3.348  15.990  0.3516  0.0352  0.0682
11634TIP3    H156317   3.989   3.359  16.076  0.1822 -1.9743  0.4412
11634TIP3    H256318   4.012   3.295  15.941 -1.1080 -1.9092  0.1834
11635TIP3   OH256319   4.821   4.759   3.678 -0.5156 -0.2201  0.1309
11635TIP3    H156320   4.764   4.700   3.728  1.7309 -0.2681  2.8488
11635TIP3    H256321   4.892   4.703   3.647 -0.0315  0.4667 -0.0215
11636TIP3   OH256322   3.579   6.388   0.243  0.0895  0.1040  0.0690
11636TIP3    H156323   3.669   6.356   0.245  0.1722  0.3613  1.7099
11636TIP3    H256324   3.586   6.481   0.261 -0.5048  0.0778  0.4917
11637TIP3   OH256325   6.772   5.839   6.068 -0.3092 -0.0948 -0.1016
11637TIP3    H156326   6.813   5.753   6.059 -1.5317 -0.7357  0.1081
11637TIP3    H256327   6.796   5.867   6.156  0.4145 -0.0462 -0.3123
11638TIP3   OH256328   5.357   2.194  14.711 -0.3533 -0.4293  0.6669
11638TIP3    H156329   5.439   2.210  14.759 -1.0322 -0.1775  1.7860
11638TIP3    H256330   5.298   2.263  14.743 -1.5003 -1.5802  1.0965
11639TIP3   OH256331   5.603   2.692  12.377 -0.5882 -0.3590 -0.2992
11639TIP3    H156332   5.541   2.758  12.408 -1.3563 -1.1713 -0.0673
11639TIP3    H256333   5.549   2.628  12.332 -0.1557 -1.9095  1.2710
11640TIP3   OH256334   5.440   3.844   1.740  0.2324  0.1283  0.2697
11640TIP3    H156335   5.489   3.927   1.735  0.0237  0.3261  1.2499
11640TIP3    H256336   5.368   3.856   1.678  0.8912  0.1925 -0.5056
11641TIP3   OH256337   4.150   1.382  14.663 -0.0791  0.3190 -0.1044
11641TIP3    H156338   4.097   1.313  14.703 -0.6628  0.2382 -0.9874
11641TIP3    H256339   4.086   1.444  14.627  0.4358  0.9416  0.0273
11642TIP3   OH256340   2.304   4.809   5.148  0.5893 -0.9324  0.3495
11642TIP3    H156341   2.293   4.903   5.137 -0.0235 -0.7321  2.3879
11642TIP3    H256342   2.225   4.770   5.110  1.0220 -0.6748 -0.8466
11643TIP3   OH256343   2.497   2.773   0.741  0.3329 -0.1067  0.2163
11643TIP3    H156344   2.565   2.804   0.800  0.0271  1.7890 -0.3288
11643TIP3    H256345   2.539   2.771   0.655  0.0268 -0.0742  0.0623
11644TIP3   OH256346   1.417   4.625  12.676 -0.3018  0.7247 -0.3245
11644TIP3    H156347   1.383   4.620  12.586 -1.0623  1.0161 -0.0611
11644TIP3    H256348   1.497   4.573  12.674  0.0120  1.2176 -1.3202
11645TIP3   OH256349   1.145   3.557  15.088 -0.6925  0.3526  0.0118
11645TIP3    H156350   1.069   3.522  15.134 -0.4059 -0.1409  0.1232
11645TIP3    H256351   1.137   3.521  14.999 -0.9992  0.9279 -0.1955
11646TIP3   OH256352   1.312   4.072   3.397  0.4208 -0.5273 -0.4894
11646TIP3    H156353   1.276   3.987   3.372  1.0900 -0.8724 -0.3105
11646TIP3    H256354   1.340   4.112   3.315  2.7516 -1.7199 -0.3726
11647TIP3   OH256355   0.300   1.556  14.626 -0.3966  0.9554 -0.2864
11647TIP3    H156356   0.259   1.603  14.698  0.0656  2.0530 -0.7214
11647TIP3    H256357   0.241   1.483  14.608  0.6956 -0.8828  2.8386
11648TIP3   OH256358   4.296   0.866  17.038 -0.3986  0.1641  0.2487
11648TIP3    H156359   4.346   0.943  17.011  1.6704 -1.4160 -0.7551
11648TIP3    H256360   4.223   0.862  16.977  1.8338 -0.9433 -2.5537
11649TIP3   OH256361   1.133   6.112  14.379  0.5153  0.2921 -0.1071
11649TIP3    H156362   1.123   6.198  14.420  0.8272  1.1293 -1.6925
11649TIP3    H256363   1.062   6.108  14.315  0.3922 -0.7289  0.0807
11650TIP3   OH256364   2.488   1.746   2.764 -0.1692  0.0506 -0.2208
11650TIP3    H156365   2.561   1.782   2.813 -0.3044  0.0238  0.0029
11650TIP3    H256366   2.430   1.709   2.830 -0.1803 -0.3073 -0.4275
11651TIP3   OH256367   5.445   5.378  15.922 -0.1367  0.1016  0.0941
11651TIP3    H156368   5.409   5.333  15.846  0.5565  0.4867 -0.4736
11651TIP3    H256369   5.522   5.424  15.889 -0.6803  1.5203  0.7052
11652TIP3   OH256370   6.439   4.947   1.843  0.5482  0.3052 -0.1888
11652TIP3    H156371   6.367   4.956   1.905  0.8038  0.7510  0.0536
11652TIP3    H256372   6.436   4.856   1.815  0.8674 -0.0986  1.0324
11653TIP3   OH256373   1.787   4.648   5.763 -0.3185  0.8807  0.2262
11653TIP3    H156374   1.737   4.723   5.731  0.7574  2.1862  1.4657
11653TIP3    H256375   1.843   4.684   5.832  1.4984 -0.7101 -0.3257
11654TIP3   OH256376   0.100   3.308  14.312  0.1761  0.2208  0.5207
11654TIP3    H156377   0.047   3.233  14.286 -1.1393  1.4771 -0.5507
11654TIP3    H256378   0.164   3.318  14.242  0.4129  0.0837  0.7107
11655TIP3   OH256379   1.227   6.184  16.216  0.0041 -0.0351 -0.1446
11655TIP3    H156380   1.156   6.151  16.162  0.9172 -0.1630 -1.3089
11655TIP3    H256381   1.283   6.234  16.156 -1.7762  4.6467  1.6008
11656TIP3   OH256382   6.601   6.690  14.863 -0.1535  0.4563 -0.2169
11656TIP3    H156383   6.551   6.700  14.944  0.4775 -3.2584  0.8128
11656TIP3    H256384   6.535   6.669  14.797 -0.3053 -0.7156  0.2989
11657TIP3   OH256385   1.248   0.187   5.813 -0.0622  0.4905 -0.0206
11657TIP3    H156386   1.199   0.166   5.892 -2.1641  2.4689 -0.6683
11657TIP3    H256387   1.276   0.278   5.826  3.7685 -0.5700  0.3796
11658TIP3   OH256388   5.211   3.633   6.088  0.1536 -0.6294 -0.3125
11658TIP3    H156389   5.190   3.549   6.130 -0.1341 -0.8989 -0.9780
11658TIP3    H256390   5.163   3.697   6.140 -2.8318 -1.2760 -2.0330
11659TIP3   OH256391   3.020   1.632   2.796 -0.0879  0.0170 -0.2158
11659TIP3    H156392   3.012   1.697   2.726 -1.5203  1.6796  1.3928
11659TIP3    H256393   3.096   1.660   2.846  0.1134 -0.3543 -0.3140
11660TIP3   OH256394   0.003   5.603  13.026 -0.5911  0.0668  0.2098
11660TIP3    H156395  -0.056   5.632  13.096 -0.0488  0.4017  0.5304
11660TIP3    H256396  -0.056   5.567  12.959 -1.2861  1.8180 -0.1705
11661TIP3   OH256397   5.373   4.319   0.489  0.5114 -0.3605 -0.0164
11661TIP3    H156398   5.373   4.241   0.545  0.3599 -0.1732  0.2456
11661TIP3    H256399   5.456   4.361   0.506  0.4807 -0.3228  0.0393
11662TIP3   OH256400   3.689   5.115   3.693  0.5511 -0.3683  0.1018
11662TIP3    H156401   3.608   5.077   3.657  0.5191 -1.4040  1.2008
11662TIP3    H256402   3.678   5.209   3.683 -0.4666 -0.5285 -0.4502
11663TIP3   OH256403   3.056   4.611  13.283 -0.1797 -0.7367  0.1835
11663TIP3    H156404   3.042   4.517  13.278 -1.2453 -0.5139 -1.9116
11663TIP3    H256405   3.123   4.629  13.216  1.0315 -0.1441  1.4962
11664TIP3   OH256406   4.330   0.222  16.989  0.7304 -0.1721 -0.1150
11664TIP3    H156407   4.413   0.223  17.036 -0.4670  0.0230  2.0922
11664TIP3    H256408   4.294   0.135  17.006 -0.3927  0.4151  0.6124
11665TIP3   OH256409   2.652   2.799  10.870  0.6693 -0.6360 -0.3302
11665TIP3    H156410   2.694   2.837  10.947  2.0236 -1.1820 -0.7666
11665TIP3    H256411   2.559   2.821  10.879  1.0799  0.8709  0.5236
11666TIP3   OH256412   4.888   2.304  14.299 -0.0706  0.1395  0.3674
11666TIP3    H156413   4.948   2.347  14.238 -1.1447  0.0485 -0.7927
11666TIP3    H256414   4.808   2.289  14.248 -1.8483  2.0704  2.3702
11667TIP3   OH256415   2.470   4.158  11.201 -0.5701  0.4263  0.8234
11667TIP3    H156416   2.403   4.117  11.147  0.2080  0.4080 -0.1644
11667TIP3    H256417   2.551   4.146  11.151  0.2156  0.2201  2.0949
11668TIP3   OH256418   2.658   4.889  11.607 -0.0130  0.0791 -0.3634
11668TIP3    H156419   2.691   4.973  11.638 -0.0828 -0.0072 -0.0478
11668TIP3    H256420   2.719   4.863  11.538  0.1279  0.2924 -0.3195
11669TIP3   OH256421   6.236   5.908  11.585 -0.0646 -0.3003  0.9992
11669TIP3    H156422   6.211   6.000  11.597 -0.9316 -0.4362  0.3592
11669TIP3    H256423   6.181   5.878  11.513  1.7602 -0.7345 -0.2716
11670TIP3   OH256424   3.847   1.038   4.189  0.0569  0.2949 -0.4258
11670TIP3    H156425   3.932   1.048   4.232 -0.5999  1.1562  0.7421
11670TIP3    H256426   3.859   1.075   4.102  1.1612 -0.5948 -0.6737
11671TIP3   OH256427   1.844   4.840   6.544 -0.3947 -0.5100 -0.1962
11671TIP3    H156428   1.768   4.788   6.520 -0.8234 -0.1603  0.3783
11671TIP3    H256429   1.919   4.788   6.516 -0.8251 -1.2644  0.0331
11672TIP3   OH256430   5.007   4.477  13.261 -0.5624  0.1076  0.0333
11672TIP3    H156431   5.030   4.385  13.277 -1.1217 -0.0755 -0.1654
11672TIP3    H256432   5.083   4.513  13.216  0.3812  0.2203  1.6382
11673TIP3   OH256433   1.967   5.735  15.268  0.0988  0.1568 -0.1060
11673TIP3    H156434   1.964   5.741  15.172  0.7066 -1.2894 -0.2447
11673TIP3    H256435   1.884   5.692  15.291  0.1976  0.0067 -0.0308
11674TIP3   OH256436   5.878   1.875   6.025  0.1496 -0.3309  0.1456
11674TIP3    H156437   5.872   1.780   6.036  0.7031 -0.3994 -0.1098
11674TIP3    H256438   5.800   1.909   6.069 -0.2807 -0.9310 -0.1357
11675TIP3   OH256439   4.119   5.718   1.071 -0.1771  0.2940 -0.2495
11675TIP3    H156440   4.125   5.625   1.046  1.3776  0.3275 -0.1360
11675TIP3    H256441   4.042   5.723   1.127 -1.1675 -0.6337 -1.4656
11676TIP3   OH256442   1.247   5.315  14.785  0.1726  0.2434  0.2558
11676TIP3    H156443   1.176   5.272  14.737  0.8087 -1.4268  0.7578
11676TIP3    H256444   1.266   5.393  14.733 -0.9298 -0.1317 -0.7633
11677TIP3   OH256445   6.366   3.271   0.742  0.2119  0.1510 -0.1487
11677TIP3    H156446   6.427   3.202   0.713  0.9271  0.1484  1.3031
11677TIP3    H256447   6.296   3.269   0.676 -0.1486 -2.4311  0.1906
11678TIP3   OH256448   2.295   3.712  15.701  0.3196 -0.2384 -0.4594
11678TIP3    H156449   2.302   3.808  15.702  0.0033 -0.1746  1.8663
11678TIP3    H256450   2.202   3.695  15.716  0.4902 -0.8799 -0.0828
11679TIP3   OH256451   1.737   6.454  15.936 -0.3273 -0.4403  0.4934
11679TIP3    H156452   1.684   6.523  15.898  0.4689  0.2483  0.6058
11679TIP3    H256453   1.685   6.374  15.924 -1.4992  0.2389  0.8401
11680TIP3   OH256454   2.418   6.109   3.404  0.1096 -0.5076  0.3777
11680TIP3    H156455   2.354   6.039   3.392  1.2700 -1.8672  1.7192
11680TIP3    H256456   2.373   6.188   3.375 -1.3547 -1.7475 -0.8787
11681TIP3   OH256457   5.403   0.217  11.616  0.0561 -0.5845  0.0334
11681TIP3    H156458   5.355   0.294  11.646 -1.6255 -1.6105  0.0962
11681TIP3    H256459   5.339   0.146  11.616  1.7544 -2.2331  0.9030
11682TIP3   OH256460   1.369   4.292   4.578  0.2823 -0.0398  0.0857
11682TIP3    H156461   1.424   4.217   4.556  1.0743  0.7131 -0.6036
11682TIP3    H256462   1.280   4.259   4.572  0.5673 -0.6187 -1.4976
11683TIP3   OH256463   6.335   6.296  16.433  0.2429  0.2930  0.0974
11683TIP3    H156464   6.279   6.218  16.433  0.8665 -0.1624  0.3151
11683TIP3    H256465   6.295   6.354  16.368  0.7882 -0.9621 -1.4347
11684TIP3   OH256466   5.094   2.045  16.517  0.2792  0.1389 -0.4377
11684TIP3    H156467   5.181   2.069  16.548  0.4655 -1.6805  0.5908
11684TIP3    H256468   5.109   1.973  16.456 -0.5222 -0.4366  0.0263
11685TIP3   OH256469   6.306   5.468   1.337  0.0474  0.0562  0.5156
11685TIP3    H156470   6.312   5.556   1.375 -0.5482 -0.6721  2.4159
11685TIP3    H256471   6.218   5.438   1.360 -0.7924 -0.0606 -2.4670
11686TIP3   OH256472   4.324   4.392   0.309 -0.3560 -0.2145  0.3352
11686TIP3    H156473   4.257   4.383   0.376 -0.2353 -0.5157  0.4152
11686TIP3    H256474   4.387   4.453   0.348 -0.5205 -0.0250  0.3076
11687TIP3   OH256475   0.387   3.866   0.557 -0.1855  0.0442  0.4394
11687TIP3    H156476   0.416   3.775   0.566 -0.0323 -0.0155 -0.5251
11687TIP3    H256477   0.330   3.880   0.633 -1.5056 -1.3712 -0.2123
11688TIP3   OH256478   3.166   4.914  14.053  1.0086 -0.1167 -0.0239
11688TIP3    H156479   3.236   4.931  13.990  1.0189 -2.8856 -0.9039
11688TIP3    H256480   3.200   4.844  14.108 -0.9186 -1.3011 -0.2603
11689TIP3   OH256481   4.332   4.382   3.076 -0.3243 -0.8526  0.1619
11689TIP3    H156482   4.370   4.449   3.019  2.0398 -0.2643  2.2517
11689TIP3    H256483   4.370   4.300   3.046 -1.3561 -0.9835 -0.8726
11690TIP3   OH256484   1.569   0.940  13.745 -0.4785 -0.0869 -0.3330
11690TIP3    H156485   1.641   0.952  13.683  0.0950  0.4790  0.4318
11690TIP3    H256486   1.490   0.960  13.694 -0.0337  0.1606 -0.9335
11691TIP3   OH256487   2.484   4.571   2.332  0.2727  0.6710 -0.4529
11691TIP3    H156488   2.557   4.583   2.393 -0.0664 -0.3327  0.1603
11691TIP3    H256489   2.515   4.507   2.269 -0.2323 -0.1304  0.0914
11692TIP3   OH256490   3.826   4.245   1.934  0.2299  0.1715 -0.4795
11692TIP3    H156491   3.816   4.317   1.995  1.0007 -1.4402  1.6646
11692TIP3    H256492   3.909   4.263   1.889  0.5500  0.4984  0.2336
11693TIP3   OH256493   1.318   6.185  11.501 -0.2777 -0.3585  0.1118
11693TIP3    H156494   1.353   6.122  11.438  0.5330  0.5653 -0.3824
11693TIP3    H256495   1.278   6.130  11.569 -0.2417 -1.3869 -0.6709
11694TIP3   OH256496   1.339   2.558   0.828 -0.4655  0.4079  0.0290
11694TIP3    H156497   1.295   2.628   0.780 -0.4163  0.8999  0.6991
11694TIP3    H256498   1.432   2.580   0.824 -0.0271 -1.3446 -2.5854
11695TIP3   OH256499   2.077   0.435   4.771  0.1024  1.1074 -0.2882
11695TIP3    H156500   2.061   0.521   4.732  2.1845  2.2552  1.1755
11695TIP3    H256501   2.082   0.452   4.865 -1.0925 -0.9362  0.2051
11696TIP3   OH256502   5.543   1.509   5.355  0.6367  0.1153  0.1052
11696TIP3    H156503   5.511   1.460   5.431 -1.3842 -1.2572 -1.5519
11696TIP3    H256504   5.490   1.589   5.354  0.5610  0.0641  0.0485
11697TIP3   OH256505   0.392   1.937  11.136  0.0911 -0.0633 -0.1471
11697TIP3    H156506   0.384   1.985  11.053 -1.6278 -1.0401 -0.5929
11697TIP3    H256507   0.334   1.862  11.126  0.0886 -0.3808  1.8382
11698TIP3   OH256508   3.391   0.480  12.613 -0.0109  0.2918  0.0364
11698TIP3    H156509   3.420   0.490  12.523 -0.9231  1.8412 -0.1225
11698TIP3    H256510   3.354   0.392  12.617 -1.5321  0.7840 -1.5997
11699TIP3   OH256511   6.375   5.005   0.694  0.0959 -0.0541 -0.0898
11699TIP3    H156512   6.426   5.069   0.744  0.4802  0.0644 -0.6300
11699TIP3    H256513   6.290   5.047   0.681 -0.0180 -0.0999  0.4924
11700TIP3   OH256514   1.314   3.900  11.515 -0.2613 -0.2189 -0.1142
11700TIP3    H156515   1.346   3.810  11.513  2.4274  0.6201  0.2525
11700TIP3    H256516   1.372   3.947  11.455 -0.3793  1.5986  1.1121
11701TIP3   OH256517   0.837   1.506  12.932  0.6848 -0.5136 -0.0732
11701TIP3    H156518   0.799   1.591  12.956 -1.6602 -0.7467 -2.5122
11701TIP3    H256519   0.838   1.457  13.013  0.4715  1.2539  1.0619
11702TIP3   OH256520   1.923   0.681   2.125 -0.0191 -0.2123 -0.0906
11702TIP3    H156521   1.832   0.661   2.107  0.0595 -1.3898  0.6676
11702TIP3    H256522   1.971   0.650   2.048 -0.0660 -1.6430  0.4138
11703TIP3   OH256523   5.435   1.011  15.452 -0.6339  0.1194  0.1934
11703TIP3    H156524   5.464   0.994  15.541  2.7901  3.0845 -0.0875
11703TIP3    H256525   5.462   0.934  15.402  2.5958  0.6194  0.9173
11704TIP3   OH256526   4.533   0.901  15.719 -0.2547 -0.5546 -0.4908
11704TIP3    H156527   4.572   0.864  15.798  0.1025  0.5716 -0.1272
11704TIP3    H256528   4.448   0.934  15.747 -0.0919 -0.0762 -0.5467
11705TIP3   OH256529   2.137   0.675   4.416 -0.7522 -0.1081  0.0741
11705TIP3    H156530   2.076   0.736   4.457 -0.0668 -0.1384  1.1772
11705TIP3    H256531   2.205   0.731   4.377 -0.7800 -0.1176  0.0127
11706TIP3   OH256532   1.830   1.491  10.768  0.2374  0.4153  0.4795
11706TIP3    H156533   1.787   1.406  10.774  0.3369  0.1611 -1.6660
11706TIP3    H256534   1.877   1.500  10.851 -0.8107 -1.0239  1.2716
11707TIP3   OH256535   2.187   0.934  15.840 -0.1745 -0.6294  0.2896
11707TIP3    H156536   2.246   0.860  15.856 -0.7596 -1.0899  0.3721
11707TIP3    H256537   2.204   0.995  15.912  0.6216 -0.4811 -0.0211
11708TIP3   OH256538   1.902   0.316  12.621  0.7372 -0.3988  0.0924
11708TIP3    H156539   1.849   0.262  12.562  0.2829  1.1832 -1.0114
11708TIP3    H256540   1.843   0.385  12.650  1.1211 -0.8302  1.9930
11709TIP3   OH256541   4.702   4.419   1.072 -0.2156 -0.2008 -0.4451
11709TIP3    H156542   4.644   4.486   1.109  1.4107  1.2661 -0.4315
11709TIP3    H256543   4.700   4.348   1.136 -1.5915  0.0121 -0.2143
11710TIP3   OH256544   6.755   0.644  14.946 -0.0523  0.0105  0.4323
11710TIP3    H156545   6.850   0.636  14.940 -0.0936  0.3067 -0.8012
11710TIP3    H256546   6.722   0.603  14.866 -0.9851 -0.3034  0.9633
11711TIP3   OH256547   0.929   4.205  13.353 -0.6467 -0.1573  0.6234
11711TIP3    H156548   1.012   4.197  13.305 -0.2595 -0.6860  1.3532
11711TIP3    H256549   0.862   4.179  13.291 -0.3780  1.2751 -0.3105
11712TIP3   OH256550   0.897   4.203   5.982 -0.2903  0.3036 -0.2222
11712TIP3    H156551   0.842   4.140   5.936  0.8497 -1.6133  0.9271
11712TIP3    H256552   0.979   4.203   5.934 -0.5628  1.6058 -0.7234
11713TIP3   OH256553   4.826   6.443   4.223  0.9738  0.0330 -0.1660
11713TIP3    H156554   4.779   6.521   4.250  0.8825  0.3561 -1.2066
11713TIP3    H256555   4.869   6.468   4.142 -0.0112 -1.3195 -1.1615
11714TIP3   OH256556   3.123   0.715  16.316  0.0295  0.1203  0.5204
11714TIP3    H156557   3.177   0.748  16.388 -0.3986  0.1147  0.8497
11714TIP3    H256558   3.103   0.793  16.264  0.1536  0.1612  0.5347
11715TIP3   OH256559   1.177   3.723   4.740  0.1939  0.1564  0.2782
11715TIP3    H156560   1.123   3.800   4.725  0.0776  0.0658  0.2286
11715TIP3    H256561   1.168   3.705   4.834  0.8628  0.6792  0.4519
11716TIP3   OH256562   4.792   1.666  15.349 -0.1263  0.8113 -0.9556
11716TIP3    H156563   4.833   1.606  15.287 -0.8148  0.1747 -0.8170
11716TIP3    H256564   4.785   1.615  15.430  1.7053  1.9507 -0.0041
11717TIP3   OH256565   4.368   2.745  15.618  0.2474  0.3847 -0.1980
11717TIP3    H156566   4.363   2.657  15.655  3.6504 -0.7937 -2.0801
11717TIP3    H256567   4.377   2.802  15.695  0.6633 -1.2289  1.0145
11718TIP3   OH256568   1.437   5.946  14.552  0.4437 -0.0913  0.3554
11718TIP3    H156569   1.413   5.993  14.472  0.6034  1.2378  1.0562
11718TIP3    H256570   1.419   6.008  14.623 -1.6683 -1.9470  1.5722
11719TIP3   OH256571   5.930   4.436  14.326  0.0330 -0.1258  0.4904
11719TIP3    H156572   5.984   4.469  14.255 -1.5332  0.2674 -0.5604
11719TIP3    H256573   5.860   4.388  14.283 -1.9478  1.5862  1.6350
11720TIP3   OH256574   3.221   1.785   5.433  0.8232 -0.4091 -0.3783
11720TIP3    H156575   3.143   1.803   5.486  1.1440  0.9463 -0.3246
11720TIP3    H256576   3.221   1.690   5.422  0.5651 -0.7073  1.7673
11721TIP3   OH256577   4.673   2.956   2.534 -0.1206  0.0199 -0.0436
11721TIP3    H156578   4.629   3.040   2.549  1.3892  0.6628  0.9980
11721TIP3    H256579   4.621   2.914   2.466 -1.6334  1.2585  0.2851
11722TIP3   OH256580   0.165   3.216  13.509 -0.3507 -0.3921 -0.0899
11722TIP3    H156581   0.098   3.167  13.556 -1.3488  2.0249  1.1787
11722TIP3    H256582   0.118   3.260  13.438  0.5322 -1.2913 -1.2681
11723TIP3   OH256583   6.728   4.652  15.774 -0.1022  0.7066 -0.4808
11723TIP3    H156584   6.689   4.700  15.847  0.5073  1.5331 -0.6823
11723TIP3    H256585   6.778   4.718  15.726  0.1025  0.0247 -1.2271
11724TIP3   OH256586   4.649   4.211   1.793  0.2728  1.0653  0.1683
11724TIP3    H156587   4.627   4.119   1.804 -1.8125  1.6347  1.2807
11724TIP3    H256588   4.728   4.223   1.845  0.1003  0.0714  0.6870
11725TIP3   OH256589   1.366   4.324   4.223  0.3210 -0.7281 -0.3471
11725TIP3    H156590   1.383   4.383   4.150  0.2596  0.1447  0.3302
11725TIP3    H256591   1.318   4.377   4.286 -0.7362 -1.8228 -0.1997
11726TIP3   OH256592   6.284   2.432  11.278  0.6188  0.0765  0.2121
11726TIP3    H156593   6.204   2.381  11.296 -0.7855  2.3147  0.7122
11726TIP3    H256594   6.265   2.476  11.195  1.5080  0.3498  0.1507
11727TIP3   OH256595   1.686   6.344   0.535 -0.4669  0.6226 -0.3287
11727TIP3    H156596   1.634   6.317   0.611 -1.1722  1.3079 -0.5483
11727TIP3    H256597   1.771   6.302   0.548 -0.9957 -0.3443  0.1591
11728TIP3   OH256598   5.153   5.576  11.238  0.5648 -0.4168  0.3889
11728TIP3    H156599   5.121   5.644  11.179 -1.2500 -1.3084  0.2565
11728TIP3    H256600   5.235   5.610  11.272  1.5236  0.2977 -2.3595
11729TIP3   OH256601   4.623   2.735  11.825  0.1610  0.0149 -0.3427
11729TIP3    H156602   4.578   2.780  11.897 -1.5828  0.5453 -1.7023
11729TIP3    H256603   4.700   2.789  11.808  0.7411 -0.2489  1.2447
11730TIP3   OH256604   2.564   2.957   1.639  0.0263  0.4353  0.7262
11730TIP3    H156605   2.537   3.042   1.605  0.1621  0.9293  1.8234
11730TIP3    H256606   2.625   2.924   1.573 -0.5469  0.8600 -0.0505
11731TIP3   OH256607   6.717   0.784   1.859 -0.1768 -0.0445  0.1556
11731TIP3    H156608   6.647   0.752   1.916 -3.0788 -0.1634 -3.1901
11731TIP3    H256609   6.766   0.706   1.835 -0.4214 -0.3318  0.5834
11732TIP3   OH256610   5.193   1.831   2.633 -0.0989 -0.3608 -0.3750
11732TIP3    H156611   5.257   1.789   2.691  0.6624  1.3552  0.0886
11732TIP3    H256612   5.109   1.796   2.662  0.3140  0.0177  1.4201
11733TIP3   OH256613   4.651   1.893   2.432  0.1150 -0.4987 -0.0968
11733TIP3    H156614   4.712   1.820   2.442 -0.2621 -0.8766 -0.5056
11733TIP3    H256615   4.659   1.943   2.513 -0.3510 -1.5558  0.6173
11734TIP3   OH256616   4.801   4.315   0.598 -0.2758  0.3392 -0.0326
11734TIP3    H156617   4.760   4.383   0.544 -0.9170 -0.1394 -0.1574
11734TIP3    H256618   4.807   4.239   0.540 -1.1089 -0.2282  0.6047
11735TIP3   OH256619   0.436   3.961   2.835  0.0902 -0.6517 -0.4971
11735TIP3    H156620   0.530   3.967   2.853  0.7627 -2.4795 -2.8595
11735TIP3    H256621   0.395   3.949   2.921  2.0650 -0.3941  0.5292
11736TIP3   OH256622   6.241   2.667   1.150  0.0767 -0.3723 -0.1020
11736TIP3    H156623   6.232   2.644   1.057  0.7045 -2.6346  0.3322
11736TIP3    H256624   6.332   2.645   1.171  0.2953  1.2392  0.8051
11737TIP3   OH256625   5.869   1.724   3.823 -0.4950  0.6538 -0.0330
11737TIP3    H156626   5.813   1.786   3.868  1.1130  1.0399  1.5276
11737TIP3    H256627   5.813   1.687   3.754 -3.0287  0.1244  2.1591
11738TIP3   OH256628   2.455   1.655   1.513 -0.5126 -0.4060  0.0114
11738TIP3    H156629   2.432   1.564   1.495  0.8292 -0.7171 -0.2138
11738TIP3    H256630   2.540   1.667   1.472 -1.1069  1.2503 -0.8464
11739TIP3   OH256631   4.843   5.531  11.731  0.2956 -0.0550  0.0077
11739TIP3    H156632   4.897   5.455  11.712 -0.7464 -0.5818 -0.9596
11739TIP3    H256633   4.762   5.516  11.682 -0.5620  0.9146  1.0577
11740TIP3   OH256634   5.465   0.087   1.801 -0.3321  0.3040 -0.0773
11740TIP3    H156635   5.439   0.020   1.739 -0.6613  0.9130 -0.6104
11740TIP3    H256636   5.552   0.114   1.773 -0.7457  1.0517 -0.7094
11741TIP3   OH256637   1.077   5.237  11.454  0.0991  0.8300 -0.0897
11741TIP3    H156638   1.127   5.233  11.372 -1.5378  0.4286 -1.1166
11741TIP3    H256639   1.111   5.164  11.506  1.2364  1.1573 -0.3434
11742TIP3   OH256640   5.817   3.291  13.096  0.3742  1.0273 -0.5977
11742TIP3    H156641   5.841   3.338  13.016  0.4995  1.6608 -0.1959
11742TIP3    H256642   5.826   3.356  13.166 -0.7038  0.7589 -0.1932
11743TIP3   OH256643   1.057   5.246  16.437 -1.2684  0.5194  0.0730
11743TIP3    H156644   1.123   5.274  16.373  0.1011  0.4947  1.4127
11743TIP3    H256645   1.002   5.184  16.390 -0.3659  0.5825 -1.1069
11744TIP3   OH256646   2.961   4.763  13.962  0.2418  0.1911  0.0968
11744TIP3    H156647   2.897   4.813  14.013  1.1692  0.9065  0.6054
11744TIP3    H256648   3.042   4.814  13.970  1.7312 -2.2936  2.1830
11745TIP3   OH256649   5.135   5.826   1.368  0.6494 -0.2610  0.1413
11745TIP3    H156650   5.064   5.853   1.426 -2.5622 -1.0264 -3.1222
11745TIP3    H256651   5.159   5.738   1.399  0.0830 -0.0553  1.2051
11746TIP3   OH256652   1.175   4.200   5.213 -0.1487  0.0295  0.0768
11746TIP3    H156653   1.139   4.191   5.301 -0.9880 -0.0435 -0.2612
11746TIP3    H256654   1.158   4.116   5.171 -1.2922  0.6111 -0.6843
11747TIP3   OH256655   2.276   5.007   2.256  0.3033  0.0376  0.2929
11747TIP3    H156656   2.308   4.937   2.199 -1.0425 -0.6071  0.2971
11747TIP3    H256657   2.331   5.082   2.233 -0.8315  0.1175 -2.6615
11748TIP3   OH256658   6.212   6.509  11.262  0.4458 -0.1149 -0.6112
11748TIP3    H156659   6.269   6.548  11.196  0.5912 -0.0800 -0.4667
11748TIP3    H256660   6.186   6.583  11.317 -0.7527  0.0923 -1.4127
11749TIP3   OH256661   4.977   1.266  15.511 -0.0603 -0.1775  0.1438
11749TIP3    H156662   5.027   1.312  15.443 -0.2319 -0.4949 -0.2001
11749TIP3    H256663   5.025   1.185  15.526  0.8401  0.5836  1.5252
11750TIP3   OH256664   5.729   5.054  16.270 -0.1556  0.7017 -0.0010
11750TIP3    H156665   5.677   5.047  16.190  0.5902  0.2712 -0.4605
11750TIP3    H256666   5.668   5.089  16.336 -1.3165 -0.7979 -0.2415
11751TIP3   OH256667   0.265   4.953   2.413 -0.1209  0.5293 -0.4093
11751TIP3    H156668   0.244   5.036   2.371 -0.2515  0.9773  0.5078
11751TIP3    H256669   0.325   4.910   2.353 -0.8844  0.8050 -1.4016
11752TIP3   OH256670   0.570   0.086   1.927  0.5352  0.0472  0.7878
11752TIP3    H156671   0.579   0.070   1.833 -1.2425  1.0149  0.3947
11752TIP3    H256672   0.610   0.172   1.941  0.9549 -0.1730  0.9593
11753TIP3   OH256673   3.689   3.884   4.066 -0.4369 -0.1493 -0.2636
11753TIP3    H156674   3.759   3.828   4.100  0.1379 -0.0261 -1.1981
11753TIP3    H256675   3.689   3.960   4.123  0.0235 -0.2720 -0.0948
11754TIP3   OH256676   4.681   1.097  12.834 -0.9183 -0.2639 -0.2028
11754TIP3    H156677   4.689   1.008  12.800 -3.5871 -1.4074  1.7517
11754TIP3    H256678   4.629   1.143  12.769 -0.9119 -0.6214 -0.4653
11755TIP3   OH256679   6.752   2.910   0.179 -0.0739  0.6203 -0.4531
11755TIP3    H156680   6.711   2.866   0.104 -0.1676 -1.6964  0.8935
11755TIP3    H256681   6.846   2.901   0.163 -0.0921  0.6580 -0.5864
11756TIP3   OH256682   4.434   2.688   6.693 -0.3357 -0.3521  0.1819
11756TIP3    H156683   4.445   2.783   6.693  1.3945 -0.5026  1.6639
11756TIP3    H256684   4.500   2.656   6.632  0.0300 -0.6708  0.7364
11757TIP3   OH256685   0.684   1.487   0.999  0.2932 -0.1003  0.3236
11757TIP3    H156686   0.622   1.541   0.951 -0.8019  0.2078  1.9820
11757TIP3    H256687   0.744   1.454   0.933 -1.1005  0.3310 -1.2208
11758TIP3   OH256688   3.635   4.663  12.610 -0.1584  0.1483  0.2448
11758TIP3    H156689   3.636   4.571  12.583 -0.5156  0.3402 -0.4357
11758TIP3    H256690   3.720   4.696  12.582 -0.2488  0.1647 -0.0166
11759TIP3   OH256691   2.128   4.700   3.410 -0.4440 -0.2941 -0.1229
11759TIP3    H156692   2.066   4.627   3.405  0.3461 -0.9278 -0.9117
11759TIP3    H256693   2.212   4.659   3.432  0.2971  0.1936 -1.8760
11760TIP3   OH256694   4.890   2.246  14.912  0.4224 -0.2258  0.1732
11760TIP3    H156695   4.968   2.298  14.930  0.8565 -0.5271 -0.7841
11760TIP3    H256696   4.842   2.245  14.995  0.6881  1.2125  0.3623
11761TIP3   OH256697   3.438   4.991  14.704 -0.2606 -0.7712 -0.3053
11761TIP3    H156698   3.392   4.960  14.626 -0.5323 -0.9232 -0.0889
11761TIP3    H256699   3.481   5.072  14.676 -0.3279 -0.8423 -0.6205
11762TIP3   OH256700   4.595   0.047  11.218  0.6021  0.2919  0.2114
11762TIP3    H156701   4.508   0.018  11.246  0.6795 -0.1274  0.0362
11762TIP3    H256702   4.596   0.141  11.236  1.2312 -0.1753  3.1479
11763TIP3   OH256703   2.824   3.426   5.027  0.2583 -0.3325 -0.3254
11763TIP3    H156704   2.889   3.399   5.091  0.2755 -1.8569 -0.9540
11763TIP3    H256705   2.832   3.521   5.023 -0.1185 -0.1119  2.3280
11764TIP3   OH256706   3.591   2.775   4.653 -0.6758  0.2272 -0.0018
11764TIP3    H156707   3.607   2.867   4.671  0.8852  0.4173 -1.9667
11764TIP3    H256708   3.626   2.729   4.729 -1.3236  1.2100  0.9233
11765TIP3   OH256709   5.206   6.743   4.576  0.4672 -0.3444 -0.1090
11765TIP3    H156710   5.178   6.702   4.494  0.7916  0.4045 -0.6038
11765TIP3    H256711   5.124   6.776   4.615  0.1940 -1.5083  0.3346
11766TIP3   OH256712   5.676   4.356   5.539 -0.1585 -0.0016  0.2108
11766TIP3    H156713   5.715   4.270   5.551 -1.4817 -0.7092 -0.2983
11766TIP3    H256714   5.635   4.376   5.622  0.1378  0.1387  0.3249
11767TIP3   OH256715   2.598   3.355  14.719  0.3694 -0.2311  0.1058
11767TIP3    H156716   2.593   3.269  14.678  1.2684 -1.4742  2.3903
11767TIP3    H256717   2.537   3.409  14.670  0.8682 -1.7405 -2.3384
11768TIP3   OH256718   3.426   5.366  15.644 -0.0024  0.3181  1.0585
11768TIP3    H156719   3.389   5.285  15.679  0.4578 -0.7056 -0.6980
11768TIP3    H256720   3.518   5.364  15.672 -0.0266  0.2915  1.1350
11769TIP3   OH256721   6.179   4.550   1.811 -0.0311  0.2753 -0.1699
11769TIP3    H156722   6.119   4.610   1.857 -1.2525 -1.2184  0.2812
11769TIP3    H256723   6.131   4.523   1.733  0.2188 -0.5928 -0.0358
11770TIP3   OH256724   6.025   3.973   4.644  0.3338 -0.0961  0.2425
11770TIP3    H156725   5.979   3.909   4.589  0.7139 -0.7884  0.7202
11770TIP3    H256726   5.980   3.969   4.728 -0.8158  1.5938 -0.2352
11771TIP3   OH256727   5.125   3.664  13.528 -0.4958 -0.5247 -0.2022
11771TIP3    H156728   5.219   3.684  13.527  0.1189 -3.0457  0.0691
11771TIP3    H256729   5.091   3.713  13.603  0.8273 -0.3512  0.3211
11772TIP3   OH256730   0.435   3.759  11.986 -0.0772 -0.0870  0.1227
11772TIP3    H156731   0.530   3.758  11.993  0.0005 -3.1976 -0.2361
11772TIP3    H256732   0.405   3.799  12.068  1.5278 -2.0888  1.7924
11773TIP3   OH256733   1.562   0.307   4.064 -0.0713 -0.1758 -0.0411
11773TIP3    H156734   1.580   0.376   4.128  0.2653  0.7448 -1.0959
11773TIP3    H256735   1.636   0.247   4.071  0.8389  0.8277 -0.7333
11774TIP3   OH256736   1.764   0.815   3.440 -0.0526 -1.0498 -0.1823
11774TIP3    H156737   1.790   0.853   3.524  0.7978 -1.4208 -0.2601
11774TIP3    H256738   1.781   0.721   3.451 -0.6971 -1.2098 -0.5013
11775TIP3   OH256739   6.423   2.188  10.731 -0.1091  0.1671  0.2075
11775TIP3    H156740   6.442   2.186  10.825  1.4838  0.8181 -0.0589
11775TIP3    H256741   6.343   2.238  10.724 -0.0347  0.4593  1.1912
11776TIP3   OH256742   2.782   0.269  14.691  0.6046 -0.1097 -0.3982
11776TIP3    H156743   2.818   0.313  14.613 -0.2842  0.4968 -0.4801
11776TIP3    H256744   2.858   0.229  14.732  1.9729  3.4955  1.0306
11777TIP3   OH256745   0.296   1.139   1.120  0.2965 -0.0456  0.0198
11777TIP3    H156746   0.222   1.078   1.115  0.0493  0.3383 -1.4223
11777TIP3    H256747   0.373   1.085   1.103  0.0849 -0.0042 -1.1663
11778TIP3   OH256748   0.478   4.361  16.147 -0.3349 -0.4946 -0.6917
11778TIP3    H156749   0.511   4.383  16.234 -2.5019  0.1401  0.0359
11778TIP3    H256750   0.548   4.310  16.107  2.0723  1.8601  0.1834
11779TIP3   OH256751   4.891   1.822   5.139 -0.0354  0.2522 -0.7745
11779TIP3    H156752   4.952   1.864   5.078  0.5610  0.0335 -0.3335
11779TIP3    H256753   4.887   1.881   5.214  0.2335 -0.1077 -0.4716
11780TIP3   OH256754   3.928   1.027   3.654 -0.2509  0.2207  0.2266
11780TIP3    H156755   3.876   1.108   3.653  0.9423  1.0179 -0.5864
11780TIP3    H256756   4.004   1.049   3.708  0.5254 -0.0517 -0.7373
11781TIP3   OH256757   0.386   1.978  15.881 -0.1899  0.1024  0.5302
11781TIP3    H156758   0.328   2.043  15.921  0.2500  0.0328  1.3121
11781TIP3    H256759   0.347   1.960  15.795 -0.6283  0.9727  0.5344
11782TIP3   OH256760   3.108   0.450   6.188  0.1812  0.1318 -0.0572
11782TIP3    H156761   3.041   0.451   6.257 -0.8966  1.3482 -1.0819
11782TIP3    H256762   3.169   0.519   6.213 -1.0002  1.5916 -1.0142
11783TIP3   OH256763   0.534   1.554   4.542 -0.7749  0.8622 -0.2319
11783TIP3    H156764   0.539   1.620   4.473  2.9298 -0.3173 -1.3347
11783TIP3    H256765   0.539   1.471   4.496 -1.9289 -0.1113  1.3161
11784TIP3   OH256766   4.499   6.024   3.056 -0.2395 -0.0149 -0.2869
11784TIP3    H156767   4.424   6.018   3.116  0.6202 -1.3502  0.7147
11784TIP3    H256768   4.484   6.105   3.007 -2.4259 -0.3385 -0.2554
11785TIP3   OH256769   5.773   0.764   0.851 -0.1713  0.2478  0.5007
11785TIP3    H156770   5.808   0.741   0.937  2.3066  0.8431 -0.2855
11785TIP3    H256771   5.753   0.858   0.858 -0.3146  0.2167  0.5199
11786TIP3   OH256772   1.119   0.457   6.035  0.3663  0.6258  0.2479
11786TIP3    H156773   1.202   0.445   5.988  0.6090  0.2269  0.7702
11786TIP3    H256774   1.053   0.459   5.966  0.9417  2.4374 -0.3055
11787TIP3   OH256775   2.089   4.653   3.111 -0.4737  0.3387  0.4050
11787TIP3    H156776   2.169   4.703   3.098  0.2404 -0.5474  1.2501
11787TIP3    H256777   2.064   4.671   3.202 -1.1383  0.4673  0.2045
11788TIP3   OH256778   0.767   3.554   4.405 -0.3822  0.2081  0.0340
11788TIP3    H156779   0.724   3.526   4.325  1.3519  0.0524 -0.8833
11788TIP3    H256780   0.700   3.605   4.452 -1.5502 -0.0607 -1.2808
11789TIP3   OH256781   3.261   6.578   0.358  0.2090  0.4794  0.0604
11789TIP3    H156782   3.253   6.651   0.297 -0.0448  1.3334  1.0941
11789TIP3    H256783   3.293   6.506   0.304 -0.3878  1.0943 -1.1662
11790TIP3   OH256784   6.530   2.673   1.175 -0.1002 -0.5977  0.1966
11790TIP3    H156785   6.496   2.727   1.103  0.7293  0.4281  0.5452
11790TIP3    H256786   6.617   2.646   1.147  0.7774  0.9012  1.3038
11791TIP3   OH256787   0.659   3.186   5.745  0.2382 -0.1401  0.4939
11791TIP3    H156788   0.591   3.118   5.742 -0.1503  0.2008  1.2264
11791TIP3    H256789   0.649   3.234   5.663  0.1094 -0.5834  0.2466
11792TIP3   OH256790   3.106   0.158   2.432 -0.3236  0.2442  0.2104
11792TIP3    H156791   3.165   0.233   2.435  1.1237 -0.3528 -4.7478
11792TIP3    H256792   3.019   0.196   2.417 -0.0385  0.9889  0.4248
11793TIP3   OH256793   1.849   4.771  13.160 -0.3641 -0.0611  0.1747
11793TIP3    H156794   1.824   4.807  13.075 -0.9073 -0.7121  0.0541
11793TIP3    H256795   1.911   4.702  13.139 -1.9849 -1.5747  0.1407
11794TIP3   OH256796   1.504   0.204  15.268 -0.2673 -0.4094 -0.3226
11794TIP3    H156797   1.546   0.160  15.342 -0.3648 -1.4225 -0.8580
11794TIP3    H256798   1.413   0.178  15.273 -0.2080 -0.7595 -1.0000
11795TIP3   OH256799   6.505   6.285   4.103 -0.0077 -0.3375  0.5928
11795TIP3    H156800   6.425   6.309   4.056 -0.5085 -1.7596  0.6799
11795TIP3    H256801   6.576   6.315   4.046 -0.6019 -1.2619 -0.6784
11796TIP3   OH256802   6.255   0.579  10.624 -0.3777 -0.5409 -0.6421
11796TIP3    H156803   6.321   0.586  10.694 -2.2302 -2.0786  1.3835
11796TIP3    H256804   6.254   0.486  10.602 -0.8817 -0.2921 -1.6817
11797TIP3   OH256805   0.280   6.571  12.076  0.2011  0.1034  0.3019
11797TIP3    H156806   0.252   6.570  11.985  0.7642 -0.4947  0.1246
11797TIP3    H256807   0.351   6.635  12.079  1.6285 -1.3834 -0.1549
11798TIP3   OH256808   1.588   2.959  16.884  0.0004  0.3710  0.3304
11798TIP3    H156809   1.630   2.916  16.958 -3.5405  0.1884  2.4752
11798TIP3    H256810   1.573   2.889  16.820 -1.4204 -0.6582  1.7188
11799TIP3   OH256811   0.900   1.282   5.216 -0.1151 -0.0095  0.0298
11799TIP3    H156812   0.874   1.355   5.272 -0.6722  0.0120 -0.2507
11799TIP3    H256813   0.961   1.320   5.152  0.8735 -0.1232  0.8839
11800TIP3   OH256814   1.767   4.970  15.162 -0.2039  0.3147 -0.1801
11800TIP3    H156815   1.738   4.934  15.078 -0.0698 -0.8131  0.2404
11800TIP3    H256816   1.849   5.015  15.143 -0.3056  0.2883 -0.6905
11801TIP3   OH256817   5.265   1.790   3.396 -0.3235 -0.3128  0.3338
11801TIP3    H156818   5.213   1.864   3.428  1.0906  0.2069  1.5330
11801TIP3    H256819   5.244   1.718   3.456 -0.2884 -0.3399  0.3132
11802TIP3   OH256820   0.267   6.462  11.400  0.5443 -0.4214 -0.4566
11802TIP3    H156821   0.310   6.483  11.483  1.6909 -1.3396 -0.7984
11802TIP3    H256822   0.330   6.409  11.352 -0.6973 -1.1971 -1.2946
11803TIP3   OH256823   2.370   4.805   4.334 -0.7441 -0.0335 -0.0424
11803TIP3    H156824   2.407   4.842   4.254  0.2063  1.4451  1.0270
11803TIP3    H256825   2.373   4.710   4.320  1.7054  0.0803 -0.8161
11804TIP3   OH256826   0.074   0.220  12.258 -0.1597 -0.4986 -0.2590
11804TIP3    H156827  -0.015   0.250  12.279  0.9253  1.0624  2.4583
11804TIP3    H256828   0.063   0.126  12.242 -2.3442 -0.2946 -0.3244
11805TIP3   OH256829   6.670   2.203  12.539  0.4073 -0.6521  0.2709
11805TIP3    H156830   6.606   2.221  12.608 -0.1252  1.3058 -0.6727
11805TIP3    H256831   6.663   2.109  12.524  0.9284 -1.2746  3.2157
11806TIP3   OH256832   2.768   3.552  16.260  0.2393 -0.1948  0.5447
11806TIP3    H156833   2.726   3.628  16.300  0.7320 -0.5118  1.7406
11806TIP3    H256834   2.830   3.589  16.198 -0.0157  0.3608  0.6162
11807TIP3   OH256835   1.403   5.159   5.546  0.3786 -0.5445 -1.0489
11807TIP3    H156836   1.309   5.167   5.563  0.6833  0.7936  0.2353
11807TIP3    H256837   1.428   5.075   5.583  0.0542  0.0519  0.5865
11808TIP3   OH256838   4.076   1.107   2.800 -0.1613 -0.2136 -0.0354
11808TIP3    H156839   4.035   1.034   2.754 -0.5221  1.1196 -1.9648
11808TIP3    H256840   4.165   1.111   2.765  0.3131 -0.5756  1.1026
11809TIP3   OH256841   0.187   1.319   1.940 -0.3346  0.4628  0.0270
11809TIP3    H156842   0.153   1.374   2.011  0.8806  0.4636  0.6264
11809TIP3    H256843   0.146   1.233   1.956 -0.9054  0.7352  0.0832
11810TIP3   OH256844   6.627   5.592  11.812  0.4028  0.3269 -0.2810
11810TIP3    H156845   6.722   5.597  11.817  0.3169  1.1565  1.1059
11810TIP3    H256846   6.605   5.505  11.845  0.6208  0.8308  1.3154
11811TIP3   OH256847   2.061   2.907   5.621  0.6843  0.0712  0.6241
11811TIP3    H156848   2.095   2.833   5.671 -0.3081  0.2109  1.5434
11811TIP3    H256849   2.029   2.968   5.687  0.2885  0.7387 -0.1608
11812TIP3   OH256850   3.621   0.678   0.435 -0.7042  0.1462 -0.1230
11812TIP3    H156851   3.648   0.604   0.489 -3.4024 -0.2793  0.7894
11812TIP3    H256852   3.625   0.645   0.345 -0.3632 -0.5845  0.1511
11813TIP3   OH256853   0.531   2.254   3.221  0.3789 -0.2520 -0.1538
11813TIP3    H156854   0.615   2.287   3.189  0.5879 -0.2366  0.3924
11813TIP3    H256855   0.533   2.160   3.201 -0.4343  0.1211 -2.1695
11814TIP3   OH256856   0.662   0.920  12.140 -0.3429  0.1460  0.1131
11814TIP3    H156857   0.613   0.859  12.085 -0.8891  0.9694 -0.3314
11814TIP3    H256858   0.614   0.923  12.222  0.5449 -1.1842  0.7114
11815TIP3   OH256859   1.403   5.877  16.805  0.0436  0.2582 -0.2366
11815TIP3    H156860   1.312   5.858  16.827 -0.2229  1.6321 -0.0907
11815TIP3    H256861   1.454   5.821  16.863 -0.6878  0.7586  0.9103
11816TIP3   OH256862   0.814   2.556  16.490  0.2172 -0.4076  0.1323
11816TIP3    H156863   0.872   2.523  16.422  0.3373  0.6177 -0.2794
11816TIP3    H256864   0.860   2.538  16.572  0.4649 -0.8629 -0.1057
11817TIP3   OH256865   0.893   5.011  15.047 -0.3151 -0.1961 -0.6882
11817TIP3    H156866   0.833   5.029  15.118  1.7211 -1.4043  1.4875
11817TIP3    H256867   0.849   4.944  14.994 -1.6500  0.3573 -0.3173
11818TIP3   OH256868   4.099   3.207  14.409 -0.3243  0.0774  1.0022
11818TIP3    H156869   4.146   3.127  14.433  0.6307 -0.0136 -0.9627
11818TIP3    H256870   4.013   3.177  14.381 -0.4384 -0.1149  1.5588
11819TIP3   OH256871   2.143   4.256   5.518  0.4971 -0.5123  0.3120
11819TIP3    H156872   2.091   4.232   5.441  1.4709  1.7345 -1.1183
11819TIP3    H256873   2.078   4.280   5.584 -0.3480  0.6977 -0.9083
11820TIP3   OH256874   3.647   6.652  14.258 -0.3990 -0.0986 -0.0763
11820TIP3    H156875   3.578   6.597  14.220  1.8507 -1.9640 -1.7358
11820TIP3    H256876   3.723   6.639  14.201  1.1645  2.4536  1.2186
11821TIP3   OH256877   2.468   2.211  15.340 -0.1972 -0.2280 -0.6815
11821TIP3    H156878   2.485   2.141  15.277  2.6776 -0.5254  0.2443
11821TIP3    H256879   2.463   2.165  15.425 -0.0631  0.5149 -0.2636
11822TIP3   OH256880   4.462   2.072   0.412 -0.2105 -0.1865 -0.0994
11822TIP3    H156881   4.541   2.122   0.431 -0.3416 -0.4158  1.1542
11822TIP3    H256882   4.416   2.067   0.496 -2.4392  1.4638 -1.1139
11823TIP3   OH256883   1.430   2.851   0.067  0.3034  0.1299  0.4625
11823TIP3    H156884   1.495   2.826   0.001  0.1865  0.5250  0.1913
11823TIP3    H256885   1.474   2.918   0.119  0.2866  0.0393  0.5936
11824TIP3   OH256886   1.621   6.464   1.553 -0.1394 -0.1610  0.0851
11824TIP3    H156887   1.705   6.459   1.508 -0.0504 -1.3431  0.3336
11824TIP3    H256888   1.577   6.382   1.530 -0.3444 -0.5183  1.6438
11825TIP3   OH256889   4.262   0.282  11.300 -0.0695 -0.9406  0.1733
11825TIP3    H156890   4.287   0.298  11.208 -0.7366  1.0004  0.2680
11825TIP3    H256891   4.201   0.353  11.320 -2.6557 -3.2833  1.1074
11826TIP3   OH256892   0.861   0.978   3.812  0.9441 -0.4584  0.3251
11826TIP3    H156893   0.860   0.998   3.719  1.7548 -0.8080  0.2354
11826TIP3    H256894   0.944   0.932   3.826  0.9907 -0.1049  1.2797
11827TIP3   OH256895   0.249   3.697  16.156  0.2064  0.2482 -0.0467
11827TIP3    H156896   0.227   3.608  16.126  0.0669  0.2834 -0.0490
11827TIP3    H256897   0.259   3.688  16.251 -0.8247  0.4285  0.0981
11828TIP3   OH256898   1.214   2.288  16.027  0.0547 -0.4044 -0.3373
11828TIP3    H156899   1.225   2.341  15.949 -0.6591 -1.2346 -1.0273
11828TIP3    H256900   1.280   2.219  16.019 -0.2631 -0.7064 -0.4112
11829TIP3   OH256901   6.127   2.252   0.392  0.4765 -0.5460 -0.2310
11829TIP3    H156902   6.193   2.322   0.396 -0.7943  0.6428  1.5658
11829TIP3    H256903   6.137   2.205   0.475 -1.2944  0.0464  0.3618
11830TIP3   OH256904   5.557   3.336   5.137 -0.5587  0.4481 -0.0025
11830TIP3    H156905   5.545   3.336   5.232 -0.8211 -3.0092  0.1135
11830TIP3    H256906   5.538   3.246   5.111  0.9574  0.9020 -3.1567
11831TIP3   OH256907   3.451   5.095  11.553  0.1754  0.1583 -0.3880
11831TIP3    H156908   3.438   5.088  11.648  1.1184  0.7926 -0.1954
11831TIP3    H256909   3.538   5.058  11.539  0.0169  0.0227 -1.0137
11832TIP3   OH256910   3.458   6.063  12.226  0.8417  0.0531  0.1492
11832TIP3    H156911   3.375   6.024  12.254  0.6753 -0.8881 -1.4724
11832TIP3    H256912   3.524   5.997  12.248  0.8720 -0.1108 -0.4003
11833TIP3   OH256913   6.508   5.874   5.956  0.3429 -0.1639  0.0897
11833TIP3    H156914   6.598   5.854   5.983  0.3033  0.2368  0.5471
11833TIP3    H256915   6.515   5.960   5.914  0.0425  0.2650  0.9027
11834TIP3   OH256916   5.766   6.287   1.138 -0.1662 -0.1590  0.6064
11834TIP3    H156917   5.703   6.259   1.072  0.0645 -0.4244  0.4948
11834TIP3    H256918   5.727   6.364   1.178  0.5775  1.2089 -1.1844
11835TIP3   OH256919   5.934   6.280   0.322  0.4951 -0.2678  0.1735
11835TIP3    H156920   5.923   6.202   0.377  2.3779 -1.0133 -0.4344
11835TIP3    H256921   6.002   6.330   0.367 -0.4493  0.8849  0.3637
11836TIP3   OH256922   6.158   1.859   2.153  0.4933 -0.3846  0.4153
11836TIP3    H156923   6.093   1.927   2.135 -0.1776 -0.5080  2.2172
11836TIP3    H256924   6.154   1.802   2.076  0.0034  0.7649 -0.4495
11837TIP3   OH256925   0.717   4.230  16.097 -0.2434  0.3765  0.5736
11837TIP3    H156926   0.760   4.156  16.141  1.4972  1.6030  1.0316
11837TIP3    H256927   0.758   4.234  16.011 -1.5105 -0.1681 -0.0805
11838TIP3   OH256928   1.117   4.255  14.665  0.2481 -0.5415 -0.8991
11838TIP3    H156929   1.088   4.332  14.713  0.1468 -0.7652 -0.5990
11838TIP3    H256930   1.141   4.191  14.733  2.1421 -0.1225 -1.1137
11839TIP3   OH256931   5.000   2.325   5.619  0.1155 -0.0500  0.2448
11839TIP3    H156932   4.964   2.295   5.536 -1.1424  2.0986 -0.0636
11839TIP3    H256933   4.937   2.391   5.650  0.9928 -0.1750  2.4746
11840TIP3   OH256934   6.695   2.193   5.266  0.6297  0.3710 -0.0635
11840TIP3    H156935   6.782   2.210   5.228  0.5837 -0.0805 -0.3831
11840TIP3    H256936   6.636   2.248   5.216  0.5888 -0.1215 -0.5628
11841TIP3   OH256937   4.490   4.407  14.314 -0.3893  0.2915  0.2102
11841TIP3    H156938   4.537   4.381  14.393 -0.5599 -1.7083 -0.2801
11841TIP3    H256939   4.417   4.345  14.308 -1.4828  1.5846 -0.5273
11842TIP3   OH256940   4.503   1.674   2.909  0.6476 -0.2465  0.3085
11842TIP3    H156941   4.431   1.630   2.955  0.8373 -0.8335  0.0470
11842TIP3    H256942   4.498   1.641   2.819 -0.9952  2.4026 -0.6936
11843TIP3   OH256943   0.283   3.611   5.052  0.8064 -0.3193  0.4309
11843TIP3    H156944   0.372   3.641   5.037  2.2353 -3.9864  0.4318
11843TIP3    H256945   0.259   3.646   5.138  0.3955  4.2254 -1.2819
11844TIP3   OH256946   2.764   5.478  16.448  0.0690 -0.1835 -0.4481
11844TIP3    H156947   2.802   5.417  16.385 -0.8086 -0.4303 -0.7648
11844TIP3    H256948   2.676   5.494  16.415 -0.9104 -1.3413  1.3794
11845TIP3   OH256949   3.303   0.902   5.037  0.1389  0.0403  0.4630
11845TIP3    H156950   3.376   0.854   5.075 -1.0688 -1.3776  1.0787
11845TIP3    H256951   3.342   0.951   4.964  1.3735 -2.2423 -0.5233
11846TIP3   OH256952   6.388   5.143  12.430 -0.1044 -0.0750 -0.2055
11846TIP3    H156953   6.445   5.173  12.358  0.0004  0.6096  0.1558
11846TIP3    H256954   6.384   5.218  12.490 -0.9704 -0.3031  0.0304
11847TIP3   OH256955   1.598   3.144   4.262  0.0167  0.1951  0.3097
11847TIP3    H156956   1.505   3.142   4.244  0.2423 -0.7619 -0.8759
11847TIP3    H256957   1.620   3.237   4.270 -0.7342  0.5071 -1.0776
11848TIP3   OH256958   2.786   6.006  11.825 -0.1473 -0.1704 -1.0039
11848TIP3    H156959   2.846   6.063  11.873 -1.7073  2.0259 -1.5154
11848TIP3    H256960   2.808   6.021  11.733 -1.3790  0.6159 -1.1921
11849TIP3   OH256961   5.213   5.396   2.273 -0.2699 -0.6078 -0.2724
11849TIP3    H156962   5.308   5.409   2.275 -0.3433  0.2880  2.6428
11849TIP3    H256963   5.202   5.301   2.265  0.8027 -0.6404 -1.8021
11850TIP3   OH256964   1.123   5.596  15.196  0.0092 -0.2442  0.0035
11850TIP3    H156965   1.051   5.602  15.258 -0.0445  2.3955 -0.1819
11850TIP3    H256966   1.122   5.506  15.165 -1.9420 -0.7780  1.4819
11851TIP3   OH256967   2.915   2.603   4.153  0.7245  0.3044 -0.6203
11851TIP3    H156968   3.009   2.601   4.170  0.3583 -0.5194  1.6301
11851TIP3    H256969   2.881   2.673   4.209 -0.2237 -0.6595  0.0532
11852TIP3   OH256970   0.353   1.764   0.613 -0.6001  0.5574 -0.0043
11852TIP3    H156971   0.363   1.855   0.643 -1.4475  1.4232 -2.1218
11852TIP3    H256972   0.269   1.736   0.650 -1.9801  1.8483 -1.9515
11853TIP3   OH256973   2.305   4.505   5.488 -0.2319  0.2402 -0.0786
11853TIP3    H156974   2.268   4.570   5.546  1.0097 -1.7998  3.2626
11853TIP3    H256975   2.238   4.436   5.482  0.8993 -1.1202  1.8627
11854TIP3   OH256976   3.630   3.966  15.362  0.9044 -0.1710  0.2667
11854TIP3    H156977   3.632   3.874  15.336  1.5689  0.3653 -1.7096
11854TIP3    H256978   3.554   4.002  15.317  2.3256  0.8759 -1.4163
11855TIP3   OH256979   5.267   2.328  15.802 -0.1557 -0.7346  0.3483
11855TIP3    H156980   5.273   2.355  15.711 -0.1022  0.4613  0.6820
11855TIP3    H256981   5.341   2.371  15.845 -0.7739 -0.4251  1.1438
11856TIP3   OH256982   2.516   4.601  12.484  0.1195  0.4080  0.3481
11856TIP3    H156983   2.528   4.696  12.479 -0.2593  0.4176 -1.0188
11856TIP3    H256984   2.421   4.588  12.474  0.0132 -0.0701  1.7987
11857TIP3   OH256985   6.086   2.893   6.298  0.2611 -0.1517 -0.3030
11857TIP3    H156986   6.053   2.971   6.342  0.1121  0.2351 -1.0997
11857TIP3    H256987   6.072   2.822   6.362 -1.3621  0.1316 -0.3203
11858TIP3   OH256988   0.768   6.681   4.883 -0.5580 -0.4431 -0.3147
11858TIP3    H156989   0.789   6.703   4.792 -1.4483  2.1024  0.0270
11858TIP3    H256990   0.788   6.761   4.932  1.2702 -2.1954  2.0170
11859TIP3   OH256991   5.131   2.288  13.218 -0.0148 -0.0111 -0.2284
11859TIP3    H156992   5.099   2.362  13.166 -0.4072  1.3632  1.8324
11859TIP3    H256993   5.194   2.327  13.279  2.1854 -1.9371 -1.1213
11860TIP3   OH256994   4.562   3.076  14.304  0.1395 -0.5883 -0.9905
11860TIP3    H156995   4.601   3.140  14.363 -0.6629  0.1873 -1.2729
11860TIP3    H256996   4.605   3.093  14.220 -2.0547  1.5753 -1.7895
11861TIP3   OH256997   0.991   1.975  15.981 -0.4089  0.2156  0.3384
11861TIP3    H156998   0.917   2.036  15.982 -0.9077 -0.3726  0.4175
11861TIP3    H256999   0.952   1.892  15.954 -0.2143 -0.6438  2.4745
11862TIP3   OH257000   3.676   2.864   5.992 -0.2653  0.0347  0.0627
11862TIP3    H157001   3.759   2.861   6.041  0.2714 -1.1981 -0.8692
11862TIP3    H257002   3.672   2.953   5.958  0.0388  0.4899  1.1715
11863TIP3   OH257003   6.237   2.538   2.282 -0.3482  0.2803 -0.3360
11863TIP3    H157004   6.185   2.486   2.344  2.6061 -1.1492  1.1846
11863TIP3    H257005   6.260   2.476   2.213  0.6573  0.3764 -0.1072
11864TIP3   OH257006   3.516   3.608   5.589  0.1821  0.9258  0.0552
11864TIP3    H157007   3.489   3.556   5.665  0.8957  2.7124  1.6287
11864TIP3    H257008   3.610   3.593   5.583  0.0831  0.5746 -0.6781
11865TIP3   OH257009   1.596   0.821   4.541  0.0996 -0.0636  0.2817
11865TIP3    H157010   1.611   0.819   4.635  0.0072 -0.1545  0.2941
11865TIP3    H257011   1.520   0.766   4.527  0.2599 -0.2486  0.1266
11866TIP3   OH257012   1.318   2.542   4.001  0.1175 -0.0281  0.4851
11866TIP3    H157013   1.298   2.634   4.017 -0.3471 -0.0733  0.1964
11866TIP3    H257014   1.306   2.531   3.907  1.1563 -0.1561  0.3582
11867TIP3   OH257015   4.274   3.758  15.509 -0.3340 -0.1316  0.7119
11867TIP3    H157016   4.350   3.792  15.555  1.3237 -1.1090 -1.1521
11867TIP3    H257017   4.291   3.665  15.499 -0.1053  0.1271 -2.5564
11868TIP3   OH257018   3.455   4.535  10.944  0.3417 -0.3538 -0.0777
11868TIP3    H157019   3.494   4.459  10.987 -2.8012 -1.4273  1.2017
11868TIP3    H257020   3.379   4.499  10.898 -0.0814  1.7672 -1.1362
11869TIP3   OH257021   5.395   5.550   4.676 -0.4521  0.8181 -0.3436
11869TIP3    H157022   5.346   5.533   4.757  0.8481 -2.0436 -0.0298
11869TIP3    H257023   5.457   5.477   4.670  1.8836  2.7874 -2.1606
11870TIP3   OH257024   2.058   5.055  14.264 -0.1840 -0.5662  0.0311
11870TIP3    H157025   1.988   5.043  14.328 -0.6460 -0.7619 -0.5061
11870TIP3    H257026   2.039   4.992  14.195  1.1577 -1.4218  0.4104
11871TIP3   OH257027   5.347   6.542  14.392  0.4166  0.4722  0.2528
11871TIP3    H157028   5.423   6.553  14.334 -0.5208 -0.2895 -1.1657
11871TIP3    H257029   5.384   6.505  14.472  1.6406  0.8193 -0.1268
11872TIP3   OH257030   1.155   3.624  16.331 -0.2860  0.1206 -0.0782
11872TIP3    H157031   1.129   3.686  16.399  0.5407 -0.1177  0.4667
11872TIP3    H257032   1.153   3.539  16.375  1.1196  0.0613 -0.0834
11873TIP3   OH257033   5.949   3.904  11.675 -0.2807  0.3639 -0.3903
11873TIP3    H157034   5.883   3.967  11.647 -1.4517 -1.3166 -1.5858
11873TIP3    H257035   5.990   3.945  11.752 -0.5391  2.8182 -1.4661
11874TIP3   OH257036   3.121   3.957   0.566 -0.0920 -0.1419 -0.3231
11874TIP3    H157037   3.138   3.923   0.654  0.2691  0.6262 -0.0943
11874TIP3    H257038   3.103   4.050   0.578  3.1176  0.7749 -1.3204
11875TIP3   OH257039   4.638   3.126   2.905 -0.3854 -0.0358 -0.0944
11875TIP3    H157040   4.711   3.070   2.884 -0.2404 -0.0849  0.5166
11875TIP3    H257041   4.625   3.180   2.827  0.5701  0.2645 -0.0589
11876TIP3   OH257042   1.753   3.388   1.224 -0.0052 -0.3521 -0.0464
11876TIP3    H157043   1.835   3.342   1.207  0.1777  0.5904 -1.9714
11876TIP3    H257044   1.760   3.470   1.175 -2.7054 -0.9332 -1.6173
11877TIP3   OH257045   5.926   0.623   3.133 -0.2841  0.0640  0.0794
11877TIP3    H157046   5.887   0.548   3.087 -1.3313 -0.3946  1.6045
11877TIP3    H257047   6.020   0.610   3.124 -0.4548 -0.6875 -0.8277
11878TIP3   OH257048   6.754   4.053   5.803  0.0730  0.7560  0.9128
11878TIP3    H157049   6.777   3.984   5.742 -0.6047  1.2315  0.0865
11878TIP3    H257050   6.829   4.112   5.802  0.7092 -0.0189  1.7224
11879TIP3   OH257051   2.221   5.554   5.981 -0.4147 -0.1912  0.4738
11879TIP3    H157052   2.197   5.476   6.029  0.3023  0.5428  2.1114
11879TIP3    H257053   2.195   5.536   5.890 -1.2138 -1.8753  1.0014
11880TIP3   OH257054   5.278   5.244  11.309  0.0682 -0.0601  0.1183
11880TIP3    H157055   5.349   5.231  11.246  1.9504  2.1861  1.6160
11880TIP3    H257056   5.294   5.178  11.376 -0.2034 -0.5502 -0.2887
11881TIP3   OH257057   2.625   1.575   0.455 -0.3109  0.4693  0.1784
11881TIP3    H157058   2.541   1.541   0.423 -0.5097  2.2742 -1.3968
11881TIP3    H257059   2.677   1.588   0.376  1.8689 -1.5075  1.1978
11882TIP3   OH257060   6.076   1.219  12.311  0.0723 -0.0478  0.1687
11882TIP3    H157061   6.088   1.279  12.385 -2.1536 -1.4960  1.8772
11882TIP3    H257062   5.982   1.222  12.293  0.5203  0.1203 -2.5776
11883TIP3   OH257063   4.333   0.011  10.548  0.1057 -0.4993  0.1163
11883TIP3    H157064   4.260  -0.029  10.501  0.3202  0.9719 -1.6028
11883TIP3    H257065   4.350   0.092  10.500  0.6957  0.8681  2.4669
11884TIP3   OH257066   5.905   4.004  13.725  0.8074  0.3435 -0.5330
11884TIP3    H157067   5.929   4.053  13.804  0.9374 -0.1882 -0.2407
11884TIP3    H257068   5.846   3.936  13.756  0.2840  0.5759 -1.0058
11885TIP3   OH257069   4.176   3.350   1.256  0.2849 -0.3872  0.7178
11885TIP3    H157070   4.177   3.328   1.162  1.7403 -0.0332  0.6144
11885TIP3    H257071   4.218   3.275   1.298  1.1424  0.1685  0.8800
11886TIP3   OH257072   4.258   0.410  14.482  0.3684 -0.3111 -0.0026
11886TIP3    H157073   4.332   0.431  14.539  0.1231 -1.8384  0.9324
11886TIP3    H257074   4.181   0.425  14.536  0.0791 -0.5376 -0.3431
11887TIP3   OH257075   1.642   2.884  15.790 -0.4263 -0.0029  0.0859
11887TIP3    H157076   1.724   2.915  15.752 -1.5469  2.0391 -0.8877
11887TIP3    H257077   1.615   2.811  15.733  0.7348 -0.7831  0.5030
11888TIP3   OH257078   5.409   4.478  15.425 -0.3221 -0.6614 -0.1955
11888TIP3    H157079   5.455   4.424  15.489  0.7943 -1.2580 -1.4310
11888TIP3    H257080   5.404   4.423  15.347 -2.3208 -0.2374 -0.4039
11889TIP3   OH257081   2.832   1.379  12.714  0.1668 -0.3568  0.5486
11889TIP3    H157082   2.906   1.421  12.757 -0.3220  2.5216 -1.1920
11889TIP3    H257083   2.866   1.350  12.629 -0.1773 -1.1621  0.6666
11890TIP3   OH257084   1.488   1.638  16.816  0.6918  0.7305 -0.4498
11890TIP3    H157085   1.493   1.604  16.906 -0.9805  0.5788 -0.3694
11890TIP3    H257086   1.471   1.731  16.827 -0.4128  0.5638 -0.5541
11891TIP3   OH257087   4.812   2.888   0.912  0.4108 -0.4946 -0.3565
11891TIP3    H157088   4.897   2.924   0.937 -0.8296  0.7796  2.3391
11891TIP3    H257089   4.833   2.827   0.841  3.6379 -0.6642  0.5656
11892TIP3   OH257090   3.817   1.983   6.664  0.0595  0.0857  0.5723
11892TIP3    H157091   3.755   1.982   6.591  1.3422 -3.7947 -0.7063
11892TIP3    H257092   3.782   1.919   6.725  0.4549  1.2910  2.1331
11893TIP3   OH257093   5.557   2.357  11.524  0.2305 -0.1286  1.1108
11893TIP3    H157094   5.491   2.426  11.513  1.9522  1.6634  1.3682
11893TIP3    H257095   5.553   2.306  11.443 -0.8312  0.5130  0.7429
11894TIP3   OH257096   0.584   3.375  12.537  0.1541  0.1363 -0.5321
11894TIP3    H157097   0.670   3.415  12.545 -0.3941  1.3875 -0.6722
11894TIP3    H257098   0.555   3.397  12.448 -0.0170 -0.9015 -0.7546
11895TIP3   OH257099   0.262   1.059   2.916 -0.1986 -0.1332 -0.3917
11895TIP3    H157100   0.257   1.129   2.850 -2.0286  1.1392  0.9817
11895TIP3    H257101   0.325   1.091   2.980 -0.7456  0.0871  0.0405
11896TIP3   OH257102   6.763   0.385   5.193 -0.2281  0.1488 -0.8610
11896TIP3    H157103   6.799   0.334   5.120 -2.4216 -0.8491 -1.3512
11896TIP3    H257104   6.780   0.331   5.271  0.2918  0.2176 -0.9278
11897TIP3   OH257105   1.531   2.176  15.188  0.5031 -0.2111 -0.0041
11897TIP3    H157106   1.559   2.090  15.219  1.2308 -0.1196 -0.3843
11897TIP3    H257107   1.608   2.212  15.145  0.4030  0.9045  0.7124
11898TIP3   OH257108   5.208   3.419  11.433 -0.0278 -0.3904  0.1703
11898TIP3    H157109   5.209   3.446  11.341  2.3909 -2.1229 -0.3822
11898TIP3    H257110   5.126   3.371  11.442 -0.4070 -0.0175 -1.0187
11899TIP3   OH257111   6.481   2.856   2.720  0.1365  0.1339  0.4637
11899TIP3    H157112   6.528   2.920   2.773  0.5128 -0.0858  0.3993
11899TIP3    H257113   6.530   2.853   2.637 -1.1765  1.4326 -0.4166
11900TIP3   OH257114   0.711   0.240   0.363 -0.5507  0.0517  0.1400
11900TIP3    H157115   0.737   0.161   0.316  1.8548  0.3117  0.8628
11900TIP3    H257116   0.740   0.312   0.307  1.6243  0.3589  1.5504
11901TIP3   OH257117   6.631   1.384  16.256  0.3159  0.1386  0.0657
11901TIP3    H157118   6.605   1.295  16.233 -1.1906  0.7867 -0.8558
11901TIP3    H257119   6.564   1.415  16.316  1.4147  0.3011  1.2552
11902TIP3   OH257120   6.299   2.378   2.076 -0.4917  0.6328 -0.2767
11902TIP3    H157121   6.394   2.388   2.088 -0.5006  0.5946 -0.1673
11902TIP3    H257122   6.290   2.297   2.027 -0.5433 -0.3556  1.2938
11903TIP3   OH257123   6.305   0.040   4.628  0.0797 -0.6793  0.5749
11903TIP3    H157124   6.267   0.026   4.541  0.2103 -0.8885  0.5500
11903TIP3    H257125   6.231   0.032   4.688 -0.5270  2.0200  0.3248
11904TIP3   OH257126   5.270   3.963   6.308  0.1887  0.6665 -0.1809
11904TIP3    H157127   5.362   3.969   6.279  0.4446  1.5617  0.7645
11904TIP3    H257128   5.223   4.024   6.252 -0.1673 -0.9747 -1.7908
11905TIP3   OH257129   4.400   1.459  17.218  0.2754  0.4880  0.0237
11905TIP3    H157130   4.370   1.506  17.295  0.2395  0.5281 -0.0147
11905TIP3    H257131   4.478   1.412  17.247 -1.5044 -2.0962  0.9955
11906TIP3   OH257132   1.484   5.245   2.110  0.2195 -0.2369  0.0737
11906TIP3    H157133   1.458   5.184   2.179 -1.2629 -0.6894 -0.8327
11906TIP3    H257134   1.448   5.207   2.030 -1.6813  2.3069 -0.4138
11907TIP3   OH257135   2.121   0.638  11.553  0.1851  0.4456 -0.4879
11907TIP3    H157136   2.094   0.727  11.531 -1.0371  0.3413  0.4477
11907TIP3    H257137   2.053   0.582  11.516  0.1408  0.0227  0.2119
11908TIP3   OH257138   5.453   0.450   4.590  0.2418  0.0885 -0.1716
11908TIP3    H157139   5.407   0.476   4.669  0.3643  0.1948 -0.1355
11908TIP3    H257140   5.397   0.479   4.518 -0.3259 -0.8394 -0.1214
11909TIP3   OH257141   3.424   2.591   4.451 -0.0302  0.1774  0.3883
11909TIP3    H157142   3.331   2.602   4.473  0.1620  1.9684  0.4169
11909TIP3    H257143   3.471   2.645   4.515  1.0590 -0.7743  0.4266
11910TIP3   OH257144   0.625   4.587  12.146  0.1943  1.0311  0.0593
11910TIP3    H157145   0.644   4.524  12.076 -2.4954 -1.1443  1.1393
11910TIP3    H257146   0.534   4.613  12.131 -0.2534  0.9671  2.3797
11911TIP3   OH257147   5.373   5.031   3.185 -0.4432  0.4121 -0.3710
11911TIP3    H157148   5.445   5.011   3.245 -1.7790 -0.8105  0.9150
11911TIP3    H257149   5.390   4.977   3.108  1.1982  1.8704 -1.1168
11912TIP3   OH257150   4.980   4.526   3.655 -0.3130  0.1654  0.2291
11912TIP3    H157151   4.980   4.470   3.733 -0.1640  1.0402  0.8748
11912TIP3    H257152   4.905   4.496   3.604 -0.0227 -0.8553  0.3875
11913TIP3   OH257153   2.255   0.510   0.194  0.2799 -0.4659  0.1023
11913TIP3    H157154   2.228   0.420   0.173  0.4525 -0.6890  0.8326
11913TIP3    H257155   2.280   0.547   0.109 -1.8994 -0.3835 -0.5563
11914TIP3   OH257156   3.088   0.734  12.037  0.5994  0.5152 -0.1086
11914TIP3    H157157   3.012   0.762  12.088 -0.0423 -0.5380 -0.4774
11914TIP3    H257158   3.152   0.707  12.103  0.6128  1.2684  0.1975
11915TIP3   OH257159   5.435   0.766  17.252 -0.1691 -0.5691  0.0684
11915TIP3    H157160   5.383   0.687  17.237 -0.8315 -0.1088 -0.1138
11915TIP3    H257161   5.510   0.758  17.193  1.3652 -2.4488  2.1172
11916TIP3   OH257162   4.637   0.159   0.343 -0.3468 -0.1160  0.2771
11916TIP3    H157163   4.713   0.211   0.371  0.7633 -1.5554  0.0935
11916TIP3    H257164   4.567   0.184   0.402  0.3327  1.0973  0.6008
11917TIP3   OH257165   5.202   0.425   0.528 -0.0532  0.7887  0.1583
11917TIP3    H157166   5.149   0.421   0.607  0.6890 -0.2571  0.6176
11917TIP3    H257167   5.292   0.429   0.559  0.2278  0.7076 -0.6225
11918TIP3   OH257168   6.547   1.867   3.604 -0.1646  0.0687  0.3260
11918TIP3    H157169   6.479   1.927   3.574  0.8081  0.6965 -0.7142
11918TIP3    H257170   6.615   1.924   3.641  0.9509 -0.3089 -1.0386
11919TIP3   OH257171   1.422   0.730  14.436 -0.0100 -1.3158  0.9096
11919TIP3    H157172   1.425   0.752  14.343 -0.3964 -0.3490  1.1117
11919TIP3    H257173   1.413   0.815  14.480 -0.1736 -1.7908  1.8052
11920TIP3   OH257174   1.076   1.744   4.329  0.2961 -0.0071 -0.1798
11920TIP3    H157175   0.999   1.786   4.291  0.0054 -1.2801 -1.0587
11920TIP3    H257176   1.149   1.772   4.273  0.0319 -0.9983 -1.0605
11921TIP3   OH257177   5.812   6.640   4.179  0.3891 -0.5626 -0.3032
11921TIP3    H157178   5.758   6.695   4.234 -0.6923 -1.2806 -0.6118
11921TIP3    H257179   5.786   6.550   4.202  2.1426 -0.9822  0.2390
11922TIP3   OH257180   5.960   5.008  16.624  0.4021  0.0692  0.6763
11922TIP3    H157181   5.869   4.984  16.641  1.1919 -1.5212  3.2672
11922TIP3    H257182   5.962   5.103  16.634 -1.0744  0.2353 -0.2403
11923TIP3   OH257183   5.908   4.287   0.239 -0.5456 -0.3600  0.1568
11923TIP3    H157184   5.907   4.373   0.197 -1.1857 -0.6674 -0.4704
11923TIP3    H257185   5.983   4.242   0.200 -0.6468 -0.3507 -0.0472
11924TIP3   OH257186   2.474   3.947   5.514 -0.6189  0.2273  0.4854
11924TIP3    H157187   2.471   4.014   5.446 -0.0976 -1.0282 -0.8327
11924TIP3    H257188   2.517   3.872   5.472  0.4338 -0.3385  2.4441
11925TIP3   OH257189   2.845   6.324  11.706 -0.5258 -0.3221  0.5063
11925TIP3    H157190   2.842   6.380  11.784 -1.3603  1.7314 -0.8892
11925TIP3    H257191   2.920   6.357  11.656 -1.0117 -0.4622 -0.3376
11926TIP3   OH257192   0.095   6.165  15.968 -0.1624  0.0692 -0.3239
11926TIP3    H157193   0.139   6.127  16.044 -2.0570 -2.1325 -0.2143
11926TIP3    H257194   0.166   6.185  15.907  1.4655  2.2067  2.0331
11927TIP3   OH257195   0.188   3.279  14.665  0.2613  0.1915 -0.3404
11927TIP3    H157196   0.131   3.206  14.638 -0.3105  0.7353 -0.6297
11927TIP3    H257197   0.265   3.271  14.610 -0.3524  0.5494 -1.2698
11928TIP3   OH257198   0.078   6.637   1.465  0.3487 -0.2024 -0.4813
11928TIP3    H157199   0.132   6.600   1.395  1.2278  0.3786 -0.1275
11928TIP3    H257200   0.006   6.680   1.419  0.0860 -1.1256 -0.9547
11929TIP3   OH257201   1.874   6.673  13.721  0.1290 -0.5502  0.3432
11929TIP3    H157202   1.919   6.619  13.786  1.2504  1.4307  1.3006
11929TIP3    H257203   1.782   6.648  13.729  0.1155  0.0238  3.1791
11930TIP3   OH257204   1.046   0.258   2.466 -0.3784 -0.1158  0.0614
11930TIP3    H157205   1.130   0.295   2.439 -0.0219 -1.2363 -0.4492
11930TIP3    H257206   0.985   0.332   2.463  0.5905  0.7314  0.5131
11931TIP3   OH257207   0.649   1.481  16.953  0.0205 -0.3408  0.0539
11931TIP3    H157208   0.639   1.518  16.865  1.3787  0.4924  0.2253
11931TIP3    H257209   0.622   1.389  16.942 -2.4892  0.3790 -0.5816
11932TIP3   OH257210   5.812   6.740   5.733  0.5163 -0.0003 -0.2381
11932TIP3    H157211   5.826   6.833   5.717  1.3880  0.2764  1.8070
11932TIP3    H257212   5.747   6.714   5.668  0.3974  1.9790 -0.9845
11933TIP3   OH257213   2.138   6.193  16.459  0.0422 -0.6543  0.2249
11933TIP3    H157214   2.048   6.225  16.448 -0.3280 -1.4169  0.8775
11933TIP3    H257215   2.177   6.198  16.372 -0.3813  0.4168  0.0874
11934TIP3   OH257216   5.324   1.191   4.052 -0.7278  0.1376  0.0075
11934TIP3    H157217   5.277   1.190   3.969 -0.8860  0.5383  0.0915
11934TIP3    H257218   5.406   1.238   4.032 -1.0757  0.8570  0.2408
11935TIP3   OH257219   1.289   0.374  17.145  0.0429  0.2526  0.2745
11935TIP3    H157220   1.286   0.469  17.130 -1.4006  0.1748 -0.0860
11935TIP3    H257221   1.218   0.339  17.091 -0.5592 -0.8475  1.7110
11936TIP3   OH257222   3.307   1.562  12.704  0.0359 -0.1267  0.1677
11936TIP3    H157223   3.298   1.467  12.712  1.3573 -0.4435 -1.5939
11936TIP3    H257224   3.261   1.584  12.623 -2.8560  1.2267  2.0289
11937TIP3   OH257225   5.765   2.798   4.791  0.1688  0.4635  0.2192
11937TIP3    H157226   5.704   2.861   4.830  0.3279  1.2915 -0.8203
11937TIP3    H257227   5.851   2.838   4.801  0.1530  0.9742 -1.4669
11938TIP3   OH257228   3.642   3.202  14.447 -0.1561  0.5629  0.3192
11938TIP3    H157229   3.681   3.202  14.534  0.2717 -0.8778  0.1560
11938TIP3    H257230   3.715   3.220  14.388 -0.0689 -0.3476  0.1382
11939TIP3   OH257231   6.737   3.054   1.867  0.6677  0.1443  0.3037
11939TIP3    H157232   6.769   3.144   1.871  0.8634  0.0435  1.1320
11939TIP3    H257233   6.671   3.049   1.936 -0.6691  0.1545 -0.9253
11940TIP3   OH257234   0.024   5.769   0.753 -0.1133  0.0659 -0.3198
11940TIP3    H157235   0.008   5.675   0.747 -0.9350  0.2181 -0.5967
11940TIP3    H257236   0.110   5.776   0.795  0.0515 -0.8064 -0.4956
11941TIP3   OH257237   3.744   6.341  17.305  0.2320 -0.0069  0.0072
11941TIP3    H157238   3.839   6.346  17.291  0.4335 -0.1671  1.2535
11941TIP3    H257239   3.718   6.432  17.318  0.0823  0.1179 -1.1069
11942TIP3   OH257240   1.035   5.611   0.110 -0.0795  0.4294  0.1839
11942TIP3    H157241   0.972   5.545   0.079  0.7596 -0.5333  0.4988
11942TIP3    H257242   1.055   5.585   0.200 -1.4284  2.4027  1.1287
11943TIP3   OH257243   0.918   1.444  15.786  0.1685  0.3463  0.0228
11943TIP3    H157244   0.989   1.469  15.845  0.3513  2.1694 -0.8702
11943TIP3    H257245   0.962   1.406  15.710  0.0289 -0.5752  0.3928
11944TIP3   OH257246   1.407   6.626   2.669  0.0864 -0.5913  0.1053
11944TIP3    H157247   1.382   6.677   2.746  2.0296  0.7357 -0.0537
11944TIP3    H257248   1.361   6.543   2.679 -0.6473 -0.0152  2.0712
11945TIP3   OH257249   0.499   0.994   3.092 -0.6986 -0.4301 -0.1226
11945TIP3    H157250   0.528   1.076   3.052 -0.5071 -0.1773  0.5301
11945TIP3    H257251   0.573   0.934   3.081  0.7942  0.6687  2.9410
11946TIP3   OH257252   1.181   6.505  13.557 -0.1222 -0.1822 -0.2813
11946TIP3    H157253   1.141   6.426  13.521 -0.8829  0.5553 -1.1134
11946TIP3    H257254   1.238   6.474  13.627  0.9460 -1.6383 -1.7329
11947TIP3   OH257255   4.151   4.335   4.098 -0.3509 -0.6007 -0.1239
11947TIP3    H157256   4.189   4.313   4.013 -2.0321 -2.0330 -0.5456
11947TIP3    H257257   4.223   4.374   4.147  1.0523 -1.1773 -1.6568
11948TIP3   OH257258   5.143   4.657  16.445  0.1194  0.3274 -0.3820
11948TIP3    H157259   5.160   4.577  16.395  2.5387  0.8616 -0.5405
11948TIP3    H257260   5.104   4.718  16.381  2.7470  0.8438 -1.6071
11949TIP3   OH257261   2.866   5.492   0.407  0.0434 -0.7476 -0.4365
11949TIP3    H157262   2.773   5.468   0.400  0.0439 -0.4281 -2.0404
11949TIP3    H257263   2.913   5.412   0.385  0.1143 -0.5115 -1.1647
11950TIP3   OH257264   5.503   5.876  15.624  0.2029 -0.3187  0.1702
11950TIP3    H157265   5.457   5.892  15.542 -1.5710  1.3764  1.3993
11950TIP3    H257266   5.509   5.962  15.665  1.3315 -1.0703  1.6938
11951TIP3   OH257267   4.584   1.558  10.719  0.2645 -0.0264  0.2896
11951TIP3    H157268   4.655   1.622  10.725  1.0157 -0.7905 -0.2013
11951TIP3    H257269   4.504   1.608  10.738  0.9131  0.8800  0.6793
11952TIP3   OH257270   1.983   0.481  16.128  0.5829  0.2310  0.6863
11952TIP3    H157271   1.947   0.393  16.119 -2.0810  1.3886 -1.5255
11952TIP3    H257272   2.072   0.468  16.163  0.8689 -3.4014 -0.9762
11953TIP3   OH257273   0.547   6.575   1.637  0.0058 -0.1756 -0.4011
11953TIP3    H157274   0.552   6.548   1.546  0.2441  0.0223 -0.4498
11953TIP3    H257275   0.486   6.649   1.637  0.3343  0.0962 -0.4675
11954TIP3   OH257276   1.683   2.806  13.652 -0.4855  0.2512 -0.3642
11954TIP3    H157277   1.640   2.878  13.698 -0.5394 -0.4944  0.7960
11954TIP3    H257278   1.668   2.730  13.707  3.3481  0.1254  0.7724
11955TIP3   OH257279   6.316   0.349  12.019 -0.1366  0.0317  0.4394
11955TIP3    H157280   6.229   0.355  12.058  0.1010  1.1178  0.8170
11955TIP3    H257281   6.305   0.290  11.945 -1.1190 -0.1013  0.6852
11956TIP3   OH257282   1.167   2.875   1.739 -0.7762  0.2052  0.6404
11956TIP3    H157283   1.235   2.943   1.734  0.3409 -0.8092  1.4608
11956TIP3    H257284   1.131   2.870   1.650  0.2180  0.7698  0.1899
11957TIP3   OH257285   3.602   0.969   0.438  0.1559 -0.2733  0.4961
11957TIP3    H157286   3.593   0.874   0.433 -0.5774 -0.2312  0.7574
11957TIP3    H257287   3.662   0.992   0.368  0.1572 -0.9102  0.2807
11958TIP3   OH257288   0.741   4.436   1.898 -0.0024  0.0230  0.7205
11958TIP3    H157289   0.786   4.513   1.932 -0.8419  0.5466  0.6844
11958TIP3    H257290   0.719   4.385   1.976 -0.0996  0.1908  0.8031
11959TIP3   OH257291   0.509   0.934   0.917 -0.3439  0.5047 -1.0090
11959TIP3    H157292   0.583   0.875   0.933 -1.1119 -0.7451 -1.8712
11959TIP3    H257293   0.516   0.957   0.825  0.3199  2.3443 -0.5323
11960TIP3   OH257294   2.665   3.531  11.293  0.0204  0.2549  0.6206
11960TIP3    H157295   2.617   3.496  11.367  0.2199  0.5982  0.9168
11960TIP3    H257296   2.605   3.524  11.219 -0.1675 -0.1135  0.8103
11961TIP3   OH257297   3.027   0.132   4.776  0.4349 -0.3661  0.0594
11961TIP3    H157298   2.974   0.196   4.729 -1.1054 -2.0584 -0.5928
11961TIP3    H257299   3.115   0.143   4.740 -0.0171  0.6651 -0.7710
11962TIP3   OH257300   3.859   2.738  13.559 -0.3621 -0.1865  0.0207
11962TIP3    H157301   3.927   2.676  13.535  1.2321  0.9679  1.3180
11962TIP3    H257302   3.777   2.695  13.534  0.8222 -1.5891 -1.6600
11963TIP3   OH257303   5.704   3.727  11.734  0.3028 -0.0252 -0.0391
11963TIP3    H157304   5.614   3.695  11.728  0.6524 -1.1780  0.5446
11963TIP3    H257305   5.696   3.822  11.746 -0.7524  0.3731 -3.0644
11964TIP3   OH257306   4.372   6.397   1.572  0.3763 -0.7680 -0.0091
11964TIP3    H157307   4.332   6.461   1.631 -1.7595 -0.9783 -1.1101
11964TIP3    H257308   4.450   6.441   1.538  0.4406  0.1815  1.2654
11965TIP3   OH257309   0.120   5.224  10.889 -0.0603  0.3418  0.0648
11965TIP3    H157310   0.179   5.149  10.891 -1.0136 -0.4371  0.1086
11965TIP3    H257311   0.089   5.228  10.798 -0.0074  0.6868  0.0597
11966TIP3   OH257312   4.649   4.715   4.212 -0.9227  0.7723 -0.1669
11966TIP3    H157313   4.611   4.802   4.221  0.9516  1.6497 -0.2248
11966TIP3    H257314   4.626   4.670   4.293 -1.3886  1.5489  0.1442
11967TIP3   OH257315   0.920   4.975   0.777  0.2003 -0.2880 -0.5797
11967TIP3    H157316   0.997   4.968   0.721  0.2298 -2.0997 -0.3431
11967TIP3    H257317   0.849   4.936   0.726  0.1286 -1.5202  0.4360
11968TIP3   OH257318   0.891   2.421   1.955  0.1009 -0.4479  0.4857
11968TIP3    H157319   0.843   2.346   1.990  0.6673 -0.5240  1.1118
11968TIP3    H257320   0.963   2.434   2.015  1.0540 -0.5173 -0.6064
11969TIP3   OH257321   2.336   1.084  15.545  0.3610 -0.1956 -0.1596
11969TIP3    H157322   2.370   1.095  15.634 -1.6278  0.6063  0.5399
11969TIP3    H257323   2.359   0.994  15.522  0.0765 -0.7302  1.5288
11970TIP3   OH257324   3.843   1.929  11.494  0.4160  0.4002 -0.1287
11970TIP3    H157325   3.902   1.983  11.546 -0.5799  1.3049  0.0975
11970TIP3    H257326   3.898   1.858  11.461  1.5509  1.0466  0.3218
11971TIP3   OH257327   3.144   0.755   1.102 -0.1109 -0.5194  0.3886
11971TIP3    H157328   3.118   0.814   1.173  1.0619  0.6257 -0.0836
11971TIP3    H257329   3.154   0.669   1.145 -0.8185 -0.1613  1.3022
11972TIP3   OH257330   6.366   3.748   0.736 -0.0705  0.1828  0.3865
11972TIP3    H157331   6.292   3.694   0.707 -0.4854  0.6548  0.5478
11972TIP3    H257332   6.351   3.833   0.695  0.8503  0.0402 -0.2795
11973TIP3   OH257333   5.340   3.029  11.031  0.2237  0.4290  0.7111
11973TIP3    H157334   5.434   3.042  11.041  0.5773  0.2218 -1.8674
11973TIP3    H257335   5.331   2.934  11.018 -0.3464  0.4580  0.8800
11974TIP3   OH257336   2.849   0.493  13.128  0.3387 -0.3826  0.9353
11974TIP3    H157337   2.765   0.539  13.129  0.5706  0.0886  2.6475
11974TIP3    H257338   2.833   0.415  13.182  0.7815 -0.6984  0.6119
11975TIP3   OH257339   4.311   3.028  14.504  0.4716  0.2265 -0.0020
11975TIP3    H157340   4.319   2.962  14.572 -0.0471  0.2004  0.0413
11975TIP3    H257341   4.401   3.052  14.482  0.6400  0.2838  0.7331
11976TIP3   OH257342   6.561   0.842   2.624 -0.3001 -0.2131 -0.3002
11976TIP3    H157343   6.643   0.848   2.673 -0.4602 -1.3629  0.1414
11976TIP3    H257344   6.581   0.785   2.549 -0.2780  0.8426 -1.1175
11977TIP3   OH257345   3.554   0.831   5.120 -0.1491 -0.1422  0.0963
11977TIP3    H157346   3.614   0.889   5.073 -0.0819  1.1567  1.7105
11977TIP3    H257347   3.610   0.769   5.165 -0.1692 -0.7305 -0.6703
11978TIP3   OH257348   1.530   1.096  14.009 -0.0898 -0.3135 -0.1020
11978TIP3    H157349   1.494   1.054  13.931 -1.3587 -0.6665  0.6522
11978TIP3    H257350   1.624   1.098  13.994 -0.2511 -1.0574 -1.3090
11979TIP3   OH257351   6.111   1.856  15.603 -0.3372  0.2185  0.1462
11979TIP3    H157352   6.091   1.764  15.588  0.7230 -0.3357  1.9086
11979TIP3    H257353   6.059   1.903  15.537 -0.6393 -1.6329 -0.9981
11980TIP3   OH257354   1.189   6.046   5.688  0.4406 -0.2638 -0.2192
11980TIP3    H157355   1.145   5.973   5.731 -0.5405  0.4524  0.0363
11980TIP3    H257356   1.218   6.101   5.761  1.6311 -0.6435 -0.3920
11981TIP3   OH257357   3.216   1.982   4.454 -0.2648  0.4506  0.4535
11981TIP3    H157358   3.132   1.981   4.501 -0.5067 -1.3601  0.0425
11981TIP3    H257359   3.246   1.891   4.456  0.4812  0.6061 -1.5565
11982TIP3   OH257360   1.149   5.974  16.392 -0.7803 -0.4162 -0.1381
11982TIP3    H157361   1.120   6.057  16.355  0.6111  0.5646  0.8514
11982TIP3    H257362   1.090   5.959  16.466  0.0141  0.6198  0.7422
11983TIP3   OH257363   5.296   5.687  14.823  0.1140 -0.1269  0.2635
11983TIP3    H157364   5.333   5.773  14.806 -1.8933  0.4605 -1.4680
11983TIP3    H257365   5.267   5.690  14.914 -0.6360  1.3289 -0.0007
11984TIP3   OH257366   5.295   5.139   1.802  0.5300 -0.3220  0.6481
11984TIP3    H157367   5.339   5.193   1.868  4.0868  0.1490 -1.8040
11984TIP3    H257368   5.320   5.049   1.823  1.7803 -0.1602 -0.0470
11985TIP3   OH257369   4.589   3.035  14.833 -0.2450 -0.1101  0.0262
11985TIP3    H157370   4.595   3.130  14.820  1.2513 -0.4684 -2.7647
11985TIP3    H257371   4.501   3.013  14.802  0.8533 -0.0171 -3.6750
11986TIP3   OH257372   1.621   5.079  16.097  0.4853 -0.4333  0.2894
11986TIP3    H157373   1.677   5.139  16.146 -0.7658  0.7084  0.4125
11986TIP3    H257374   1.651   5.086  16.007  0.4765  0.2441  0.3362
11987TIP3   OH257375   4.373   0.345   2.525 -0.4083  0.2011 -0.1014
11987TIP3    H157376   4.318   0.399   2.470  0.0093 -0.5134 -1.2547
11987TIP3    H257377   4.417   0.407   2.584 -1.7257  0.8581  0.2324
11988TIP3   OH257378   2.924   4.694  14.278  0.4925  0.7161  0.5245
11988TIP3    H157379   2.869   4.662  14.207  2.3473  1.6749 -1.4644
11988TIP3    H257380   2.897   4.785  14.290  0.2061  0.5661  1.0479
11989TIP3   OH257381   5.468   4.006   5.190 -0.1711  0.1714 -0.1692
11989TIP3    H157382   5.492   4.095   5.163  0.7564  0.0446  0.1655
11989TIP3    H257383   5.382   4.015   5.230  0.3959  1.1438  0.9058
11990TIP3   OH257384   1.686   4.192  16.281  0.0389  0.0960  0.0766
11990TIP3    H157385   1.722   4.177  16.369 -0.3324  0.5418  0.3115
11990TIP3    H257386   1.755   4.165  16.222  0.5787  0.4831  0.5181
11991TIP3   OH257387   2.567   4.787   4.529 -0.0742 -0.5127  0.1641
11991TIP3    H157388   2.604   4.869   4.497 -2.4067  0.5033 -0.0915
11991TIP3    H257389   2.494   4.768   4.470 -0.3611 -2.1166  0.9614
11992TIP3   OH257390   1.036   2.117  12.405 -0.3869 -0.2063 -0.1001
11992TIP3    H157391   1.093   2.109  12.329 -1.4092 -3.0101 -0.6956
11992TIP3    H257392   0.948   2.132  12.369 -1.0160 -2.3164  0.3794
11993TIP3   OH257393   1.176   2.585   5.158 -0.6974 -0.0545  0.6696
11993TIP3    H157394   1.120   2.661   5.174  0.1514  0.7276  0.0206
11993TIP3    H257395   1.130   2.535   5.091 -0.3234  0.9362 -0.3554
11994TIP3   OH257396   2.413   6.478   1.757  0.3609 -0.3076  0.0588
11994TIP3    H157397   2.422   6.498   1.664  2.5261  3.0960  0.8356
11994TIP3    H257398   2.349   6.542   1.790  1.8785  0.6073  1.3741
11995TIP3   OH257399   6.031   0.986   5.050  0.5112 -0.3907  0.5610
11995TIP3    H157400   6.083   1.059   5.083  2.0649 -1.2148  0.0453
11995TIP3    H257401   5.994   0.944   5.128 -0.6516  1.0958  0.8411
11996TIP3   OH257402   1.278   4.669  16.101  0.0480  0.2540 -0.1625
11996TIP3    H157403   1.361   4.637  16.066  1.0554  0.5951  1.7873
11996TIP3    H257404   1.291   4.671  16.196 -1.9886  0.9047  0.1487
11997TIP3   OH257405   5.127   4.936  15.686  0.1272  0.3126  0.4507
11997TIP3    H157406   5.210   4.894  15.663  1.3947  1.6510  2.3026
11997TIP3    H257407   5.088   4.877  15.750  0.4835  0.5140  0.8567
11998TIP3   OH257408   4.738   6.291  12.738  0.7349 -0.0820 -0.4994
11998TIP3    H157409   4.829   6.300  12.709  0.5248 -0.8510 -1.4371
11998TIP3    H257410   4.693   6.250  12.664 -0.3414  0.1132  0.0257
11999TIP3   OH257411   4.716   3.443   1.255  0.1797  1.3456 -0.2142
11999TIP3    H157412   4.765   3.520   1.228  0.2295  2.0020  1.6188
11999TIP3    H257413   4.625   3.470   1.253 -0.0019  0.6970 -1.8342
12000TIP3   OH257414   4.657   5.102  11.277 -0.7383  0.5418 -0.8638
12000TIP3    H157415   4.647   5.162  11.351 -0.9733 -0.2907 -0.2053
12000TIP3    H257416   4.739   5.056  11.294 -2.9507 -3.0421  1.4718
12001TIP3   OH257417   2.584   0.228   3.307  0.1080  0.3484 -0.3131
12001TIP3    H157418   2.575   0.248   3.214 -0.0275  1.0982 -0.1443
12001TIP3    H257419   2.553   0.307   3.351  0.1612 -0.0095  0.3681
12002TIP3   OH257420   4.739   0.324   4.036  0.1806 -0.3981 -0.4234
12002TIP3    H157421   4.672   0.268   4.076  0.9324 -0.5220  0.7159
12002TIP3    H257422   4.695   0.407   4.021 -0.3094 -0.5723  0.0363
12003TIP3   OH257423   4.399   4.397   2.536 -0.5159 -0.2141 -0.2689
12003TIP3    H157424   4.329   4.449   2.497 -0.7131  0.7349  1.2820
12003TIP3    H257425   4.381   4.307   2.508 -1.9206  0.1291 -0.4984
12004TIP3   OH257426   4.990   2.475  14.093  0.5649  0.3287  0.0349
12004TIP3    H157427   5.063   2.447  14.037 -0.5819  0.1017 -1.3933
12004TIP3    H257428   5.010   2.566  14.115  1.5113  0.1276  0.0570
12005TIP3   OH257429   3.742   1.145  11.843 -0.2545  0.0808  0.1890
12005TIP3    H157430   3.666   1.100  11.806  0.7168 -2.2435  0.8113
12005TIP3    H257431   3.724   1.150  11.937  1.1074 -2.2556  0.6425
12006TIP3   OH257432   5.091   1.322   4.725 -0.0172  0.1727 -0.1948
12006TIP3    H157433   5.067   1.292   4.637 -1.3774  0.8846 -0.0894
12006TIP3    H257434   5.043   1.264   4.784 -1.2987  1.3979  0.0250
12007TIP3   OH257435   6.166   0.204   3.401  0.2643  0.4335 -0.1440
12007TIP3    H157436   6.193   0.114   3.419  0.4858 -0.0559 -2.5584
12007TIP3    H257437   6.231   0.258   3.446  0.3572 -0.5835  1.0146
12008TIP3   OH257438   1.432   4.602   5.591  0.1029  0.2145 -0.2042
12008TIP3    H157439   1.343   4.637   5.598 -0.6292 -1.5852  0.0619
12008TIP3    H257440   1.479   4.666   5.537 -2.0192  0.0356 -2.4343
12009TIP3   OH257441   5.646   4.153   2.374 -0.0104  0.0653  0.1603
12009TIP3    H157442   5.729   4.140   2.327  0.8074  1.0292  1.2785
12009TIP3    H257443   5.616   4.065   2.395  1.9712 -0.2995  1.7928
12010TIP3   OH257444   1.469   4.501  11.983 -0.5394 -0.5292 -0.4508
12010TIP3    H157445   1.402   4.568  11.982 -0.4569 -0.4252  0.2757
12010TIP3    H257446   1.477   4.472  11.892 -0.0888  0.9182 -0.8880
12011TIP3   OH257447   1.420   5.068   4.025  0.0091 -0.1116 -0.3819
12011TIP3    H157448   1.493   5.077   4.087  1.1096  0.1249 -1.6562
12011TIP3    H257449   1.431   5.142   3.965 -1.4354  0.0582 -0.4636
12012TIP3   OH257450   5.063   3.687  14.167 -0.3249  0.2245  0.5414
12012TIP3    H157451   4.985   3.685  14.112  0.0363  1.4955 -0.0635
12012TIP3    H257452   5.114   3.611  14.138  0.4233  1.5224 -1.8267
12013TIP3   OH257453   4.841   1.523   3.722 -0.4649  0.6284 -0.7707
12013TIP3    H157454   4.748   1.522   3.697 -0.7337  2.7027 -0.0546
12013TIP3    H257455   4.856   1.436   3.759 -1.9458  0.0205 -1.4758
12014TIP3   OH257456   2.291   6.481  11.187 -1.3056 -0.0671  0.3200
12014TIP3    H157457   2.232   6.535  11.240  1.0118  1.3246  1.7115
12014TIP3    H257458   2.250   6.478  11.101 -1.3496  4.7188 -0.1308
12015TIP3   OH257459   6.409   2.667  14.912  0.0855  0.1350 -0.3769
12015TIP3    H157460   6.362   2.683  14.830 -0.3289 -0.4654 -0.2631
12015TIP3    H257461   6.463   2.745  14.924  1.5019 -0.4815 -2.1218
12016TIP3   OH257462   3.180   5.250   2.227 -0.2163 -0.5117  0.5259
12016TIP3    H157463   3.176   5.241   2.132  0.1061  0.2439  0.4320
12016TIP3    H257464   3.166   5.161   2.260 -1.5499 -0.5924 -0.1876
12017TIP3   OH257465   3.705   5.184  15.257 -0.9823  0.3944 -0.2779
12017TIP3    H157466   3.647   5.226  15.194 -2.4229  0.8055  1.2677
12017TIP3    H257467   3.737   5.256  15.311  2.8608  0.5578 -2.4037
12018TIP3   OH257468   2.105   2.363   2.681 -0.0708 -0.7371 -0.3079
12018TIP3    H157469   2.080   2.361   2.589 -2.7643 -1.7414  0.3477
12018TIP3    H257470   2.077   2.449   2.712  1.0612 -0.3024 -0.4513
12019TIP3   OH257471   5.396   2.430  14.170 -0.5000 -0.3801 -0.6785
12019TIP3    H157472   5.477   2.439  14.120 -0.6757  0.2554 -0.8516
12019TIP3    H257473   5.382   2.335  14.176  0.5867 -0.5256 -0.1121
12020TIP3   OH257474   0.500   2.594   2.894 -0.0461  0.9901  0.0432
12020TIP3    H157475   0.460   2.518   2.851  0.3650  0.1805  1.0560
12020TIP3    H257476   0.517   2.655   2.822  1.7969 -0.8275 -1.1675
12021TIP3   OH257477   6.708   1.748   6.022 -0.0427 -0.4104  0.3381
12021TIP3    H157478   6.622   1.789   6.010  1.0401  1.7228 -0.7243
12021TIP3    H257479   6.751   1.758   5.937  2.4968  1.6654  1.7423
12022TIP3   OH257480   4.170   4.626   3.978 -0.1049  0.0653  0.0530
12022TIP3    H157481   4.222   4.687   3.925 -0.1133 -0.3251 -0.4054
12022TIP3    H257482   4.138   4.561   3.916  0.0766 -0.5301  0.5731
12023TIP3   OH257483   0.788   3.477   3.509  0.1056 -0.6557 -0.3874
12023TIP3    H157484   0.844   3.473   3.586 -0.4274 -0.9486 -0.0092
12023TIP3    H257485   0.740   3.560   3.519 -0.4242 -0.9939 -0.0728
12024TIP3   OH257486   5.058   0.816   1.874  0.0276 -0.0736 -0.1539
12024TIP3    H157487   5.065   0.812   1.779  0.9776 -1.5732 -0.0544
12024TIP3    H257488   5.060   0.725   1.902 -1.1993  0.2901  1.2638
12025TIP3   OH257489   5.565   6.481   2.896 -0.4869 -0.0312  1.2902
12025TIP3    H157490   5.645   6.452   2.854 -0.4812  0.2504  1.0992
12025TIP3    H257491   5.499   6.478   2.826 -0.5758  0.0178  1.3717
12026TIP3   OH257492   6.333   6.001   1.730  0.2831 -0.3447 -0.6533
12026TIP3    H157493   6.426   5.985   1.744  0.1680  0.1249  0.7815
12026TIP3    H257494   6.308   6.061   1.801 -1.0266 -0.1710 -1.2389
12027TIP3   OH257495   0.857   4.313   0.732  0.5397  0.3443 -0.1252
12027TIP3    H157496   0.766   4.312   0.760  0.9227 -1.6261  1.2976
12027TIP3    H257497   0.854   4.306   0.637 -0.7972  0.3638 -0.0945
12028TIP3   OH257498   1.382   5.040   3.319  0.5485  0.2288 -0.1525
12028TIP3    H157499   1.354   5.132   3.321  1.7382  0.5960  0.4271
12028TIP3    H257500   1.319   4.998   3.260  0.3475  1.5403 -0.9374
12029TIP3   OH257501   0.414   3.786   5.660  0.5340  0.1226  0.2510
12029TIP3    H157502   0.319   3.790   5.655  0.5617 -0.0939 -0.9622
12029TIP3    H257503   0.444   3.867   5.619  0.8620 -0.5812 -0.9754
12030TIP3   OH257504   5.888   4.689   0.952 -0.0847  0.8010  0.1783
12030TIP3    H157505   5.942   4.610   0.952 -0.9154  0.2201 -0.0666
12030TIP3    H257506   5.903   4.729   0.867 -0.6318  0.2186 -0.1992
12031TIP3   OH257507   5.521   4.336  10.989 -0.6120  0.4131 -0.3051
12031TIP3    H157508   5.548   4.427  10.981  0.6402  0.0638 -0.2442
12031TIP3    H257509   5.572   4.302  11.063  0.8630 -0.9971 -1.8863
12032TIP3   OH257510   3.729   6.735   0.498  0.1153  0.4626 -0.1320
12032TIP3    H157511   3.780   6.661   0.465 -0.2373 -0.3543  1.0679
12032TIP3    H257512   3.790   6.784   0.553  0.2449  0.8444 -0.6159
12033TIP3   OH257513   0.520   3.270  10.702 -0.8313 -0.6929 -0.0595
12033TIP3    H157514   0.535   3.359  10.733 -0.7208  0.5147 -3.1527
12033TIP3    H257515   0.607   3.235  10.687 -0.8773 -0.4361 -0.9901
12034TIP3   OH257516   1.772   4.820   6.173 -0.4897  0.3827 -0.0491
12034TIP3    H157517   1.713   4.868   6.232 -1.4459 -0.0521 -0.6299
12034TIP3    H257518   1.857   4.861   6.186 -0.2369 -0.8647  2.9931
12035TIP3   OH257519   5.367   4.727   6.055  0.5406  0.3215  1.0244
12035TIP3    H157520   5.344   4.639   6.025  0.2147  0.1682  1.6941
12035TIP3    H257521   5.450   4.716   6.101 -0.3568  0.0179  2.6561
12036TIP3   OH257522   6.660   4.914   3.221  0.2184 -0.0610  0.0476
12036TIP3    H157523   6.749   4.902   3.189  0.6162  2.3141  0.0732
12036TIP3    H257524   6.619   4.828   3.213  2.5341 -1.2354  0.1433
12037TIP3   OH257525   4.916   0.841  14.501  0.1939  0.2763  0.2019
12037TIP3    H157526   4.965   0.793  14.567 -0.2015  0.6661  0.7867
12037TIP3    H257527   4.900   0.926  14.541  1.6684  1.2474 -1.1638
12038TIP3   OH257528   6.158   0.229  11.442  0.2642  0.2943  0.1845
12038TIP3    H157529   6.221   0.272  11.500  3.9857 -1.8037 -1.8651
12038TIP3    H257530   6.142   0.293  11.372  1.0902  0.4657  0.1423
12039TIP3   OH257531   2.630   2.866  14.383 -0.2061  0.0241 -0.1794
12039TIP3    H157532   2.542   2.829  14.380  0.0340 -0.5492 -0.5378
12039TIP3    H257533   2.644   2.902  14.295  0.4876 -1.3088 -0.6534
12040TIP3   OH257534   2.929   0.039   0.929  0.2938  0.2190  0.2440
12040TIP3    H157535   2.973   0.117   0.894 -0.4795  0.9898  0.9469
12040TIP3    H257536   2.839   0.067   0.943 -0.2421 -1.0873 -0.3744
12041TIP3   OH257537   4.035   4.650  13.115  0.0384  0.0882 -0.4504
12041TIP3    H157538   4.096   4.705  13.067 -1.1155  1.0882 -0.8361
12041TIP3    H257539   4.010   4.582  13.052  0.1555  0.1525 -0.5676
12042TIP3   OH257540   0.468   1.813  10.491  0.0517  0.3659 -0.4640
12042TIP3    H157541   0.425   1.778  10.569  1.2311  0.2754  0.1738
12042TIP3    H257542   0.497   1.900  10.516  3.1300 -0.7479  0.3221
12043TIP3   OH257543   3.584   1.476   3.446 -0.1153 -0.0809  0.7539
12043TIP3    H157544   3.507   1.434   3.408 -0.3330 -0.1606  1.2821
12043TIP3    H257545   3.562   1.488   3.538  0.7760 -0.7458  1.0658
12044TIP3   OH257546   3.895   2.545  16.011 -0.7008 -0.1496  0.0893
12044TIP3    H157547   3.968   2.501  16.054 -1.4380  1.2233  3.1061
12044TIP3    H257548   3.821   2.486  16.023 -0.2958 -1.3489 -2.5951
12045TIP3   OH257549   6.048   5.313   5.844 -0.3404  0.7218  0.4450
12045TIP3    H157550   6.115   5.329   5.777 -0.1690 -0.2263  0.3823
12045TIP3    H257551   6.072   5.229   5.883 -1.1220  0.6922  0.8821
12046TIP3   OH257552   5.770   3.934   1.823 -0.1851 -0.4028 -0.0776
12046TIP3    H157553   5.709   4.007   1.809  0.1399  0.0116  0.6141
12046TIP3    H257554   5.850   3.962   1.780  0.5935  0.5698  1.8796
12047TIP3   OH257555   0.912   2.223  15.604 -0.5214 -0.0928  0.1011
12047TIP3    H157556   0.822   2.190  15.607 -1.0250  1.3488  2.3231
12047TIP3    H257557   0.905   2.315  15.627  1.5639 -0.0303  0.6596
12048TIP3   OH257558   3.386   4.754  11.582  0.3168  0.0614  0.3827
12048TIP3    H157559   3.475   4.787  11.571 -0.0373  0.4821 -1.7935
12048TIP3    H257560   3.345   4.769  11.497 -2.2354  1.0498  1.6733
12049TIP3   OH257561   2.593   0.768   0.161 -0.1572  0.1694  0.6990
12049TIP3    H157562   2.518   0.824   0.142  1.4253  0.9918 -4.7692
12049TIP3    H257563   2.667   0.828   0.169  0.6115 -0.8641  1.8191
12050TIP3   OH257564   0.697   6.559  13.033  0.3206  0.0629 -0.0527
12050TIP3    H157565   0.684   6.646  13.071 -1.7790 -0.0784 -0.3073
12050TIP3    H257566   0.648   6.501  13.092 -3.1264 -0.1583 -2.8160
12051TIP3   OH257567   1.607   1.079   2.641  0.1064 -0.4737  0.0230
12051TIP3    H157568   1.592   0.993   2.602 -1.0656  0.0594 -0.7675
12051TIP3    H257569   1.521   1.121   2.641  0.7668  0.9465 -0.2142
12052TIP3   OH257570   4.579   4.278  11.727  0.0355 -0.0833 -0.0075
12052TIP3    H157571   4.550   4.191  11.754 -1.8936  0.5644  0.1535
12052TIP3    H257572   4.620   4.264  11.642  1.8795 -1.4536  1.0511
12053TIP3   OH257573   1.323   2.372  13.915  0.5712  0.3446  0.5011
12053TIP3    H157574   1.261   2.310  13.875 -0.0473  0.1335  1.7195
12053TIP3    H257575   1.298   2.457  13.880 -0.0509  0.1807  0.5333
12054TIP3   OH257576   2.970   5.494   1.563 -0.5958  0.3443 -0.1084
12054TIP3    H157577   3.025   5.537   1.499 -0.8933 -0.4615 -0.9258
12054TIP3    H257578   2.935   5.417   1.518  0.3582 -1.0850  1.4565
12055TIP3   OH257579   3.481   2.361  12.808  0.2207  0.2741 -0.3826
12055TIP3    H157580   3.469   2.361  12.713 -0.8301 -0.0327 -0.2613
12055TIP3    H257581   3.576   2.353  12.820  0.7581  3.4316 -1.4326
12056TIP3   OH257582   5.143   1.041  14.756  0.0021  0.3769  0.1240
12056TIP3    H157583   5.160   1.125  14.714  1.5376  0.4935  0.9130
12056TIP3    H257584   5.048   1.038  14.767 -0.3696  0.8311 -2.2711
12057TIP3   OH257585   4.537   6.228   2.694 -0.3610 -0.3616 -0.0190
12057TIP3    H157586   4.456   6.261   2.734 -1.5707 -0.0864 -2.4677
12057TIP3    H257587   4.557   6.148   2.743 -1.6992 -0.0459  1.1195
12058TIP3   OH257588   4.819   5.615   6.267 -0.0141  0.3938  0.0599
12058TIP3    H157589   4.760   5.682   6.302 -0.9618  0.1677 -1.0388
12058TIP3    H257590   4.881   5.664   6.213 -0.4672  0.4344 -0.4311
12059TIP3   OH257591   4.768   0.715  14.767  0.5654  0.9575  0.0768
12059TIP3    H157592   4.815   0.679  14.692 -0.6343 -0.4052 -0.0508
12059TIP3    H257593   4.738   0.639  14.816 -2.1972  1.7031 -0.2919
12060TIP3   OH257594   1.669   1.824   3.631 -0.9282 -0.1262 -0.0839
12060TIP3    H157595   1.755   1.861   3.611 -0.7976 -1.1981 -1.7621
12060TIP3    H257596   1.653   1.847   3.722  2.2356 -1.9927  1.0961
12061TIP3   OH257597   5.109   6.167   6.024  0.1634 -0.0392 -0.2194
12061TIP3    H157598   5.051   6.097   6.056 -0.7213  1.3437  1.3732
12061TIP3    H257599   5.052   6.222   5.970  0.8269 -0.4166 -1.3511
12062TIP3   OH257600   2.515   2.549  14.758 -0.5278  0.1512  0.0513
12062TIP3    H157601   2.529   2.527  14.850 -0.2518 -0.2510 -0.0792
12062TIP3    H257602   2.478   2.637  14.758  0.7464  0.7000  0.4867
12063TIP3   OH257603   5.219   0.173   0.392 -0.1504 -0.3498  0.9110
12063TIP3    H157604   5.195   0.130   0.474  0.6914 -1.6906  0.4950
12063TIP3    H257605   5.187   0.262   0.401 -1.3479 -0.8663  2.1135
12064TIP3   OH257606   3.021   3.328  13.207 -0.0239  0.1534 -0.2411
12064TIP3    H157607   3.096   3.285  13.248 -1.0686 -1.7428 -0.1984
12064TIP3    H257608   3.021   3.296  13.117 -1.3251 -0.6894  0.0298
12065TIP3   OH257609   4.290   0.911   1.399  0.6209 -0.3456 -0.2212
12065TIP3    H157610   4.302   0.817   1.409  3.2684 -0.1834 -1.0988
12065TIP3    H257611   4.265   0.923   1.307 -1.8322 -0.2872  0.3973
12066TIP3   OH257612   1.422   2.317   1.705 -0.0931  0.3246 -0.4261
12066TIP3    H157613   1.497   2.374   1.721  0.2181 -0.5465  1.4253
12066TIP3    H257614   1.401   2.332   1.613  1.0060  2.1646 -0.4305
12067TIP3   OH257615   1.144   5.821  16.137  0.0028  0.4867  0.0327
12067TIP3    H157616   1.206   5.787  16.073  1.0643  1.6705  0.3742
12067TIP3    H257617   1.058   5.810  16.096  0.2064 -2.7550  0.2546
12068TIP3   OH257618   6.509   4.156   1.065 -0.2144 -0.1554 -0.3310
12068TIP3    H157619   6.573   4.090   1.089 -1.6484 -1.2614  0.6020
12068TIP3    H257620   6.554   4.240   1.080  0.4323 -0.8682  2.0264
12069TIP3   OH257621   3.923   4.166   5.479 -0.0431  0.0578 -0.0567
12069TIP3    H157622   3.840   4.175   5.433 -0.0934  1.1738  0.2160
12069TIP3    H257623   3.990   4.179   5.412 -0.1151  2.0953  0.2078
12070TIP3   OH257624   5.313   3.621  13.942  0.1157  0.6190 -0.2103
12070TIP3    H157625   5.281   3.556  14.004  1.6334  0.4999  0.4863
12070TIP3    H257626   5.320   3.573  13.859  0.0016  0.2375 -0.0047
12071TIP3   OH257627   4.606   6.364  14.683  0.0687 -0.1972 -0.2075
12071TIP3    H157628   4.694   6.390  14.655  0.9670 -1.4019  1.3184
12071TIP3    H257629   4.551   6.380  14.607  1.7746 -0.3071 -1.5263
12072TIP3   OH257630   5.035   5.500   4.631 -0.3468  0.3563 -0.0091
12072TIP3    H157631   5.050   5.527   4.541 -3.3321 -0.1596 -0.7795
12072TIP3    H257632   5.022   5.581   4.679  0.9034  0.6203 -0.1028
12073TIP3   OH257633   5.791   5.250  14.480  0.3717  0.4071 -0.5640
12073TIP3    H157634   5.809   5.172  14.533  0.9191  1.3951  0.7888
12073TIP3    H257635   5.741   5.308  14.539  0.1698  1.1617 -1.4530
12074TIP3   OH257636   5.589   6.069   6.232  0.0583 -0.2404 -0.0550
12074TIP3    H157637   5.529   6.098   6.301 -0.3683  0.3683 -0.6666
12074TIP3    H257638   5.599   6.145   6.175  1.8080 -0.1762  0.2945
12075TIP3   OH257639   2.451   1.854  12.475  0.8524 -0.5554 -0.2283
12075TIP3    H157640   2.356   1.861  12.482  0.9546  1.8817 -0.2170
12075TIP3    H257641   2.483   1.875  12.563  1.4184 -1.0914 -0.2942
12076TIP3   OH257642   2.288   5.965  14.816 -0.3398 -0.0641  0.7642
12076TIP3    H157643   2.255   5.880  14.787  2.1477 -0.9640  0.3326
12076TIP3    H257644   2.255   6.027  14.750 -1.2261 -0.8624  0.4375
12077TIP3   OH257645   2.740   4.088  16.839 -0.3011 -0.0700 -0.2727
12077TIP3    H157646   2.744   4.043  16.923 -1.0246 -2.1184 -1.2405
12077TIP3    H257647   2.753   4.180  16.859  0.2565 -0.5910  1.9766
12078TIP3   OH257648   4.608   4.237  15.350  0.1707  0.4688  0.4364
12078TIP3    H157649   4.645   4.173  15.288 -0.0334  0.1039  0.6887
12078TIP3    H257650   4.677   4.302  15.360  0.0730  0.7203 -0.4496
12079TIP3   OH257651   5.737   4.885   0.442 -0.2221 -0.1850  0.0272
12079TIP3    H157652   5.713   4.977   0.429 -0.1610  0.5465  3.8918
12079TIP3    H257653   5.658   4.844   0.475  0.6406 -0.6110  1.6708
12080TIP3   OH257654   6.214   3.176   3.424  0.7458 -0.1560 -0.0246
12080TIP3    H157655   6.124   3.159   3.454  0.8430  0.3101  0.5309
12080TIP3    H257656   6.258   3.092   3.434  1.2815  0.3722  2.9359
12081TIP3   OH257657   1.126   6.767   2.141  0.2869 -0.4166  0.4247
12081TIP3    H157658   1.205   6.731   2.101  1.2407  0.0756  1.7841
12081TIP3    H257659   1.100   6.703   2.207 -1.3332 -1.2719 -0.9737
12082TIP3   OH257660   1.065   5.885   4.801 -0.0355  0.3510  0.0723
12082TIP3    H157661   0.997   5.845   4.854 -0.3009 -1.6079 -1.6210
12082TIP3    H257662   1.132   5.912   4.864 -1.0777 -0.2905  1.5139
12083TIP3   OH257663   2.182   4.477  14.464 -0.9216 -0.1056 -0.4720
12083TIP3    H157664   2.157   4.509  14.551 -1.2150  1.1198 -0.9906
12083TIP3    H257665   2.176   4.554  14.408 -1.8196 -1.1054 -1.8011
12084TIP3   OH257666   5.142   5.167   3.242 -0.3274 -0.5781 -0.4089
12084TIP3    H157667   5.080   5.110   3.195 -0.5416  0.0014 -0.8516
12084TIP3    H257668   5.226   5.123   3.234 -0.1689 -0.0466 -2.1938
12085TIP3   OH257669   5.609   3.479   6.288 -0.1956 -0.0307 -0.0199
12085TIP3    H157670   5.541   3.539   6.258  1.0127  0.7652 -1.2959
12085TIP3    H257671   5.620   3.418   6.215  1.1348  0.4728 -0.2724
12086TIP3   OH257672   2.064   3.270  14.257  0.3049  0.0407  0.6698
12086TIP3    H157673   2.151   3.287  14.221  0.5044 -2.5360 -0.2718
12086TIP3    H257674   2.011   3.343  14.225  1.0322 -0.8565 -2.9799
12087TIP3   OH257675   4.260   6.481   0.614  0.0486 -0.2192  0.1082
12087TIP3    H157676   4.321   6.409   0.634  0.4355 -0.0166 -0.3332
12087TIP3    H257677   4.301   6.558   0.655  0.6169  0.1139 -1.0516
12088TIP3   OH257678   1.101   3.829  13.329  0.0905  0.5149  0.8128
12088TIP3    H157679   1.125   3.831  13.236  2.1104  0.5605  1.2950
12088TIP3    H257680   1.157   3.762  13.367 -0.4437  0.7626  2.0745
12089TIP3   OH257681   2.855   2.615  13.405 -0.2836  0.5555  0.4650
12089TIP3    H157682   2.844   2.524  13.434 -1.1696  1.0342  1.6899
12089TIP3    H257683   2.926   2.610  13.341  0.3615 -0.8596  1.2253
12090TIP3   OH257684   4.023   1.042  11.910 -0.1036  0.1520 -0.3003
12090TIP3    H157685   4.053   0.955  11.935 -0.3757  0.0240 -0.4251
12090TIP3    H257686   3.930   1.044  11.933 -0.3313  0.0735 -1.1665
12091TIP3   OH257687   1.730   4.791  13.923 -0.5236 -1.0057 -0.2017
12091TIP3    H157688   1.818   4.786  13.885 -0.7793 -0.1692 -0.9391
12091TIP3    H257689   1.671   4.769  13.851 -0.9657 -0.6073  0.0310
12092TIP3   OH257690   2.376   1.955   1.966  0.4457 -0.4987 -0.0219
12092TIP3    H157691   2.460   1.981   2.002  0.4062  0.0417 -0.3122
12092TIP3    H257692   2.398   1.900   1.891  0.5279 -1.3179  0.5897
12093TIP3   OH257693   1.256   0.340  10.816  0.1223 -0.1925 -0.0552
12093TIP3    H157694   1.162   0.360  10.812 -0.1736 -1.1684  1.1995
12093TIP3    H257695   1.271   0.282  10.741 -0.1043  0.5594 -0.6965
12094TIP3   OH257696   0.206   5.334   5.727 -0.7323 -0.1306 -0.6604
12094TIP3    H157697   0.258   5.379   5.794 -2.1768  0.9230 -0.1986
12094TIP3    H257698   0.252   5.251   5.713  2.0324  1.4213 -1.5432
12095TIP3   OH257699   6.515   4.067  15.059  0.1514  0.2615 -0.5761
12095TIP3    H157700   6.490   4.001  15.124  0.5890  0.3149 -0.3517
12095TIP3    H257701   6.502   4.023  14.975 -0.4788  0.2123 -0.4609
12096TIP3   OH257702   2.443   1.108  11.278  0.0969 -0.1816 -0.4034
12096TIP3    H157703   2.498   1.160  11.220  0.5542 -0.7382 -0.4808
12096TIP3    H257704   2.360   1.100  11.231  0.2921 -0.1920 -0.7520
12097TIP3   OH257705   1.561   0.431  14.973 -0.2601  0.5874 -0.1604
12097TIP3    H157706   1.643   0.461  15.011  1.4999 -0.9599 -2.5211
12097TIP3    H257707   1.563   0.463  14.883 -2.0201  0.0370 -0.4319
12098TIP3   OH257708   0.337   3.744   2.578  0.2294  0.2289  0.0239
12098TIP3    H157709   0.418   3.699   2.601 -0.0007  0.6912  1.9327
12098TIP3    H257710   0.269   3.676   2.587 -0.2193  0.9481  3.6434
12099TIP3   OH257711   0.859   1.797   0.759  0.2613 -0.4602  0.1186
12099TIP3    H157712   0.800   1.764   0.827  1.2989 -2.0044  0.3140
12099TIP3    H257713   0.800   1.829   0.690 -0.8090 -1.3315  0.6045
12100TIP3   OH257714   2.565   0.191  14.212 -0.5914  0.0712 -0.1127
12100TIP3    H157715   2.508   0.158  14.143 -1.0497 -0.7336  0.6143
12100TIP3    H257716   2.508   0.247  14.265 -0.2764  0.5825 -0.3070
12101TIP3   OH257717   1.646   5.274   0.364  0.4926 -0.1426 -0.2516
12101TIP3    H157718   1.619   5.259   0.455  1.1969  0.3127  0.0398
12101TIP3    H257719   1.682   5.190   0.335 -2.0026 -1.0621 -0.9558
12102TIP3   OH257720   2.974   1.530   3.897 -0.7262 -0.2880  0.4813
12102TIP3    H157721   2.952   1.437   3.887 -1.3922  0.0086 -1.1389
12102TIP3    H257722   2.892   1.576   3.878 -0.0771  0.6670 -0.0803
12103TIP3   OH257723   5.948   1.929   2.408 -0.9276  0.2989  0.2667
12103TIP3    H157724   5.907   1.854   2.365 -2.0723  0.5440  0.8971
12103TIP3    H257725   5.931   2.003   2.349 -0.2636  0.1763 -0.0918
12104TIP3   OH257726   6.501   0.934  16.687  0.3581  0.3812 -0.2974
12104TIP3    H157727   6.561   0.862  16.670  0.2952  0.7204 -2.1980
12104TIP3    H257728   6.417   0.892  16.704  0.7659 -0.0408  0.7339
12105TIP3   OH257729   5.046   0.052  13.578  0.0681 -0.0870 -0.0264
12105TIP3    H157730   5.139   0.030  13.568  0.8443  1.7906  2.1708
12105TIP3    H257731   5.044   0.148  13.579 -1.6403 -0.0773  1.5118
12106TIP3   OH257732   0.004   0.802  16.830 -0.7372  0.8736  0.7568
12106TIP3    H157733   0.075   0.810  16.767 -1.8773 -1.5508 -0.9769
12106TIP3    H257734  -0.037   0.889  16.831  2.4743  2.5452  2.2946
12107TIP3   OH257735   2.796   0.267   2.748  0.1987 -0.3913 -0.0661
12107TIP3    H157736   2.804   0.234   2.837 -1.3485  1.3527  0.7955
12107TIP3    H257737   2.717   0.225   2.714  0.4323 -0.5743 -0.3828
12108TIP3   OH257738   4.423   5.509   2.309  0.3992 -0.1717  0.0549
12108TIP3    H157739   4.342   5.471   2.275  0.3786 -0.9920  0.9806
12108TIP3    H257740   4.487   5.494   2.239  0.4769 -2.2786  0.5081
12109TIP3   OH257741   6.674   3.757   0.500 -0.0834  0.1309  0.2707
12109TIP3    H157742   6.751   3.717   0.459  0.6180 -0.0822  1.7170
12109TIP3    H257743   6.692   3.851   0.500  0.4429  0.0427  1.0684
12110TIP3   OH257744   4.789   6.613  10.759 -0.5117  0.0297 -0.4997
12110TIP3    H157745   4.879   6.632  10.784 -1.2900  2.8875  0.3943
12110TIP3    H257746   4.775   6.662  10.678 -0.5478 -2.5620 -2.2110
12111TIP3   OH257747   2.553   3.952  15.657 -0.1430 -0.0796 -0.4131
12111TIP3    H157748   2.585   3.972  15.745  1.9518  0.9415 -1.3404
12111TIP3    H257749   2.564   3.857  15.649 -0.1894 -0.1608  0.3426
12112TIP3   OH257750   4.610   4.042  12.397  0.0115 -0.3342 -0.0518
12112TIP3    H157751   4.667   4.062  12.323  1.3598 -0.2503  0.9655
12112TIP3    H257752   4.638   4.102  12.466 -1.0326 -0.5876  0.6198
12113TIP3   OH257753   5.238   1.293  14.640  0.7116 -0.6261  0.3614
12113TIP3    H157754   5.203   1.382  14.636 -1.3033 -1.3855 -2.8415
12113TIP3    H257755   5.333   1.304  14.643  0.4947  1.6092  0.2822
12114TIP3   OH257756   0.639   4.955   0.698  0.6635 -0.0461  0.9562
12114TIP3    H157757   0.571   5.017   0.671  1.5392  1.5972  2.3368
12114TIP3    H257758   0.600   4.907   0.772 -0.2216 -1.6262 -0.4657
12115TIP3   OH257759   5.009   5.979   2.617 -0.2554  0.1867 -0.4299
12115TIP3    H157760   4.964   6.018   2.692  0.3740  1.0195 -0.4728
12115TIP3    H257761   5.100   6.006   2.627  0.3398 -1.7723 -0.1476
12116TIP3   OH257762   0.736   0.588   3.066  0.5220  0.1136  0.6724
12116TIP3    H157763   0.711   0.496   3.055  0.1017  0.3470 -0.4644
12116TIP3    H257764   0.814   0.598   3.011 -1.6306  1.3230 -2.4363
12117TIP3   OH257765   3.234   3.629  16.058  0.4275 -0.2018  0.0635
12117TIP3    H157766   3.257   3.546  16.100 -0.1050 -1.1044 -1.3345
12117TIP3    H257767   3.234   3.609  15.964  1.1600  1.6123 -0.3794
12118TIP3   OH257768   1.898   1.242  11.618  1.1458  0.1110  0.3020
12118TIP3    H157769   1.925   1.261  11.708 -0.0068  0.6763  0.5559
12118TIP3    H257770   1.828   1.178  11.627 -0.4312  1.6884 -0.0019
12119TIP3   OH257771   1.975   5.952   0.530 -0.1141 -0.4525  0.4717
12119TIP3    H157772   1.930   5.991   0.605  1.5175  1.4858  0.5055
12119TIP3    H257773   2.013   5.871   0.564  0.1084  0.1050  1.5780
12120TIP3   OH257774   2.929   3.499  11.854  0.4159 -0.0991 -0.6227
12120TIP3    H157775   2.857   3.546  11.810 -0.7349 -1.5968 -0.4389
12120TIP3    H257776   2.916   3.408  11.828 -1.9400 -1.6537  4.6352
12121TIP3   OH257777   5.327   2.235   0.154 -0.2478 -0.2406  0.4711
12121TIP3    H157778   5.247   2.257   0.202 -0.3732  0.5236 -0.0621
12121TIP3    H257779   5.389   2.303   0.179 -0.1210 -0.1941  0.0357
12122TIP3   OH257780   3.996   5.045  12.692  0.6289 -0.1508  0.1434
12122TIP3    H157781   4.067   5.029  12.630  0.0874 -2.5159  0.0565
12122TIP3    H257782   4.033   5.017  12.777  0.1355 -0.4822  0.2509
12123TIP3   OH257783   1.508   2.834   1.274  0.5788 -0.0353 -0.1932
12123TIP3    H157784   1.446   2.778   1.321 -1.3316  2.3033  0.2546
12123TIP3    H257785   1.469   2.846   1.188  1.4599 -0.1442 -0.6187
12124TIP3   OH257786   6.095   3.960   1.064 -0.0954  0.3360  0.5730
12124TIP3    H157787   6.149   4.037   1.045  0.7589 -0.3313  0.2300
12124TIP3    H257788   6.101   3.906   0.986  0.3933 -0.6904  1.2959
12125TIP3   OH257789   3.154   1.878  13.674 -0.5120 -0.5707 -0.4848
12125TIP3    H157790   3.177   1.791  13.641  2.1191 -0.3205  0.4634
12125TIP3    H257791   3.063   1.891  13.646  0.1355 -2.1088 -3.7784
12126TIP3   OH257792   2.393   0.735  16.649 -0.1672 -0.4497 -0.3554
12126TIP3    H157793   2.436   0.792  16.713 -0.6506  0.0459 -0.4639
12126TIP3    H257794   2.321   0.788  16.615 -0.7623 -1.2119 -0.2932
12127TIP3   OH257795   0.532   6.696   5.827 -0.1242 -0.2556  0.0045
12127TIP3    H157796   0.564   6.682   5.738  0.2915 -1.0063  0.2679
12127TIP3    H257797   0.563   6.784   5.850 -1.4934  0.5693 -1.1163
12128TIP3   OH257798   5.747   5.911   1.893 -0.3112 -0.0745 -0.2657
12128TIP3    H157799   5.662   5.870   1.879  0.5419 -1.4035 -1.8163
12128TIP3    H257800   5.798   5.887   1.816  1.1120  1.6692  0.0826
12129TIP3   OH257801   2.159   5.851  13.329 -1.1768 -0.3524  0.3575
12129TIP3    H157802   2.101   5.915  13.371  1.4979  1.2364  1.9341
12129TIP3    H257803   2.194   5.898  13.253  0.8457  0.2079  1.5570
12130TIP3   OH257804   3.611   2.433   0.954 -0.1785 -0.3273 -0.2170
12130TIP3    H157805   3.620   2.500   1.022 -0.3055 -0.2963 -0.2296
12130TIP3    H257806   3.637   2.477   0.873  0.4448 -0.5058 -0.1170
12131TIP3   OH257807   0.996   1.991   0.601 -0.1072  0.3971  0.4240
12131TIP3    H157808   0.992   2.063   0.664  0.5201 -1.0783  2.2548
12131TIP3    H257809   0.949   1.919   0.644  1.7345 -1.1617 -0.0246
12132TIP3   OH257810   4.441   3.214   1.186  0.2839 -0.5683  0.3840
12132TIP3    H157811   4.436   3.309   1.176 -1.7606 -0.6600 -0.0252
12132TIP3    H257812   4.524   3.189   1.145  1.8555  1.2046  2.3051
12133TIP3   OH257813   4.390   2.032  12.468 -0.4087  0.3083  0.1491
12133TIP3    H157814   4.415   1.940  12.459  0.4691  0.5400  0.1417
12133TIP3    H257815   4.402   2.050  12.561  1.6691  1.0242 -0.2075
12134TIP3   OH257816   5.531   0.327   2.492 -0.3553  0.0682 -0.2430
12134TIP3    H157817   5.453   0.327   2.546 -0.7722 -0.8423 -0.8146
12134TIP3    H257818   5.587   0.395   2.530 -1.6171  1.0780 -0.1178
12135TIP3   OH257819   1.104   4.532   6.535 -0.4213  0.3424  0.2219
12135TIP3    H157820   1.147   4.617   6.531  1.2506 -0.4818 -0.1493
12135TIP3    H257821   1.150   4.479   6.470 -1.6427 -0.7728  0.2195
12136TIP3   OH257822   4.561   1.177   4.417  0.1231 -0.0391  0.3494
12136TIP3    H157823   4.523   1.138   4.338 -0.1724 -0.1831  0.5586
12136TIP3    H257824   4.654   1.184   4.398  0.6171 -3.0332  1.1431
12137TIP3   OH257825   1.691   2.934  11.107  0.4818 -0.2927  0.2164
12137TIP3    H157826   1.667   3.016  11.063  0.5671 -0.2000  0.3429
12137TIP3    H257827   1.665   2.866  11.045 -0.6458 -0.2269  0.5857
12138TIP3   OH257828   6.566   3.536   6.359  0.3538  0.0911 -0.3392
12138TIP3    H157829   6.514   3.457   6.367  0.9511 -0.1602  1.6944
12138TIP3    H257830   6.642   3.510   6.307  1.1968 -1.0976  1.3811
12139TIP3   OH257831   6.011   2.532  16.677 -0.3011 -0.1173 -0.1902
12139TIP3    H157832   6.086   2.574  16.718  0.5582 -0.4283 -1.3778
12139TIP3    H257833   6.019   2.554  16.584 -1.1016 -1.0220 -0.4925
12140TIP3   OH257834   0.339   5.073  15.673 -0.2811 -0.2367  0.3839
12140TIP3    H157835   0.429   5.104  15.681 -0.5686  0.8948 -0.4294
12140TIP3    H257836   0.292   5.117  15.743 -0.5009  0.4490 -0.1800
12141TIP3   OH257837   3.469   3.390  11.103  0.2368  0.5450 -0.0201
12141TIP3    H157838   3.488   3.464  11.046  0.5172  1.9819  1.8427
12141TIP3    H257839   3.504   3.416  11.188 -2.7025 -0.2189  1.5620
12142TIP3   OH257840   0.319   4.249  11.837  0.2694 -0.0919 -0.0107
12142TIP3    H157841   0.381   4.177  11.827 -0.4203 -0.6556 -0.3276
12142TIP3    H257842   0.329   4.301  11.757  1.1447  0.4727  0.4554
12143TIP3   OH257843   0.503   1.493  14.811  0.8048  0.5709  0.2861
12143TIP3    H157844   0.515   1.557  14.881  0.8875  0.8916 -0.0154
12143TIP3    H257845   0.420   1.517  14.771 -0.2498 -0.8267  1.5181
12144TIP3   OH257846   2.087   4.554  16.159  0.2323 -0.1763 -0.2418
12144TIP3    H157847   2.060   4.485  16.098 -1.4613  0.8985 -0.7518
12144TIP3    H257848   2.115   4.626  16.103 -1.3437  0.8230  0.1955
12145TIP3   OH257849   0.196   2.429   5.016  0.4392 -0.4389 -0.6110
12145TIP3    H157850   0.152   2.485   5.079 -0.7778 -1.8383 -0.1384
12145TIP3    H257851   0.126   2.374   4.980  1.4438 -1.1046 -1.6367
12146TIP3   OH257852   1.315   4.968   3.061  0.3607 -0.5755 -0.1254
12146TIP3    H157853   1.264   4.994   2.984 -0.9107 -0.0469  0.8482
12146TIP3    H257854   1.404   4.999   3.043  0.6768 -2.4630 -2.3413
12147TIP3   OH257855   3.335   5.289   0.587  0.0613  0.0508 -0.0180
12147TIP3    H157856   3.366   5.313   0.499  0.8313 -0.0670  0.2069
12147TIP3    H257857   3.249   5.250   0.573  0.7922 -1.3509 -0.9021
12148TIP3   OH257858   2.569   5.863  15.430  0.0613 -0.3543  0.1178
12148TIP3    H157859   2.624   5.803  15.380  0.4848  1.1087 -1.2573
12148TIP3    H257860   2.538   5.811  15.504 -0.5424 -2.5969 -1.6060
12149TIP3   OH257861   3.990   4.518   0.107  0.2482 -0.7970 -0.3569
12149TIP3    H157862   3.999   4.439   0.160  0.3544 -1.1533 -0.8925
12149TIP3    H257863   4.046   4.502   0.031  2.0780  0.7233  0.5820
12150TIP3   OH257864   0.102   5.646  12.080 -0.0456 -0.3347 -0.8016
12150TIP3    H157865   0.062   5.675  12.162 -2.5377 -0.3037 -1.9490
12150TIP3    H257866   0.119   5.726  12.032 -1.7431 -0.4634 -1.6710
12151TIP3   OH257867   4.044   4.580  13.378  0.1061  0.3305 -0.2325
12151TIP3    H157868   4.131   4.615  13.398 -0.4375  1.4475  0.2943
12151TIP3    H257869   4.025   4.612  13.290 -0.0440  0.6901 -0.0753
12152TIP3   OH257870   5.535   5.354  12.777  0.6795 -0.1736 -0.3876
12152TIP3    H157871   5.524   5.349  12.872  0.0105  0.2557 -0.4330
12152TIP3    H257872   5.582   5.436  12.763 -0.4071  0.4423 -0.5052
12153TIP3   OH257873   4.793   2.700   0.681  0.7565 -0.4172 -0.1290
12153TIP3    H157874   4.755   2.706   0.593 -0.6854 -0.9894  0.4312
12153TIP3    H257875   4.887   2.713   0.667  0.7030 -1.5675 -1.8962
12154TIP3   OH257876   3.904   0.216  11.767  0.2528 -0.1088  0.0852
12154TIP3    H157877   3.851   0.258  11.835 -1.8621 -1.0913 -0.8793
12154TIP3    H257878   3.890   0.269  11.689  1.3329  0.0560 -0.0107
12155TIP3   OH257879   2.518   6.084   0.816 -0.0294  0.2566 -0.2078
12155TIP3    H157880   2.430   6.055   0.792 -0.5417  0.8129  0.9228
12155TIP3    H257881   2.574   6.051   0.745 -0.6909 -2.5587  0.4407
12156TIP3   OH257882   5.445   5.508   5.719 -0.5534  0.2138  1.1949
12156TIP3    H157883   5.353   5.485   5.733 -0.7664  0.9358  0.9901
12156TIP3    H257884   5.444   5.600   5.692  0.0630 -0.3275 -0.8605
12157TIP3   OH257885   0.994   1.171   4.445  0.0036 -0.0244 -0.5726
12157TIP3    H157886   0.925   1.110   4.470  0.2467  0.1923  0.6742
12157TIP3    H257887   0.973   1.252   4.490  1.2233 -0.0513  0.0881
12158TIP3   OH257888   2.071   5.550   4.541  0.0780 -0.2284 -0.0750
12158TIP3    H157889   2.109   5.492   4.475 -1.2832 -1.1121 -0.1398
12158TIP3    H257890   1.977   5.529   4.538 -0.4664  2.0204 -0.1291
12159TIP3   OH257891   3.286   2.314   1.831 -0.2347  0.1206  0.3775
12159TIP3    H157892   3.306   2.226   1.863 -0.0287 -0.3303 -0.9326
12159TIP3    H257893   3.196   2.330   1.860  0.0562 -0.0983  1.4763
12160TIP3   OH257894   0.646   1.052   1.198  0.1235 -0.2996 -0.1762
12160TIP3    H157895   0.646   1.132   1.251  3.0759 -0.9033  0.9672
12160TIP3    H257896   0.562   1.010   1.218 -0.7716  1.6729  0.4990
12161TIP3   OH257897   5.332   5.531  10.624 -0.3342  0.3673  0.1619
12161TIP3    H157898   5.419   5.491  10.628 -0.3980  0.2379  0.2448
12161TIP3    H257899   5.348   5.624  10.640 -0.2975  0.2372  0.9034
12162TIP3   OH257900   2.184   2.119   0.813  0.0221 -0.0671  0.5749
12162TIP3    H157901   2.130   2.040   0.810  1.1568 -0.8549 -1.5531
12162TIP3    H257902   2.121   2.191   0.802 -0.8892 -0.7483  1.1753
12163TIP3   OH257903   6.515   3.714   2.344  0.3105 -0.2796  0.4017
12163TIP3    H157904   6.522   3.693   2.437  1.2032  0.4757  0.5200
12163TIP3    H257905   6.447   3.781   2.339  1.2367  0.6999  0.6957
12164TIP3   OH257906   4.622   6.473  13.241  0.1718  0.7323 -0.0637
12164TIP3    H157907   4.550   6.520  13.283 -2.4671 -3.1452  0.3269
12164TIP3    H257908   4.588   6.451  13.154  1.2248 -0.3668 -0.2335
12165TIP3   OH257909   0.612   0.892   4.102  0.4798 -0.0940  0.0481
12165TIP3    H157910   0.591   0.958   4.036  0.1753  1.2261  1.4091
12165TIP3    H257911   0.566   0.813   4.073  1.0573  0.1707 -1.7497
12166TIP3   OH257912   4.753   1.247  10.584 -0.0983  0.2531 -0.0441
12166TIP3    H157913   4.837   1.237  10.628 -0.2539 -0.5603  0.0778
12166TIP3    H257914   4.754   1.182  10.514 -0.3581  0.6924 -0.4676
12167TIP3   OH257915   4.881   0.709  12.287  0.0421  0.1964  0.4660
12167TIP3    H157916   4.815   0.775  12.308  0.2417  0.9767 -1.1556
12167TIP3    H257917   4.841   0.657  12.218  0.7973  0.1695  0.0360
12168TIP3   OH257918   4.581   5.663   3.300  0.8649 -0.5507  0.2398
12168TIP3    H157919   4.545   5.716   3.370  0.5453 -0.1073 -0.2524
12168TIP3    H257920   4.673   5.650   3.324  0.8732 -0.0084  0.5049
12169TIP3   OH257921   1.541   4.131  13.396  0.0475  0.4165  0.2126
12169TIP3    H157922   1.531   4.061  13.332  0.9251  1.8911 -1.6489
12169TIP3    H257923   1.452   4.148  13.427 -0.4388 -0.2134 -0.7816
12170TIP3   OH257924   1.791   4.098   1.159 -0.2982  0.4756  0.3541
12170TIP3    H157925   1.803   4.005   1.177 -1.6546  0.2635  0.2169
12170TIP3    H257926   1.854   4.142   1.218  0.7279 -0.5260  0.0354
12171TIP3   OH257927   5.478   5.390  15.571 -0.7547  0.7733 -0.4234
12171TIP3    H157928   5.553   5.334  15.592  0.2826  1.4547 -2.1482
12171TIP3    H257929   5.402   5.340  15.602  0.4332  1.2946  4.0841
12172TIP3   OH257930   6.604   6.240  15.210  0.2459 -0.3886  0.1283
12172TIP3    H157931   6.611   6.160  15.263  0.1595 -1.3727 -1.2807
12172TIP3    H257932   6.640   6.215  15.125  0.6321  1.2235 -0.2136
12173TIP3   OH257933   5.621   4.991   5.616 -0.2395  0.9278  0.3561
12173TIP3    H157934   5.536   4.976   5.658  0.6718 -1.3858  1.5602
12173TIP3    H257935   5.669   5.046   5.678  0.7031 -1.5659  1.9784
12174TIP3   OH257936   4.564   0.222   3.183  0.4565  0.4997  0.0186
12174TIP3    H157937   4.655   0.193   3.191  0.3551  0.2601  0.3176
12174TIP3    H257938   4.543   0.209   3.090  0.3423 -0.6074  0.1862
12175TIP3   OH257939   2.732   4.022  13.856 -0.1453 -0.1497 -0.5872
12175TIP3    H157940   2.681   4.021  13.937 -0.0875  0.1315 -0.5456
12175TIP3    H257941   2.823   4.015  13.885 -0.1829 -1.1643 -0.6864
12176TIP3   OH257942   1.640   4.810  12.340 -0.0654 -0.2354 -0.5026
12176TIP3    H157943   1.575   4.760  12.290 -2.0140  1.2854  0.3905
12176TIP3    H257944   1.724   4.785  12.301 -1.2885 -1.0233 -2.8278
12177TIP3   OH257945   0.568   4.980   5.086  0.2143 -0.1124 -0.7038
12177TIP3    H157946   0.624   5.004   5.012  1.3808  0.1234  0.2228
12177TIP3    H257947   0.523   4.901   5.057  0.8494 -0.1794 -1.5626
12178TIP3   OH257948   3.603   0.127  14.337 -0.2563 -0.4494 -0.4741
12178TIP3    H157949   3.552   0.157  14.262  2.0966  0.3133 -1.8723
12178TIP3    H257950   3.631   0.039  14.313 -0.1561 -0.5128 -0.1230
12179TIP3   OH257951   2.973   3.964  11.502 -0.3960 -0.4028 -0.2272
12179TIP3    H157952   2.916   3.944  11.577 -1.2160  0.3283 -0.6224
12179TIP3    H257953   2.926   4.034  11.456  1.4419  1.1349  0.1281
12180TIP3   OH257954   0.534   2.236  16.216  0.8977 -0.5181  0.1116
12180TIP3    H157955   0.505   2.277  16.298  1.7080 -1.0016  0.6553
12180TIP3    H257956   0.551   2.309  16.157 -1.5881 -0.1956 -0.3213
12181TIP3   OH257957   5.898   2.126   5.389  0.5343  0.2182 -0.6679
12181TIP3    H157958   5.874   2.073   5.464  2.4501 -0.0060 -0.1564
12181TIP3    H257959   5.919   2.063   5.320  1.3358  0.3240 -0.5372
12182TIP3   OH257960   4.661   3.062   1.091 -0.7848 -0.3288  0.3343
12182TIP3    H157961   4.606   2.997   1.136 -1.7519  0.3628  0.1907
12182TIP3    H257962   4.710   3.011   1.027 -0.7881 -1.0553  0.8899
12183TIP3   OH257963   0.252   4.364   0.910 -0.3902  0.0681  0.3076
12183TIP3    H157964   0.223   4.455   0.908  0.5086  0.3490 -0.7070
12183TIP3    H257965   0.237   4.332   0.821 -1.4203 -1.0259  0.8465
12184TIP3   OH257966   5.200   0.747  12.711 -0.1307 -0.4124  0.2188
12184TIP3    H157967   5.210   0.836  12.744 -1.2697 -0.4432  0.7080
12184TIP3    H257968   5.289   0.713  12.706  0.1674 -0.0620  2.3220
12185TIP3   OH257969   4.011   4.080   2.174  0.1211 -0.1688 -0.8300
12185TIP3    H157970   4.074   4.044   2.237 -1.2341 -2.6285 -0.7389
12185TIP3    H257971   3.940   4.114   2.228  0.3699  0.6162 -0.9856
12186TIP3   OH257972   4.386   0.397   2.083 -0.2534  0.3680  0.1188
12186TIP3    H157973   4.429   0.479   2.062  0.8411  0.2531  1.7922
12186TIP3    H257974   4.375   0.353   1.998  2.0648  0.8286 -0.4744
12187TIP3   OH257975   0.053   1.380   2.172 -0.3241 -0.1525  0.0849
12187TIP3    H157976   0.114   1.311   2.201  1.4476  0.8259 -1.1214
12187TIP3    H257977   0.051   1.442   2.245 -2.0106 -1.4321  1.2260
12188TIP3   OH257978   6.175   2.822   5.413 -0.0296 -0.3653 -0.2223
12188TIP3    H157979   6.190   2.892   5.476 -1.3629 -0.8578  0.7113
12188TIP3    H257980   6.190   2.742   5.463 -0.1749 -0.7620 -0.8022
12189TIP3   OH257981   2.735   3.844   0.340  0.1370  0.0173 -0.5064
12189TIP3    H157982   2.753   3.826   0.432 -0.6082 -0.4723 -0.4505
12189TIP3    H257983   2.711   3.937   0.338  4.6419  1.4126 -0.8868
12190TIP3   OH257984   5.909   4.357   4.693  0.7769  0.4685  0.5868
12190TIP3    H157985   5.987   4.353   4.638  1.2140  1.7184  1.0760
12190TIP3    H257986   5.912   4.445   4.732 -0.9262  0.5896  0.5345
12191TIP3   OH257987   2.394   1.002   0.664  0.2077 -0.2773 -0.4104
12191TIP3    H157988   2.403   0.933   0.598 -0.8514  0.0355 -0.9046
12191TIP3    H257989   2.306   1.037   0.651  1.6734  3.3406 -2.3419
12192TIP3   OH257990   0.968   5.933  16.583  0.2054  0.5928 -0.2348
12192TIP3    H157991   0.976   6.028  16.591 -0.7234  0.5735  1.2252
12192TIP3    H257992   1.001   5.899  16.666 -0.6829 -0.2748 -0.2171
12193TIP3   OH257993   1.075   2.929  16.988 -0.1729  0.2232  0.8885
12193TIP3    H157994   1.026   2.849  16.969  1.0965  0.0552 -2.2927
12193TIP3    H257995   1.150   2.900  17.039  0.4379 -0.7048 -0.5053
12194TIP3   OH257996   1.184   2.750  15.316  0.0986 -0.7336 -0.3231
12194TIP3    H157997   1.182   2.670  15.264  1.5059 -1.9112  1.2987
12194TIP3    H257998   1.173   2.721  15.407 -0.0075  0.9745  0.2597
12195TIP3   OH257999   0.129   1.230  13.818  0.0807 -0.8686  0.6973
12195TIP3    H158000   0.046   1.276  13.834  0.7576  1.3309 -1.4117
12195TIP3    H258001   0.192   1.272  13.876  0.5613  0.5404 -0.7675
12196TIP3   OH258002   3.761   1.773   5.350  0.2774  0.0904 -0.0780
12196TIP3    H158003   3.757   1.846   5.289 -0.7460 -0.7372 -1.0598
12196TIP3    H258004   3.767   1.695   5.294 -0.4966 -0.6864  0.8768
12197TIP3   OH258005   3.937   2.259   0.230 -0.0553  0.2760  0.4801
12197TIP3    H158006   4.016   2.218   0.265 -0.3607  0.4078  1.3580
12197TIP3    H258007   3.933   2.345   0.274  0.2003  0.9621 -0.8045
12198TIP3   OH258008   6.271   0.543  16.269  0.2171  0.2829 -0.0043
12198TIP3    H158009   6.249   0.635  16.257 -0.0454  0.1744 -0.3840
12198TIP3    H258010   6.202   0.496  16.222  1.3407 -0.0497 -1.3991
12199TIP3   OH258011   4.760   4.815   2.869 -0.0457 -0.4005  0.0220
12199TIP3    H158012   4.743   4.761   2.946  3.0096  0.3329  1.3289
12199TIP3    H258013   4.692   4.883   2.872 -2.0394 -2.2750  0.0569
12200TIP3   OH258014   4.537   6.055  13.167 -0.7743 -0.1446  0.5357
12200TIP3    H158015   4.559   6.072  13.075  0.0136  1.1593  0.9331
12200TIP3    H258016   4.551   5.961  13.178  2.6674  0.2195  0.1965
12201TIP3   OH258017   3.171   1.408  16.263  0.4275 -0.3109 -0.1275
12201TIP3    H158018   3.123   1.474  16.313  1.0731 -1.3552  1.9745
12201TIP3    H258019   3.261   1.439  16.263  0.4928 -0.4968 -0.3855
12202TIP3   OH258020   5.073   2.017  17.067 -0.3168  0.3403  0.3727
12202TIP3    H158021   5.084   2.095  17.121 -0.6421  0.8924 -0.3450
12202TIP3    H258022   4.979   2.000  17.067 -0.6021  1.5889 -1.6863
12203TIP3   OH258023   6.399   4.997   3.900 -0.2486 -0.2072  0.3957
12203TIP3    H158024   6.325   5.007   3.960 -0.1390  0.3186  0.4411
12203TIP3    H258025   6.358   4.991   3.813 -0.3855 -0.6361  0.4851
12204TIP3   OH258026   2.834   3.448   2.913 -0.0580 -0.3523 -0.0792
12204TIP3    H158027   2.773   3.379   2.938 -0.2396 -0.8668 -1.8350
12204TIP3    H258028   2.785   3.529   2.927 -1.1690 -0.7524 -1.3907
12205TIP3   OH258029   4.445   1.088  16.961  0.0668 -0.5460 -0.2889
12205TIP3    H158030   4.462   1.089  16.867  0.4429  0.4353 -0.2272
12205TIP3    H258031   4.532   1.100  17.001 -0.3553  1.7220  0.1049
12206TIP3   OH258032   5.478   1.701   5.602  0.1011  0.0698 -0.5923
12206TIP3    H158033   5.495   1.754   5.524 -0.0942 -1.0063 -1.3828
12206TIP3    H258034   5.467   1.765   5.672 -0.2006  1.0757 -1.5332
12207TIP3   OH258035   3.741   1.765   4.263  0.0355 -0.3792  0.6696
12207TIP3    H158036   3.659   1.736   4.303  0.6719 -1.9192  0.9380
12207TIP3    H258037   3.715   1.809   4.182 -1.0397 -1.0125  0.6542
12208TIP3   OH258038   0.596   4.617  17.194  0.2597 -0.2703 -0.6474
12208TIP3    H158039   0.614   4.543  17.136  2.7287 -0.8220  0.6935
12208TIP3    H258040   0.665   4.680  17.175  0.3693  0.0804  0.8056
12209TIP3   OH258041   3.505   0.301   3.399 -0.3670  0.2939  0.8042
12209TIP3    H158042   3.423   0.324   3.356  0.0554  1.1555  0.4402
12209TIP3    H258043   3.526   0.378   3.453  0.8179  0.5976 -0.0565
12210TIP3   OH258044   6.069   6.521   6.450 -0.0443 -0.3752  0.3105
12210TIP3    H158045   6.160   6.537   6.474 -0.1559  0.1625  0.3871
12210TIP3    H258046   6.029   6.486   6.530 -0.4762  1.6500  1.0391
12211TIP3   OH258047   4.010   1.644   4.526 -0.5596  0.2039  0.0001
12211TIP3    H158048   3.922   1.614   4.551 -0.4175  1.0246  1.6451
12211TIP3    H258049   4.061   1.637   4.607  0.9504 -0.4066 -0.9596
12212TIP3   OH258050   1.680   3.277  17.029  0.1958  0.1203 -0.4030
12212TIP3    H158051   1.594   3.274  17.072  0.8349 -0.6050  0.9094
12212TIP3    H258052   1.676   3.354  16.972 -1.3332  0.0680 -0.4028
12213TIP3   OH258053   6.548   0.331   3.367 -0.1181 -0.0198  0.5996
12213TIP3    H158054   6.537   0.242   3.334 -0.9849 -0.3864  1.7995
12213TIP3    H258055   6.466   0.350   3.412  0.4111  1.0467  1.1525
12214TIP3   OH258056   1.393   2.102   6.143 -0.0923  0.4876 -0.0387
12214TIP3    H158057   1.417   2.049   6.067  0.0611  0.1239  0.2615
12214TIP3    H258058   1.441   2.064   6.216 -0.7868  0.3857  0.3813
12215TIP3   OH258059   2.272   0.000  16.960  0.8065 -0.0142  0.6416
12215TIP3    H158060   2.332  -0.071  16.939  1.5670  0.4517  1.1685
12215TIP3    H258061   2.308   0.076  16.914 -0.8060 -0.2490 -1.1184
12216TIP3   OH258062   4.597   5.570  16.528 -0.2462 -0.2315 -0.2304
12216TIP3    H158063   4.584   5.532  16.441  0.2421 -1.0968  0.0729
12216TIP3    H258064   4.540   5.518  16.585  0.3730 -0.4693  0.1733
12217TIP3   OH258065   5.998   1.884   2.906 -0.1434  0.3485 -0.3554
12217TIP3    H158066   6.014   1.794   2.878  0.5841  0.9464 -1.9722
12217TIP3    H258067   5.927   1.914   2.850 -1.8170  0.1868  1.5471
12218TIP3   OH258068   6.420   4.675   1.756 -0.3785  0.0390  0.1560
12218TIP3    H158069   6.333   4.637   1.765 -0.0721 -0.6491  0.3480
12218TIP3    H258070   6.456   4.634   1.677 -0.2490  0.3586  0.0485
12219TIP3   OH258071   4.754   4.292  16.158 -0.3787 -0.4117  0.0164
12219TIP3    H158072   4.720   4.356  16.095 -1.6489 -0.1551  0.9329
12219TIP3    H258073   4.725   4.207  16.125 -2.2762 -0.1739  0.9566
12220TIP3   OH258074   5.277   3.530  16.925 -0.0971  0.3900 -0.3719
12220TIP3    H158075   5.205   3.586  16.896 -0.5312 -0.2571 -0.5600
12220TIP3    H258076   5.256   3.509  17.016 -1.8092 -2.3003 -1.2749
12221TIP3   OH258077   5.218   3.506   3.987  0.2750  0.3314 -0.5156
12221TIP3    H158078   5.174   3.487   4.069 -0.1183  1.8088 -0.3742
12221TIP3    H258079   5.310   3.482   4.003 -0.2435 -1.9963 -0.5648
12222TIP3   OH258080   5.166   5.706  13.228 -0.2623  0.9056 -0.1765
12222TIP3    H158081   5.137   5.681  13.140  0.3196  0.2077 -0.1841
12222TIP3    H258082   5.137   5.634  13.284  0.8036  0.5270 -0.0771
12223TIP3   OH258083   2.060   2.808   4.908 -0.6559 -0.2416 -0.2586
12223TIP3    H158084   1.965   2.812   4.898 -0.6939  1.2205  0.4032
12223TIP3    H258085   2.075   2.817   5.002  0.1082 -1.7689 -0.2088
12224TIP3   OH258086   5.175   0.077  11.649  0.0373  0.1011  0.9743
12224TIP3    H158087   5.238   0.021  11.694 -0.8906 -1.0679  0.8823
12224TIP3    H258088   5.095   0.024  11.645 -0.4286  0.8574 -0.4717
12225TIP3   OH258089   2.287   4.072   1.286 -0.3923 -0.0178 -0.1379
12225TIP3    H158090   2.305   4.080   1.192 -0.0923 -0.3846 -0.1108
12225TIP3    H258091   2.288   3.978   1.303  0.1714  0.0749  0.3588
12226TIP3   OH258092   1.300   1.656   2.345  0.6558  0.1624  0.1166
12226TIP3    H158093   1.284   1.690   2.433  1.7861 -2.7375  1.5924
12226TIP3    H258094   1.218   1.614   2.320  0.1306  1.5331 -0.5298
12227TIP3   OH258095   3.853   4.516   0.748  0.3638 -0.0813  0.4316
12227TIP3    H158096   3.759   4.537   0.746  0.4695  0.7600  2.3954
12227TIP3    H258097   3.857   4.424   0.720 -0.7981  0.4237 -1.6360
12228TIP3   OH258098   5.021   4.445   3.283 -0.0082 -0.1592 -0.2617
12228TIP3    H158099   5.107   4.409   3.260  0.2579  0.8704 -0.9524
12228TIP3    H258100   4.974   4.371   3.321  0.6886 -1.1137 -1.1770
12229TIP3   OH258101   3.392   0.273  12.358 -0.0396 -0.3677  0.3518
12229TIP3    H158102   3.365   0.254  12.268  0.0223 -1.5704  0.5687
12229TIP3    H258103   3.413   0.366  12.358  0.7492 -0.5227 -1.0842
12230TIP3   OH258104   3.444   2.729  11.433  0.1305 -0.1117 -0.0354
12230TIP3    H158105   3.413   2.648  11.474 -0.0463 -0.5003 -0.9149
12230TIP3    H258106   3.453   2.791  11.506  0.7597 -1.0644  0.7217
12231TIP3   OH258107   2.171   3.023  15.101  0.2105 -0.4438  0.0667
12231TIP3    H158108   2.146   2.935  15.128 -2.2036 -0.2162 -1.1438
12231TIP3    H258109   2.088   3.066  15.080  1.1749  2.5490  1.7598
12232TIP3   OH258110   5.955   1.588  11.662 -0.0501 -0.0920 -0.1346
12232TIP3    H158111   6.038   1.541  11.668  0.2023 -0.0704 -2.4344
12232TIP3    H258112   5.889   1.523  11.686  0.4553 -0.9538 -1.0086
12233TIP3   OH258113   4.884   0.938   4.482  0.2209  0.1955 -0.4847
12233TIP3    H158114   4.964   0.898   4.447  0.1492 -1.5911  1.2184
12233TIP3    H258115   4.826   0.946   4.406  1.4752  0.1615 -1.4784
12234TIP3   OH258116   2.290   3.916   4.058 -0.5028 -0.0564  0.1154
12234TIP3    H158117   2.326   3.909   3.969 -1.6607 -1.1352 -0.2894
12234TIP3    H258118   2.356   3.875   4.114 -1.4631 -2.9635 -0.7418
12235TIP3   OH258119   3.399   5.062  11.832  0.3558 -0.2536 -0.4331
12235TIP3    H158120   3.360   4.997  11.890  0.0190 -0.4427 -0.8625
12235TIP3    H258121   3.420   5.136  11.889 -2.0216  0.4836 -0.3956
12236TIP3   OH258122   3.615   4.753  17.312  0.2835  0.0267 -0.4018
12236TIP3    H158123   3.531   4.713  17.335  0.2048  0.0031 -0.7160
12236TIP3    H258124   3.602   4.785  17.223  0.3689  0.6943 -0.1766
12237TIP3   OH258125   1.459   1.315  13.857  0.4038  0.6078 -0.1705
12237TIP3    H158126   1.488   1.296  13.768 -1.3125  0.3392 -0.7168
12237TIP3    H258127   1.539   1.324  13.908  1.3964 -0.6052 -1.4645
12238TIP3   OH258128   2.684   5.248   0.031  0.8380  0.3358 -0.3504
12238TIP3    H158129   2.620   5.210  -0.030  0.2105  0.3893  0.2622
12238TIP3    H258130   2.719   5.325  -0.015 -1.8141  2.1635  0.4838
12239TIP3   OH258131   5.237   6.764   2.824 -0.2677  0.0108  0.1680
12239TIP3    H158132   5.311   6.709   2.796 -1.6664 -0.7722 -2.2937
12239TIP3    H258133   5.225   6.743   2.916  1.3637 -1.2894  0.1340
12240TIP3   OH258134   2.916   5.872  13.167  0.0223 -0.3521  0.3805
12240TIP3    H158135   2.909   5.968  13.163 -1.7022 -0.4837 -1.5975
12240TIP3    H258136   2.952   5.854  13.253  1.7131  2.1244  0.2920
12241TIP3   OH258137   4.214   3.521   3.127 -0.1010 -0.4417 -0.0866
12241TIP3    H158138   4.162   3.446   3.158 -1.4497 -0.1613 -1.4834
12241TIP3    H258139   4.281   3.534   3.193 -0.9568 -1.7535  1.0908
12242TIP3   OH258140   5.149   1.681   6.530 -0.0860  0.0587  0.4683
12242TIP3    H158141   5.077   1.719   6.478  0.8819  0.3186 -0.7249
12242TIP3    H258142   5.223   1.678   6.469  0.9869  0.0204  1.7405
12243TIP3   OH258143   6.126   3.067   1.667 -0.2759 -0.2872 -0.1867
12243TIP3    H158144   6.154   3.117   1.591  0.7943  1.1910  1.0882
12243TIP3    H258145   6.205   3.019   1.694 -0.6799 -0.9069 -0.0942
12244TIP3   OH258146   0.380   0.281  15.567  0.2380  0.2591 -0.1711
12244TIP3    H158147   0.408   0.338  15.495 -1.6488 -0.5169 -1.6197
12244TIP3    H258148   0.285   0.274  15.556 -0.0363 -0.2987  2.1319
12245TIP3   OH258149   2.395   5.797  13.472 -0.4298 -0.3604  0.2420
12245TIP3    H158150   2.420   5.888  13.457  2.9503 -0.7968  2.2690
12245TIP3    H258151   2.317   5.785  13.418 -0.4923  3.4331 -0.8205
12246TIP3   OH258152   6.618   2.528   5.342  0.6367  0.4470  0.4568
12246TIP3    H158153   6.572   2.610   5.359  2.7243  1.4069  1.9618
12246TIP3    H258154   6.626   2.487   5.429 -0.1601 -1.2810 -0.2408
12247TIP3   OH258155   5.719   5.461  14.642 -0.0835 -0.0992 -0.3451
12247TIP3    H158156   5.625   5.457  14.624  0.2266  0.6393 -2.4506
12247TIP3    H258157   5.728   5.531  14.707 -1.0279 -0.6528  0.4131
12248TIP3   OH258158   4.127   1.887   0.289  0.4458  0.4111  1.0419
12248TIP3    H158159   4.039   1.884   0.253  0.6321  0.3342  0.5849
12248TIP3    H258160   4.184   1.868   0.215  0.7808 -1.0289  1.6172
12249TIP3   OH258161   4.982   6.489  16.192  0.6238 -0.3137 -0.0019
12249TIP3    H158162   4.891   6.512  16.172  0.8809  0.3195 -0.4942
12249TIP3    H258163   4.994   6.516  16.283  0.2215 -0.7289  0.1812
12250TIP3   OH258164   5.495   2.152  10.996  0.1312  0.2089 -0.5322
12250TIP3    H158165   5.506   2.073  11.049  0.2717  1.0018  0.6784
12250TIP3    H258166   5.434   2.206  11.047  0.2713  0.9994 -1.1866
12251TIP3   OH258167   1.617   1.854  17.169  0.2699 -0.6612 -0.6348
12251TIP3    H158168   1.592   1.919  17.104 -3.1897  0.0909  1.1971
12251TIP3    H258169   1.535   1.808  17.189  1.7740 -2.7759  1.1346
12252TIP3   OH258170   4.374   4.745   2.087  0.0645 -0.1557 -0.3648
12252TIP3    H158171   4.308   4.804   2.050 -1.2442 -1.9665 -1.0643
12252TIP3    H258172   4.359   4.662   2.043 -0.7874 -2.1723  3.3345
12253TIP3   OH258173   4.821   2.938  10.934 -0.3726 -0.1917 -0.6335
12253TIP3    H158174   4.827   2.846  10.907  0.9099  0.0753 -1.3051
12253TIP3    H258175   4.909   2.960  10.965 -0.9591  0.4871  0.6186
12254TIP3   OH258176   5.539   0.850  12.226 -0.1593  0.3619 -0.6033
12254TIP3    H158177   5.450   0.837  12.258 -0.2953  0.4768 -0.9264
12254TIP3    H258178   5.571   0.927  12.272  0.8583 -1.3229  1.7634
12255TIP3   OH258179   1.765   4.672  12.882  0.3022 -0.2231 -0.1931
12255TIP3    H158180   1.807   4.754  12.908 -0.3257 -0.1589  0.6818
12255TIP3    H258181   1.769   4.672  12.786  0.9948  0.4567 -0.1719
12256TIP3   OH258182   1.501   0.843   0.767  0.3254  0.2854  0.0268
12256TIP3    H158183   1.415   0.865   0.801 -0.2874  0.5287 -1.5858
12256TIP3    H258184   1.501   0.877   0.677  1.7239 -0.5916 -0.3434
12257TIP3   OH258185   4.911   3.554   4.656 -0.2771 -0.4169  0.5149
12257TIP3    H158186   4.907   3.467   4.618 -1.3085  0.0464 -0.4830
12257TIP3    H258187   4.989   3.594   4.616 -1.5892  0.2210 -1.5566
12258TIP3   OH258188   6.441   5.039   6.766 -1.0530 -0.4498 -0.3349
12258TIP3    H158189   6.391   5.029   6.686  0.6117 -0.9368 -1.3730
12258TIP3    H258190   6.417   4.964   6.820 -0.9881 -1.0180 -1.0825
12259TIP3   OH258191   1.838   2.562   4.152 -0.1956 -0.4882  0.0400
12259TIP3    H158192   1.765   2.623   4.141 -0.7090 -1.1659 -0.3928
12259TIP3    H258193   1.912   2.607   4.112  0.1751  1.1311  2.3103
12260TIP3   OH258194   2.233   4.593  16.411  0.9098  0.5209 -0.3045
12260TIP3    H158195   2.301   4.592  16.344  0.1896 -0.2193 -1.0502
12260TIP3    H258196   2.151   4.599  16.363  0.2870 -1.4488  0.3908
12261TIP3   OH258197   4.604   3.154  16.798  0.2889  0.0394 -0.1835
12261TIP3    H158198   4.602   3.212  16.722  2.1028  0.7754  0.2815
12261TIP3    H258199   4.541   3.193  16.859  0.1861  0.5093 -0.5825
12262TIP3   OH258200   3.111   6.406  16.849 -0.0259  0.4353  0.6635
12262TIP3    H158201   3.070   6.398  16.935 -1.8927 -1.0827 -0.2974
12262TIP3    H258202   3.052   6.360  16.790  0.1805  3.0326 -1.8035
12263TIP3   OH258203   4.088   2.833  10.598  0.2381 -0.4049 -0.2349
12263TIP3    H158204   4.102   2.794  10.685  0.0790  0.1452  0.0395
12263TIP3    H258205   4.002   2.801  10.570 -0.1641  0.2168  0.2529
12264TIP3   OH258206   6.153   1.399   0.451 -0.3657  0.0319  0.0020
12264TIP3    H158207   6.228   1.340   0.446 -0.2815  0.2114 -1.2560
12264TIP3    H258208   6.156   1.436   0.539  0.7494 -0.3256  0.1205
12265TIP3   OH258209   6.731   2.083  11.618 -0.4805 -0.3501  0.1066
12265TIP3    H158210   6.778   2.149  11.668  3.2579 -1.5191 -1.4927
12265TIP3    H258211   6.723   2.008  11.677 -0.6260 -0.0424  0.4800
12266TIP3   OH258212   1.570   0.503   5.498  0.3461  0.3866  0.2633
12266TIP3    H158213   1.600   0.412   5.503  0.8231  0.6071  1.8328
12266TIP3    H258214   1.491   0.506   5.552  1.7823  1.4236  2.4414
12267TIP3   OH258215   2.906   3.165  12.180  0.5621 -0.3094 -0.0754
12267TIP3    H158216   2.907   3.185  12.274  0.4312 -0.2310 -0.0900
12267TIP3    H258217   2.986   3.205  12.146  0.7260 -0.5378  0.0449
12268TIP3   OH258218   0.434   2.406   0.615 -0.2705 -0.3630  0.0758
12268TIP3    H158219   0.351   2.359   0.609 -1.4273  1.4676  0.7832
12268TIP3    H258220   0.409   2.495   0.641  2.0417 -0.2399  2.2689
12269TIP3   OH258221   6.173   2.730  15.947  0.2554 -0.3138  0.4785
12269TIP3    H158222   6.162   2.647  15.901 -0.9019  0.5756 -0.9653
12269TIP3    H258223   6.267   2.742  15.954  0.4581 -0.9346 -0.8948
12270TIP3   OH258224   3.680   1.697  15.013  0.0474  0.3069  0.6978
12270TIP3    H158225   3.606   1.741  15.056  0.0928 -0.2839  1.3959
12270TIP3    H258226   3.646   1.611  14.989  0.0190  0.6306 -0.4863
12271TIP3   OH258227   1.662   6.227   5.957  0.5986  0.6646 -0.1621
12271TIP3    H158228   1.638   6.135   5.961  0.0273  0.7751 -0.8017
12271TIP3    H258229   1.743   6.233   6.008 -0.3565  0.1545  1.4903
12272TIP3   OH258230   1.620   2.323   2.687  0.4174 -0.5365 -0.5246
12272TIP3    H158231   1.595   2.265   2.759 -1.1257  0.6407 -0.0642
12272TIP3    H258232   1.594   2.275   2.608  0.2300 -0.9691 -0.2077
12273TIP3   OH258233   6.154   2.707   3.753  0.7289  0.1547 -0.6325
12273TIP3    H158234   6.079   2.648   3.761  0.5031  0.5749  0.5852
12273TIP3    H258235   6.214   2.679   3.823  2.6102 -1.3843 -2.7024
12274TIP3   OH258236   3.643   1.736   2.458 -0.1159  0.0368  0.0612
12274TIP3    H158237   3.738   1.729   2.457 -0.0061  1.2842  0.5451
12274TIP3    H258238   3.619   1.730   2.551 -0.4123  0.7586  0.0381
12275TIP3   OH258239   3.883   4.602  15.443  0.2481 -0.5652  0.6411
12275TIP3    H158240   3.944   4.652  15.496 -0.9106 -0.0983  1.5912
12275TIP3    H258241   3.803   4.655  15.442 -0.1114 -1.0948 -0.6585
12276TIP3   OH258242   3.674   6.487   1.900 -0.0108  0.9030 -0.3141
12276TIP3    H158243   3.618   6.489   1.823 -0.4458 -0.0538 -0.0315
12276TIP3    H258244   3.662   6.399   1.936  1.0525  0.9636  0.2059
12277TIP3   OH258245   5.480   0.746   3.864  0.2780  0.0438 -0.2257
12277TIP3    H158246   5.557   0.777   3.816  0.2498  1.1094  0.3720
12277TIP3    H258247   5.410   0.805   3.837  0.1980  0.4836  0.8721
12278TIP3   OH258248   5.801   3.228  17.212 -0.2090  0.0965 -0.4957
12278TIP3    H158249   5.835   3.140  17.229 -1.6698 -0.4100 -0.0782
12278TIP3    H258250   5.875   3.286  17.232  0.8819 -1.0305 -1.1027
12279TIP3   OH258251   3.955   1.722  15.780 -0.5942  0.3629  0.1145
12279TIP3    H158252   3.900   1.659  15.735 -1.0736  0.4251  0.6087
12279TIP3    H258253   4.015   1.754  15.713 -0.1469 -0.8301 -0.0776
12280TIP3   OH258254   1.911   1.041   4.150 -0.1342 -0.1174  0.1167
12280TIP3    H158255   2.003   1.015   4.148  0.1974  0.9794  0.5030
12280TIP3    H258256   1.912   1.135   4.132 -1.3752 -0.4701 -2.3398
12281TIP3   OH258257   1.025   0.395   1.187  0.5356  0.2770  0.1894
12281TIP3    H158258   1.042   0.489   1.191  2.3224 -0.0424  1.8478
12281TIP3    H258259   1.063   0.367   1.104 -2.2380  1.3300 -1.5461
12282TIP3   OH258260   0.037   1.431  14.088 -0.3391  0.4779  0.1258
12282TIP3    H158261   0.100   1.429  14.160  1.3809  2.6433 -1.1825
12282TIP3    H258262   0.086   1.466  14.014 -2.5884  0.3687 -1.5285
12283TIP3   OH258263   6.718   1.424  14.514 -0.3470 -0.2690  0.1077
12283TIP3    H158264   6.687   1.430  14.423 -0.2955 -0.7007  0.0617
12283TIP3    H258265   6.672   1.348  14.550  0.7771 -1.0297 -0.0132
12284TIP3   OH258266   0.761   1.298   2.606  0.2365 -0.2659  0.2386
12284TIP3    H158267   0.711   1.335   2.534  2.2031  0.5430 -0.7972
12284TIP3    H258268   0.784   1.373   2.661  0.0588 -0.6662  0.8709
12285TIP3   OH258269   5.681   3.143  13.292  0.0830  0.2444 -0.3070
12285TIP3    H158270   5.730   3.184  13.220  2.3091  1.3568  1.7181
12285TIP3    H258271   5.632   3.214  13.332  1.0252  0.2396  0.9223
12286TIP3   OH258272   6.534   0.898   1.556  0.5594 -0.2975 -0.7314
12286TIP3    H158273   6.452   0.879   1.600  0.9932  1.4547  1.0201
12286TIP3    H258274   6.516   0.883   1.464 -0.9345 -2.4193 -0.1629
12287TIP3   OH258275   6.055   3.971  16.725  0.1975  0.1555 -0.0269
12287TIP3    H158276   6.089   4.018  16.649  1.4077 -0.1353  0.3135
12287TIP3    H258277   6.105   4.005  16.799 -0.0003 -0.5462  0.4433
12288TIP3   OH258278   2.028   4.685   2.818  0.6801  0.5199  0.0975
12288TIP3    H158279   2.082   4.763   2.829  1.1457  0.6230 -2.4373
12288TIP3    H258280   2.014   4.654   2.907  1.6371  2.6960  1.0900
12289TIP3   OH258281   1.856   5.329  12.759 -0.3455 -0.2012 -0.5248
12289TIP3    H158282   1.924   5.319  12.825 -2.2991 -2.0295  1.4149
12289TIP3    H258283   1.822   5.417  12.773  2.0851  1.0746 -2.1227
12290TIP3   OH258284   6.702   6.259  12.482 -0.0699 -0.0195  0.6122
12290TIP3    H158285   6.646   6.198  12.433 -2.0164  0.3093  2.2994
12290TIP3    H258286   6.779   6.207  12.505  0.5199 -0.4256 -1.9774
12291TIP3   OH258287   5.847   4.808  15.338 -0.0178 -0.3269  0.5543
12291TIP3    H158288   5.764   4.767  15.316 -0.6948  0.7214  1.0740
12291TIP3    H258289   5.906   4.784  15.267  0.2220 -3.8100  1.7427
12292TIP3   OH258290   0.079   0.905   4.279 -0.1706 -0.1319 -0.0000
12292TIP3    H158291   0.046   0.820   4.250 -2.6437  0.1871  1.5943
12292TIP3    H258292   0.151   0.883   4.338 -0.9687 -1.1711  0.6288
12293TIP3   OH258293   0.696   0.053   1.374  0.5147 -0.5241 -0.3832
12293TIP3    H158294   0.617   0.033   1.325 -0.1864  2.9844 -0.9257
12293TIP3    H258295   0.749   0.107   1.315  1.1513  1.0630  1.5085
12294TIP3   OH258296   5.636   0.055  16.053 -0.2213 -0.5594  0.2276
12294TIP3    H158297   5.660   0.144  16.025 -0.8996 -0.5331 -0.2826
12294TIP3    H258298   5.639   0.059  16.149 -1.7424  0.4559  0.2640
12295TIP3   OH258299   2.523   5.690   1.182  0.2460 -0.4819  0.3609
12295TIP3    H158300   2.566   5.721   1.261  0.8896 -0.2623 -0.0734
12295TIP3    H258301   2.457   5.757   1.162  1.6539  0.6639 -0.5933
12296TIP3   OH258302   2.762   0.023   6.633  0.4418 -0.1654  0.2485
12296TIP3    H158303   2.720   0.088   6.689 -0.4704 -0.4569 -0.0737
12296TIP3    H258304   2.717  -0.059   6.654  1.7782 -0.7708  0.8680
12297TIP3   OH258305   3.826   2.775  17.183 -0.1592 -0.5341 -0.0805
12297TIP3    H158306   3.886   2.745  17.251 -1.0144 -1.8321  0.1355
12297TIP3    H258307   3.818   2.700  17.123 -1.6648 -0.4439 -0.0209
12298TIP3   OH258308   4.497   0.280   5.760  0.3357  0.6849  0.2108
12298TIP3    H158309   4.468   0.188   5.758  1.4833  0.2868  1.0347
12298TIP3    H258310   4.436   0.322   5.821 -0.3536  0.5431 -0.3619
12299TIP3   OH258311   3.738   1.870  15.379 -0.3482 -0.4969  0.4541
12299TIP3    H158312   3.802   1.935  15.348 -0.8241  0.1175  0.7217
12299TIP3    H258313   3.673   1.866  15.308 -0.7433 -0.0717  0.7842
12300TIP3   OH258314   0.939   0.628   3.970 -0.0972 -0.6086  0.0709
12300TIP3    H158315   0.924   0.669   4.056  0.1615 -0.4629  0.0476
12300TIP3    H258316   1.024   0.661   3.943 -0.4023 -0.2645 -0.4710
12301TIP3   OH258317   1.999   4.389   0.303  0.2656 -0.2023  0.2237
12301TIP3    H158318   2.083   4.425   0.332 -1.0463  0.8825  3.1186
12301TIP3    H258319   1.951   4.465   0.270 -0.4879 -0.2754  1.0988
12302TIP3   OH258320   3.241   0.214   3.730 -0.1267 -0.0757  0.2728
12302TIP3    H158321   3.255   0.203   3.824 -0.3537  1.6220  0.5437
12302TIP3    H258322   3.146   0.210   3.719 -0.3784  2.7484  0.6348
12303TIP3   OH258323   1.011   1.841   4.852  0.4811 -0.2914  0.1281
12303TIP3    H158324   1.042   1.879   4.769 -0.1165 -0.2123 -0.0649
12303TIP3    H258325   1.024   1.911   4.916  0.6722 -0.2510  0.0484
12304TIP3   OH258326   0.287   6.249   0.831  0.1637  0.1427 -0.4017
12304TIP3    H158327   0.282   6.187   0.758 -0.7517  0.0968 -0.3172
12304TIP3    H258328   0.357   6.309   0.807  1.2062 -1.0312 -0.3952
12305TIP3   OH258329   5.326   0.489   4.334  0.3033 -0.2232  0.3078
12305TIP3    H158330   5.246   0.458   4.291 -0.4372 -0.1509  1.5801
12305TIP3    H258331   5.369   0.544   4.268 -1.9869  1.8458  0.4058
12306TIP3   OH258332   6.765   6.562   4.608 -0.2597 -0.2590  0.2727
12306TIP3    H158333   6.741   6.652   4.586 -0.3677  0.7685  3.9349
12306TIP3    H258334   6.689   6.510   4.582  0.6007  0.1724 -3.8680
12307TIP3   OH258335   6.582   4.883  17.307 -0.3205  0.2824 -0.1718
12307TIP3    H158336   6.647   4.954  17.311  0.5766 -0.5461  0.5794
12307TIP3    H258337   6.577   4.850  17.397 -1.0500 -0.3269 -0.4276
12308TIP3   OH258338   2.409   2.116  14.848  0.2015 -0.4101  0.5295
12308TIP3    H158339   2.441   2.050  14.786 -1.2623  1.0986 -2.0010
12308TIP3    H258340   2.352   2.068  14.908  0.2492 -1.6631 -0.3995
12309TIP3   OH258341   3.427   6.460   1.068 -0.1551 -0.0313  0.1632
12309TIP3    H158342   3.412   6.366   1.078 -1.2777  0.0183 -0.8277
12309TIP3    H258343   3.343   6.495   1.037  0.2838  1.2752  0.3884
12310TIP3   OH258344   2.256   0.220   5.266 -0.4525  0.1604  0.0583
12310TIP3    H158345   2.240   0.273   5.188  1.8234 -0.3557 -0.8578
12310TIP3    H258346   2.323   0.268   5.314  0.9021 -1.3051 -0.2621
12311TIP3   OH258347   3.363   5.029   3.705  0.0793 -0.0092 -0.3112
12311TIP3    H158348   3.395   4.961   3.765 -1.9875 -0.9865 -0.2286
12311TIP3    H258349   3.329   4.981   3.630 -2.6998  0.7316  0.3420
12312TIP3   OH258350   4.155   2.066   4.103  0.5880 -0.3836  0.1197
12312TIP3    H158351   4.192   2.080   4.016  0.9583 -2.0014 -0.0250
12312TIP3    H258352   4.064   2.042   4.086 -0.0977  1.8542  0.3698
12313TIP3   OH258353   0.963   0.804  13.317  0.2137 -0.8883 -0.1943
12313TIP3    H158354   1.023   0.873  13.346 -1.3338  0.8838 -1.0175
12313TIP3    H258355   0.907   0.846  13.252 -2.1770 -2.3425  0.7723
12314TIP3   OH258356   0.227   5.328  11.625 -0.3434  0.1252 -0.0864
12314TIP3    H158357   0.225   5.321  11.720 -1.5676  0.7784 -0.0528
12314TIP3    H258358   0.302   5.385  11.607  1.3293 -1.8172  0.3266
12315TIP3   OH258359   4.723   4.632  12.230  0.4803 -0.2354 -0.4571
12315TIP3    H158360   4.710   4.554  12.284 -2.9766  0.6419  0.2244
12315TIP3    H258361   4.818   4.637  12.217  1.2623 -2.0786  3.1723
12316TIP3   OH258362   5.478   1.908  12.300  0.4553 -0.3504 -0.6245
12316TIP3    H158363   5.432   1.989  12.279  0.1633 -1.0663 -3.1318
12316TIP3    H258364   5.563   1.917  12.258  0.4256 -1.3092 -0.9204
12317TIP3   OH258365   0.487   0.838   2.536  0.0792  0.1844  0.1672
12317TIP3    H158366   0.487   0.744   2.551  0.2711  0.0368 -0.7493
12317TIP3    H258367   0.471   0.876   2.623 -1.6095 -0.7265  0.2768
12318TIP3   OH258368   1.719   3.677   1.141 -0.3277 -0.0969  0.1527
12318TIP3    H158369   1.731   3.677   1.236  0.8400 -0.2774  0.0279
12318TIP3    H258370   1.768   3.754   1.111 -1.3711  0.4271 -0.2381
12319TIP3   OH258371   2.738   0.013   0.014  0.0462 -0.4369  0.8773
12319TIP3    H158372   2.731  -0.055   0.082  0.8020  0.4649  1.8842
12319TIP3    H258373   2.699   0.091   0.054  1.7573  0.4871  0.8069
12320TIP3   OH258374   0.874   0.873  15.940 -0.7356  0.3125 -0.3394
12320TIP3    H158375   0.848   0.848  15.851 -1.0260 -0.1099 -0.1339
12320TIP3    H258376   0.914   0.960  15.929 -1.7957  0.7722 -0.7192
12321TIP3   OH258377   6.687   2.489   3.536 -0.0268 -0.6935 -0.1520
12321TIP3    H158378   6.714   2.398   3.524  2.0809 -0.1259 -0.1208
12321TIP3    H258379   6.769   2.536   3.551 -1.0855  1.2016 -0.0602
12322TIP3   OH258380   2.764   2.165  13.675 -0.0484  0.1415 -0.0790
12322TIP3    H158381   2.704   2.175  13.749 -0.7135  0.7831 -0.6917
12322TIP3    H258382   2.851   2.159  13.715 -0.4243  0.1815  0.7637
12323TIP3   OH258383   3.550   3.911  16.883  0.2195 -0.3332  0.5331
12323TIP3    H158384   3.464   3.947  16.860  0.7971 -0.2869 -1.8001
12323TIP3    H258385   3.613   3.972  16.845  1.2535 -1.4675  0.3581
12324TIP3   OH258386   6.548   3.833   6.560  0.5168 -0.7297  0.1565
12324TIP3    H158387   6.472   3.801   6.511 -0.0398  0.1645  0.4173
12324TIP3    H258388   6.533   3.927   6.570  0.5652 -0.8778  2.1002
12325TIP3   OH258389   2.895   1.825   3.268  0.1054  0.0398  0.6396
12325TIP3    H158390   2.971   1.841   3.212 -1.6545  1.8280 -1.4320
12325TIP3    H258391   2.928   1.834   3.357  2.0982  2.1200 -0.2192
12326TIP3   OH258392   1.181   0.321  12.190 -0.1753  0.3611  0.5161
12326TIP3    H158393   1.148   0.381  12.123  0.8262 -1.0691 -1.3672
12326TIP3    H258394   1.124   0.244  12.183 -0.1881  0.2669  1.4936
12327TIP3   OH258395   3.587   5.099   5.929  0.2007  0.4456 -0.0979
12327TIP3    H158396   3.657   5.043   5.962  1.3632  1.7862 -0.2048
12327TIP3    H258397   3.567   5.158   6.001  0.6563  1.4266 -0.7454
12328TIP3   OH258398   2.011   0.338   0.576 -0.1789  0.3852  0.1645
12328TIP3    H158399   2.050   0.250   0.568 -2.1288 -0.5892  0.7928
12328TIP3    H258400   2.002   0.368   0.486 -0.3023 -0.4476 -0.1148
12329TIP3   OH258401   0.047   5.007  16.022  0.3914 -0.4410 -0.1249
12329TIP3    H158402  -0.021   4.939  16.013 -0.1157 -0.1841  1.3827
12329TIP3    H258403   0.128   4.963  15.999  0.3048 -2.0988  2.3346
12330TIP3   OH258404   3.357   4.692   0.071  0.1341  0.3118 -0.3581
12330TIP3    H158405   3.306   4.738   0.138  1.0923  0.3086  0.3949
12330TIP3    H258406   3.310   4.609   0.057  1.4803 -1.0622  2.5112
12331TIP3   OH258407   1.021   0.376   2.845  0.7304  0.3577  0.2341
12331TIP3    H158408   0.996   0.370   2.937  1.6718  0.0005  0.4753
12331TIP3    H258409   1.097   0.434   2.844  0.0139  1.3324 -0.4778
12332TIP3   OH258410   3.575   3.669  16.159 -0.2422 -0.0207  0.7469
12332TIP3    H158411   3.666   3.694  16.177  0.3711 -0.9017 -0.8813
12332TIP3    H258412   3.571   3.661  16.063 -1.4605 -1.9944  0.9011
12333TIP3   OH258413   3.363   2.872   3.152  0.1082  0.3097  0.4796
12333TIP3    H158414   3.301   2.938   3.121  0.2979 -0.1021 -0.8712
12333TIP3    H258415   3.334   2.851   3.240 -1.0345  0.8958  0.2663
12334TIP3   OH258416   5.236   1.878  13.553  0.1920 -0.3273  0.4446
12334TIP3    H158417   5.271   1.881  13.464 -0.2422 -0.3510  0.2675
12334TIP3    H258418   5.169   1.809  13.550 -0.6636  0.4793  0.4699
12335TIP3   OH258419   6.099   5.556   3.910 -0.4896  0.2883 -0.4256
12335TIP3    H158420   6.158   5.506   3.854  0.4429 -0.6156  1.2756
12335TIP3    H258421   6.128   5.647   3.901  0.5756 -0.0309 -0.3476
12336TIP3   OH258422   3.407   5.003  13.945 -0.1264 -0.5301  0.1756
12336TIP3    H158423   3.380   5.044  13.863 -1.9605  1.7756  1.8214
12336TIP3    H258424   3.401   5.073  14.010  0.3557 -2.5117  2.4732
12337TIP3   OH258425   0.212   4.211   6.578 -0.4651 -0.4708 -0.8748
12337TIP3    H158426   0.214   4.306   6.587  0.7927 -0.5452 -0.0185
12337TIP3    H258427   0.292   4.190   6.529 -0.0061 -1.1727  0.1297
12338TIP3   OH258428   4.454   3.048  16.466  1.0092  0.2402  0.2071
12338TIP3    H158429   4.498   3.131  16.485  0.6158  0.0272  2.4156
12338TIP3    H258430   4.481   2.990  16.537 -0.0715 -0.9891 -0.3330
12339TIP3   OH258431   2.547   5.091   5.396 -0.5655  0.2227  0.5948
12339TIP3    H158432   2.594   5.038   5.332  0.9199  1.8146  0.2851
12339TIP3    H258433   2.456   5.063   5.389  0.2218 -2.7865  1.0083
12340TIP3   OH258434   5.608   2.709  13.470  0.4181 -0.1569 -0.3686
12340TIP3    H158435   5.571   2.762  13.541  0.9479  1.6351 -1.3781
12340TIP3    H258436   5.573   2.747  13.390 -1.0017 -2.7936 -1.1163
12341TIP3   OH258437   6.210   4.715  12.921 -0.0234  0.0414 -0.5630
12341TIP3    H158438   6.115   4.700  12.919  0.0898 -0.9443  0.6099
12341TIP3    H258439   6.219   4.810  12.908 -1.1610  0.1581 -0.6443
12342TIP3   OH258440   3.129   0.090   1.908  0.5088 -0.3832  0.5616
12342TIP3    H158441   3.114   0.146   1.983 -1.3191 -0.0011 -0.0174
12342TIP3    H258442   3.176   0.015   1.942 -0.4541 -0.3095  2.1389
12343TIP3   OH258443   2.741   6.574   0.925  0.5420  0.7570 -0.0614
12343TIP3    H158444   2.733   6.669   0.921 -1.6955  0.6401  0.3082
12343TIP3    H258445   2.659   6.541   0.888  1.2244 -1.0276 -0.0945
12344TIP3   OH258446   0.104   1.568   4.870 -0.5987  0.5267  0.0751
12344TIP3    H158447   0.189   1.586   4.912 -0.9106  1.2561  0.4212
12344TIP3    H258448   0.103   1.627   4.794 -0.0283 -0.8021 -1.0041
12345TIP3   OH258449   4.703   4.363  13.769 -0.4925 -0.3321  0.0109
12345TIP3    H158450   4.782   4.399  13.811 -0.2801  2.8070 -2.7113
12345TIP3    H258451   4.736   4.321  13.689 -1.1982 -3.5570  1.2590
12346TIP3   OH258452   6.718   1.839   1.986  0.3478 -0.3416  0.4748
12346TIP3    H158453   6.626   1.827   2.010 -0.2411  0.9598 -1.0107
12346TIP3    H258454   6.717   1.856   1.892  1.9828  0.9171  0.6396
12347TIP3   OH258455   1.304   4.405   3.413  0.0708 -0.2486  0.2152
12347TIP3    H158456   1.296   4.310   3.401  0.9079 -0.7180  2.6534
12347TIP3    H258457   1.215   4.438   3.402 -0.1612 -1.2433 -1.1084
12348TIP3   OH258458   3.889   0.616   0.128  0.7252 -0.0387  0.4314
12348TIP3    H158459   3.897   0.562   0.049 -1.5158  0.9502 -0.5662
12348TIP3    H258460   3.931   0.565   0.196 -0.0829 -2.4339 -0.7407
12349TIP3   OH258461   5.076   2.566   4.572 -0.7238  0.1244 -0.3584
12349TIP3    H158462   5.014   2.560   4.645  0.3821 -0.4926  0.5508
12349TIP3    H258463   5.155   2.604   4.610  0.9561 -2.9641 -0.4449
12350TIP3   OH258464   1.262   0.716   1.653  0.0344  0.1429  0.2121
12350TIP3    H158465   1.332   0.763   1.697  0.0266  1.1074 -0.7874
12350TIP3    H258466   1.203   0.784   1.621 -0.5420 -0.5858 -0.3186
12351TIP3   OH258467   1.493   5.765  15.913 -0.1674 -0.1512 -0.0597
12351TIP3    H158468   1.471   5.709  15.988  1.4841  0.2758  0.7798
12351TIP3    H258469   1.410   5.773  15.865 -1.3204 -0.3118  1.7828
12352TIP3   OH258470   1.692   3.218  13.742  0.5273 -0.6155  0.2793
12352TIP3    H158471   1.709   3.171  13.824  1.1519  0.5344  0.8222
12352TIP3    H258472   1.626   3.284  13.766  0.2523 -0.6730 -0.2973
12353TIP3   OH258473   1.973   0.041   5.598 -0.1346  0.1329  0.4027
12353TIP3    H158474   2.013   0.086   5.673  2.3312 -0.6560 -0.3547
12353TIP3    H258475   1.919  -0.028   5.637 -1.8129  1.9624  1.4888
12354TIP3   OH258476   6.351   6.381  17.221  0.1611  0.0220  0.1922
12354TIP3    H158477   6.280   6.318  17.222  1.4951 -1.6075 -1.1783
12354TIP3    H258478   6.348   6.419  17.133 -1.1145  2.5438  1.2385
12355TIP3   OH258479   5.731   1.783   5.509 -0.2663  0.1142 -0.2303
12355TIP3    H158480   5.684   1.702   5.487  0.4289 -0.1289 -0.8822
12355TIP3    H258481   5.799   1.755   5.570 -0.6295  0.3764  0.2996
12356TIP3   OH258482   1.132   2.194  11.409  0.0769  0.3510 -0.4515
12356TIP3    H158483   1.119   2.124  11.473 -0.8036 -0.2727 -1.2986
12356TIP3    H258484   1.101   2.158  11.327  1.7895  0.9135 -1.3989
12357TIP3   OH258485   1.513   4.361   5.730 -0.1721 -0.0277  0.4430
12357TIP3    H158486   1.471   4.283   5.695  1.1531 -0.3903 -0.4137
12357TIP3    H258487   1.482   4.432   5.674 -0.9437 -0.0072  0.8785
12358TIP3   OH258488   3.877   0.393   1.537  0.3757 -0.1959 -0.4000
12358TIP3    H158489   3.932   0.416   1.612  0.1050 -0.2602 -0.1751
12358TIP3    H258490   3.844   0.305   1.558  1.3183 -0.7534 -1.2009
12359TIP3   OH258491   6.513   0.858  11.506 -0.0372  0.4171 -0.0036
12359TIP3    H158492   6.586   0.889  11.559 -0.3038  0.5995  0.2656
12359TIP3    H258493   6.535   0.768  11.483 -0.6947 -0.2823  1.8736
12360TIP3   OH258494   5.032   1.193   4.482 -0.3549 -0.2221  0.3593
12360TIP3    H158495   5.116   1.157   4.454 -0.7287 -1.8215  1.1983
12360TIP3    H258496   4.980   1.117   4.508 -1.7508  0.8066  0.7148
12361TIP3   OH258497   0.959   1.973   3.874  0.2464  0.1633  0.0448
12361TIP3    H158498   0.865   1.986   3.858  0.2253 -0.5466 -0.4822
12361TIP3    H258499   0.997   1.966   3.786  1.0929  2.2387  0.1808
12362TIP3   OH258500   0.512   6.248   3.345  0.4946  0.4459 -0.4463
12362TIP3    H158501   0.547   6.230   3.257 -0.1361 -0.7991 -0.4630
12362TIP3    H258502   0.431   6.197   3.349 -0.0368  1.3259  0.4903
12363TIP3   OH258503   3.385   4.938   0.927  0.0525  0.0325 -0.4294
12363TIP3    H158504   3.428   4.857   0.954  0.3330  0.7067  1.3083
12363TIP3    H258505   3.298   4.911   0.898  0.7966 -1.0791 -1.7251
12364TIP3   OH258506   1.670   1.796  12.035  0.2262  0.0472  0.2976
12364TIP3    H158507   1.659   1.847  12.115  0.4728 -0.0278  0.3811
12364TIP3    H258508   1.581   1.776  12.006  0.1222  0.7533  0.1208
12365TIP3   OH258509   4.659   1.972  14.691  0.7377  0.4521 -0.4242
12365TIP3    H158510   4.751   1.998  14.685  1.1424 -0.7418  0.2963
12365TIP3    H258511   4.614   2.049  14.724  1.6633  0.6944  0.2878
12366TIP3   OH258512   5.311   5.421   3.539 -0.7525  0.2357  0.1314
12366TIP3    H158513   5.274   5.388   3.458 -1.6221 -0.0281  0.6154
12366TIP3    H258514   5.316   5.344   3.596 -1.4641  0.6565  0.7887
12367TIP3   OH258515   2.158   4.305   0.019  0.4669  0.1026  0.5168
12367TIP3    H158516   2.121   4.393   0.030 -0.0634 -0.1703  0.9444
12367TIP3    H258517   2.139   4.282  -0.072  0.4447  0.3580  0.4560
12368TIP3   OH258518   1.886   3.096   2.091  0.2892 -0.4850  0.0531
12368TIP3    H158519   1.823   3.098   2.019  1.6364  1.1716 -1.1661
12368TIP3    H258520   1.840   3.139   2.164 -0.1649  0.2649 -0.6562
12369TIP3   OH258521   1.045   5.367  12.219 -0.1167 -0.0754  0.3326
12369TIP3    H158522   1.043   5.432  12.148 -0.8799 -0.3706  0.0805
12369TIP3    H258523   1.030   5.283  12.176  1.3999 -0.5059  0.5891
12370TIP3   OH258524   5.554   1.917   0.217  0.5357 -0.6928  0.2761
12370TIP3    H158525   5.558   1.849   0.149 -4.1383 -1.8239  0.8174
12370TIP3    H258526   5.580   1.997   0.173  1.0336 -1.9405 -1.8398
12371TIP3   OH258527   5.492   0.942   1.307  0.8020 -0.5813 -0.1889
12371TIP3    H158528   5.432   0.992   1.253  1.5306 -0.7729 -1.2106
12371TIP3    H258529   5.459   0.953   1.396  0.5792  1.1995 -0.4475
12372TIP3   OH258530   3.123   1.560   1.924 -0.5361  0.1360 -0.1266
12372TIP3    H158531   3.028   1.557   1.920 -0.7135  2.3745  0.6799
12372TIP3    H258532   3.149   1.474   1.956 -2.5502  0.4762  2.8128
12373TIP3   OH258533   0.865   0.871  14.182  0.0361 -0.6342 -0.3899
12373TIP3    H158534   0.899   0.842  14.267  0.5780  0.5746 -0.1724
12373TIP3    H258535   0.825   0.792  14.144  1.4961 -1.6740  0.1290
12374TIP3   OH258536   2.232   3.395  15.614 -0.1603 -0.2657  0.2575
12374TIP3    H158537   2.238   3.451  15.537 -0.7725 -0.3665  0.1271
12374TIP3    H258538   2.286   3.438  15.680 -0.3993  0.3245  0.0714
12375TIP3   OH258539   3.272   3.937   4.065 -0.0142 -0.0881  0.2213
12375TIP3    H158540   3.315   3.856   4.090 -0.5271 -0.6882 -0.7996
12375TIP3    H258541   3.256   3.982   4.149  1.7645 -0.2422  0.6802
12376TIP3   OH258542   6.745   0.241   0.232  0.1130 -0.1939  0.3156
12376TIP3    H158543   6.784   0.154   0.236  0.9678  0.1301 -0.5532
12376TIP3    H258544   6.714   0.250   0.142 -0.6900  0.1010  0.6128
12377TIP3   OH258545   0.764   5.613  15.482 -0.0542 -0.2505 -0.3213
12377TIP3    H158546   0.765   5.667  15.403 -1.5987  1.8212  0.9882
12377TIP3    H258547   0.678   5.572  15.483 -0.5850  0.8160  0.9201
12378TIP3   OH258548   2.257   4.904   3.203 -0.6702 -0.0746  0.1506
12378TIP3    H158549   2.291   4.950   3.280 -0.6817 -0.0274  0.1272
12378TIP3    H258550   2.335   4.873   3.157 -0.4731  2.5930 -1.5224
12379TIP3   OH258551   1.622   3.132   5.007 -0.6177 -0.2314 -0.0920
12379TIP3    H158552   1.682   3.106   5.077  0.6199  0.0904 -1.0032
12379TIP3    H258553   1.679   3.157   4.935 -1.8702 -0.5748 -1.2359
12380TIP3   OH258554   2.089   5.106   1.163  0.3205 -0.0876  0.0352
12380TIP3    H158555   2.108   5.012   1.172  0.7578  0.1471  1.8045
12380TIP3    H258556   2.008   5.119   1.213 -0.2228  0.3405 -0.9305
12381TIP3   OH258557   0.741   2.762   1.234  0.1577  0.0854  0.1167
12381TIP3    H158558   0.706   2.675   1.212  0.0840 -0.3071  1.6509
12381TIP3    H258559   0.745   2.762   1.330 -0.1721  1.9152  0.1566
12382TIP3   OH258560   5.802   2.861  16.294 -0.4089  0.5849 -0.7790
12382TIP3    H158561   5.793   2.774  16.334  1.7110 -0.5300 -2.4790
12382TIP3    H258562   5.853   2.911  16.358  0.4833 -0.2610 -0.7872
12383TIP3   OH258563   0.729   5.154   4.647  0.0601 -0.4052 -0.0614
12383TIP3    H158564   0.707   5.185   4.559  2.2913  0.1619 -0.4752
12383TIP3    H258565   0.655   5.098   4.672 -0.7002 -0.4402 -2.2126
12384TIP3   OH258566   5.267   0.693   1.515 -0.6784  0.2852  0.4070
12384TIP3    H158567   5.252   0.602   1.541 -0.6071 -0.0102 -0.5353
12384TIP3    H258568   5.179   0.732   1.513 -0.9212 -0.2708 -0.9240
12385TIP3   OH258569   0.993   5.255   2.118 -0.1559  0.4156 -0.4206
12385TIP3    H158570   0.949   5.339   2.130  0.9980  1.3674 -2.4152
12385TIP3    H258571   1.080   5.268   2.156 -0.4598 -0.3973  0.5967
12386TIP3   OH258572   2.295   0.007   2.454 -0.2786  0.0076 -0.3325
12386TIP3    H158573   2.350   0.081   2.429 -0.3257 -0.0872 -0.7159
12386TIP3    H258574   2.206   0.042   2.454 -0.1488  0.4545  1.3438
12387TIP3   OH258575   2.014   1.831   0.383 -0.1168 -0.2399 -0.0741
12387TIP3    H158576   2.033   1.761   0.446 -0.4021  0.2699  0.5835
12387TIP3    H258577   1.920   1.843   0.387  0.0389  0.8769  0.5738
12388TIP3   OH258578   2.193   1.515   2.319  0.2091  0.0620  0.1295
12388TIP3    H158579   2.122   1.492   2.259  0.6708 -0.0859 -0.3751
12388TIP3    H258580   2.257   1.561   2.264 -0.0617  1.3209  0.8334
12389TIP3   OH258581   2.410   5.130  11.481  0.7809 -0.1066  0.5382
12389TIP3    H158582   2.390   5.114  11.573 -1.3863 -1.5439 -0.0954
12389TIP3    H258583   2.328   5.112  11.435  1.6205  1.1663 -1.6319
12390TIP3   OH258584   0.462   0.858  15.499 -1.0250  0.5065 -0.3560
12390TIP3    H158585   0.371   0.861  15.532 -1.0775  0.5807 -0.5092
12390TIP3    H258586   0.475   0.942  15.457 -0.8924  0.4841 -0.3585
12391TIP3   OH258587   2.915   3.787   5.341 -0.3981  0.6720 -0.0914
12391TIP3    H158588   2.836   3.778   5.287 -1.7565  0.0927  1.8686
12391TIP3    H258589   2.924   3.702   5.384  0.6188  1.1158  0.6039
12392TIP3   OH258590   2.027   4.709   5.071  0.2274 -0.4605 -0.5347
12392TIP3    H158591   1.996   4.731   5.158  0.4442  0.4089 -0.6697
12392TIP3    H258592   1.984   4.772   5.013  0.2171 -0.9177 -1.0373
12393TIP3   OH258593   5.950   3.729   4.908 -0.6148 -0.1259 -0.1008
12393TIP3    H158594   5.875   3.674   4.926 -1.6346  1.7024  1.6104
12393TIP3    H258595   5.923   3.817   4.936  2.1418  0.6060  0.5680
12394TIP3   OH258596   0.688   4.884  13.141 -0.2689 -0.0463  0.0080
12394TIP3    H158597   0.643   4.937  13.206  1.3300 -1.2333  2.2077
12394TIP3    H258598   0.637   4.803  13.136  1.7583 -1.6879  3.0267
12395TIP3   OH258599   4.313   3.528   4.250  0.1350 -0.4715  0.8347
12395TIP3    H158600   4.399   3.491   4.269 -0.2121 -2.1176 -0.4751
12395TIP3    H258601   4.329   3.597   4.186  0.4963 -0.7254  0.6517
12396TIP3   OH258602   5.936   1.112  11.259 -0.4153 -0.1002 -0.0109
12396TIP3    H158603   5.847   1.118  11.294 -0.3055  0.7436  0.1607
12396TIP3    H258604   5.937   1.176  11.187 -0.5929 -1.6909 -1.4897
12397TIP3   OH258605   0.621   4.199  13.524 -0.1575  0.5462  0.1063
12397TIP3    H158606   0.574   4.225  13.604 -1.8025  0.4611 -0.7846
12397TIP3    H258607   0.662   4.280  13.494  0.1432  0.6656  0.8043
12398TIP3   OH258608   0.577   5.220  16.421 -0.5770  0.2496  0.4005
12398TIP3    H158609   0.570   5.224  16.516 -1.4652 -1.7181  0.4570
12398TIP3    H258610   0.642   5.152  16.405  2.1066  2.7873 -0.4448
12399TIP3   OH258611   3.295   5.609  12.082  0.2075 -0.4298  0.3334
12399TIP3    H158612   3.297   5.514  12.069 -0.7341 -0.4765  0.4631
12399TIP3    H258613   3.220   5.639  12.031  0.8486  0.3318 -0.1875
12400TIP3   OH258614   0.828   0.417  13.001 -0.2700  0.2775 -0.1934
12400TIP3    H158615   0.782   0.439  13.082 -3.5057  0.4767 -1.9553
12400TIP3    H258616   0.791   0.333  12.974  1.0362  0.0111 -1.2979
12401TIP3   OH258617   3.906   1.635  16.833  0.0314  0.1941  0.0552
12401TIP3    H158618   3.856   1.575  16.778 -0.3645  0.6309 -0.0788
12401TIP3    H258619   3.926   1.585  16.912  1.1370 -0.6411 -0.7216
12402TIP3   OH258620   0.457   4.782   2.298 -0.3298 -0.6971 -0.9022
12402TIP3    H158621   0.494   4.837   2.229 -1.6109 -1.8410 -2.5842
12402TIP3    H258622   0.524   4.716   2.314  0.1914 -0.1200 -0.6471
12403TIP3   OH258623   2.944   4.843  13.406 -0.0417 -0.0486 -0.0373
12403TIP3    H158624   3.018   4.871  13.460 -0.3055 -1.7931  1.3040
12403TIP3    H258625   2.972   4.760  13.368 -0.8805 -0.1610 -0.4315
12404TIP3   OH258626   4.017   6.434  13.572  0.4055 -0.3458  0.3720
12404TIP3    H158627   3.947   6.402  13.514  0.4319  1.0079 -0.4504
12404TIP3    H258628   3.972   6.463  13.651  0.1973 -0.7369  0.4002
12405TIP3   OH258629   6.550   5.477  13.857  0.1860 -0.3792  0.4539
12405TIP3    H158630   6.528   5.511  13.944 -0.5901  0.8273 -0.1846
12405TIP3    H258631   6.625   5.530  13.829 -0.3358  0.0692 -0.1025
12406TIP3   OH258632   5.207   5.243  13.266  0.0939  0.3302  0.4082
12406TIP3    H158633   5.209   5.155  13.230  3.0610  0.6712 -0.4979
12406TIP3    H258634   5.237   5.233  13.357 -2.0081  0.1646  1.1360
12407TIP3   OH258635   3.246   1.895  13.927 -0.3153 -0.0357  0.2749
12407TIP3    H158636   3.219   1.892  13.835  2.8772 -0.6489 -0.7755
12407TIP3    H258637   3.245   1.803  13.955  0.5980 -0.0767  0.2003
12408TIP3   OH258638   0.287   5.001  12.187 -0.3366 -0.1718  0.0398
12408TIP3    H158639   0.240   5.028  12.266  0.0684 -0.7321  0.4790
12408TIP3    H258640   0.269   5.070  12.124  0.5865  1.0982  1.1026
12409TIP3   OH258641   1.773   1.094  12.177 -0.1784  0.2029  0.9601
12409TIP3    H158642   1.750   1.170  12.230 -0.4784  0.6993  0.1388
12409TIP3    H258643   1.726   1.022  12.217 -0.1713  0.5150  1.5390
12410TIP3   OH258644   2.845   3.078  16.583  0.5337 -0.6200 -0.2138
12410TIP3    H158645   2.843   3.082  16.487  1.1412  0.0354 -0.2059
12410TIP3    H258646   2.767   3.128  16.610  0.8681 -0.0090 -0.3565
12411TIP3   OH258647   4.255   1.450  16.977  0.1702  0.1046  0.2710
12411TIP3    H158648   4.276   1.373  16.925 -2.7234 -0.0762 -0.8154
12411TIP3    H258649   4.315   1.446  17.051  0.4693 -2.9290 -0.0054
12412TIP3   OH258650   3.047   2.598   6.315  0.0604 -0.1595 -0.0013
12412TIP3    H158651   3.087   2.683   6.329  0.8488 -0.5990  0.5102
12412TIP3    H258652   3.116   2.546   6.272  0.2885 -1.1143  1.4509
12413TIP3   OH258653   2.815   5.736   1.197  0.4474 -0.1573 -0.2615
12413TIP3    H158654   2.802   5.812   1.253 -0.8361 -0.4310 -0.1652
12413TIP3    H258655   2.730   5.721   1.156  0.6328 -1.6391 -0.1475
12414TIP3   OH258656   1.963   4.823  14.115  0.2270  0.1700  0.4210
12414TIP3    H158657   1.900   4.764  14.156 -1.2068  0.2621 -1.5071
12414TIP3    H258658   1.972   4.791  14.026  0.9785  1.6665 -0.0792
12415TIP3   OH258659   3.620   5.791   3.112  0.3200 -0.6015 -0.0846
12415TIP3    H158660   3.622   5.839   3.194  1.7081  1.1257 -1.0602
12415TIP3    H258661   3.626   5.858   3.044  0.9436 -2.0622 -1.5500
12416TIP3   OH258662   6.747   1.756  12.346 -0.1749 -0.1389 -0.0754
12416TIP3    H158663   6.669   1.709  12.314  0.0883 -1.5761  1.3044
12416TIP3    H258664   6.792   1.692  12.401  0.0523  1.8167  2.1463
12417TIP3   OH258665   2.000   3.753  16.135  0.3048  0.0203  0.2736
12417TIP3    H158666   1.937   3.789  16.197  0.2211  2.1629 -0.9495
12417TIP3    H258667   2.081   3.802  16.151  0.4204  0.2733 -0.9427
12418TIP3   OH258668   5.659   4.909   0.779 -0.3431 -0.8940  0.1701
12418TIP3    H158669   5.609   4.838   0.818 -2.5350 -0.9816 -2.5484
12418TIP3    H258670   5.687   4.875   0.693 -2.4558  1.7631 -1.7393
12419TIP3   OH258671   1.190   0.790  12.921 -0.2314  0.0889 -0.0022
12419TIP3    H158672   1.234   0.705  12.919 -2.2663 -1.0427  0.4403
12419TIP3    H258673   1.243   0.844  12.979  1.8718 -0.3910 -1.3759
12420TIP3   OH258674   2.476   3.136  11.538  0.0727 -0.3776 -0.5411
12420TIP3    H158675   2.469   3.058  11.593  0.2749  0.0559  0.1137
12420TIP3    H258676   2.535   3.111  11.467  0.1662 -0.8100 -0.3107
12421TIP3   OH258677   1.283   3.065  15.420 -0.0338 -0.3592 -0.2641
12421TIP3    H158678   1.308   2.976  15.393 -0.2211 -0.4852 -0.0243
12421TIP3    H258679   1.337   3.122  15.365  0.6256 -0.6259  0.0894
12422TIP3   OH258680   4.771   1.069  11.717 -0.2771 -0.0281 -0.0375
12422TIP3    H158681   4.828   1.002  11.755 -2.2450  0.1250  3.7516
12422TIP3    H258682   4.715   1.022  11.656  0.0507 -1.3762  0.6635
12423TIP3   OH258683   2.985   5.200  13.904  0.0932 -0.7684  0.7806
12423TIP3    H158684   2.988   5.177  13.811  2.0851 -0.1387  0.6231
12423TIP3    H258685   3.041   5.135  13.947  0.8010  0.1045  1.2200
12424TIP3   OH258686   0.964   2.981   3.445  0.3545  0.1590 -0.3354
12424TIP3    H158687   1.022   2.951   3.515  0.3412  2.1779  0.6173
12424TIP3    H258688   0.972   3.077   3.447 -2.0067  0.4227 -1.0548
12425TIP3   OH258689   5.095   1.520   2.967 -0.5956 -0.2223  0.6218
12425TIP3    H158690   5.007   1.527   3.004 -2.0885  1.1342 -2.7512
12425TIP3    H258691   5.086   1.551   2.877  3.6914  1.5262  0.5447
12426TIP3   OH258692   2.703   0.040  16.096 -0.2641 -0.3489 -0.2704
12426TIP3    H158693   2.663  -0.038  16.058 -1.3803 -0.2512  0.6567
12426TIP3    H258694   2.632   0.104  16.101  0.2966  0.2477  0.2765
12427TIP3   OH258695   3.778   3.278  11.603  0.0902  0.3718  0.1915
12427TIP3    H158696   3.698   3.330  11.609 -0.5036 -0.5390  0.2483
12427TIP3    H258697   3.847   3.342  11.585 -0.8882  0.9987 -1.4934
12428TIP3   OH258698   1.415   1.692   1.841 -0.2433  0.3829 -0.4445
12428TIP3    H158699   1.434   1.663   1.752  0.7978 -1.5782  0.3514
12428TIP3    H258700   1.416   1.612   1.893 -2.3644  1.2935  1.1152
12429TIP3   OH258701   0.280   0.178  12.023  0.2504 -0.0755 -0.0008
12429TIP3    H158702   0.222   0.235  12.073  0.5241  0.8874 -0.7402
12429TIP3    H258703   0.233   0.161  11.941  0.2764 -0.7156  0.1138
12430TIP3   OH258704   4.531   5.174   6.355 -0.5595  0.3076  0.1806
12430TIP3    H158705   4.595   5.114   6.394 -1.3542  0.4749  1.8611
12430TIP3    H258706   4.582   5.251   6.330 -0.0077  0.2224  1.0075
12431TIP3   OH258707   4.623   2.592  14.993 -0.4141  0.1082 -0.3683
12431TIP3    H158708   4.684   2.570  15.064  0.2160  1.1002 -0.5888
12431TIP3    H258709   4.602   2.684  15.007 -2.0201 -0.2545 -0.2015
12432TIP3   OH258710   3.779   2.562   1.906  0.4654 -0.2981  0.4696
12432TIP3    H158711   3.780   2.572   1.811  2.6163 -0.9835  0.3755
12432TIP3    H258712   3.697   2.516   1.924  0.5333 -1.1445 -1.1725
12433TIP3   OH258713   4.494   4.371  13.940 -0.1746  0.1635  0.0912
12433TIP3    H158714   4.558   4.396  13.874 -0.9497  0.9254 -0.4029
12433TIP3    H258715   4.461   4.455  13.973 -2.8946 -0.0964 -1.6366
12434TIP3   OH258716   1.485   3.216   3.661 -0.1565 -0.6938  0.2334
12434TIP3    H158717   1.494   3.280   3.590 -0.8549  0.2086  0.9271
12434TIP3    H258718   1.511   3.133   3.622  0.4775 -0.0440 -0.7851
12435TIP3   OH258719   5.667   3.489   2.645 -0.4260 -0.1130 -0.7567
12435TIP3    H158720   5.731   3.524   2.707 -0.3650 -2.0411  0.3408
12435TIP3    H258721   5.586   3.536   2.666  0.2109  1.1524 -1.0416
12436TIP3   OH258722   5.007   0.568  11.761  0.2372 -0.0174 -0.2515
12436TIP3    H158723   4.940   0.500  11.776 -0.2539  0.3848 -0.6023
12436TIP3    H258724   5.059   0.568  11.841 -0.6950  0.2359  0.3694
12437TIP3   OH258725   0.181   5.217  13.755 -0.8132  0.3902  0.3796
12437TIP3    H158726   0.171   5.175  13.670  0.3997 -1.5516  1.1307
12437TIP3    H258727   0.262   5.180  13.791 -2.1064 -0.1205  3.0349
12438TIP3   OH258728   5.955   2.592   1.141  0.3396 -0.8633  0.1543
12438TIP3    H158729   5.923   2.642   1.065 -2.9450  2.0635  3.0607
12438TIP3    H258730   6.043   2.626   1.156 -0.1117  0.7770 -0.6316
12439TIP3   OH258731   4.882   0.164   3.871 -0.3323  0.5036 -0.2105
12439TIP3    H158732   4.833   0.121   3.801  0.0405 -0.2175 -0.0414
12439TIP3    H258733   4.816   0.212   3.921 -0.7288  0.2817 -0.5196
12440TIP3   OH258734   0.626   1.638   1.469 -0.1923  0.8758 -0.3541
12440TIP3    H158735   0.563   1.672   1.405 -2.5007 -1.0720  0.7325
12440TIP3    H258736   0.581   1.565   1.511  1.9825  0.7882  2.0923
12441TIP3   OH258737   3.614   6.347  15.494  0.1584  0.2232  0.2355
12441TIP3    H158738   3.563   6.393  15.427 -0.6678 -1.4965 -0.3842
12441TIP3    H258739   3.669   6.286  15.445  0.3559 -0.2901  1.0700
12442TIP3   OH258740   3.205   0.960  12.880 -0.1422  0.3381 -0.5074
12442TIP3    H158741   3.113   0.951  12.906 -0.2369  0.7861 -0.6807
12442TIP3    H258742   3.213   1.052  12.852  0.3386  0.2795 -0.5630
12443TIP3   OH258743   1.695   1.753   5.101 -0.0141  0.2744 -0.3401
12443TIP3    H158744   1.755   1.779   5.171  0.6205  0.1731 -0.8348
12443TIP3    H258745   1.613   1.733   5.146  0.3113  0.4464  0.3461
12444TIP3   OH258746   5.339   6.339   3.849  0.1517 -0.1976  0.3832
12444TIP3    H158747   5.343   6.349   3.754 -1.5749  1.8565  0.4544
12444TIP3    H258748   5.287   6.259   3.863 -1.1157  0.4381 -0.4593
12445TIP3   OH258749   1.946   2.052   4.931  0.1238 -0.8642  0.3866
12445TIP3    H158750   2.000   2.069   4.854 -0.3082 -1.0074  0.0500
12445TIP3    H258751   2.005   2.008   4.992 -0.1928 -3.2059 -0.8975
12446TIP3   OH258752   1.812   2.553   5.554  0.0236  0.0533  0.4608
12446TIP3    H158753   1.743   2.518   5.497 -1.9188  1.5332  1.7895
12446TIP3    H258754   1.848   2.475   5.597 -1.7290 -0.6838  0.6953
12447TIP3   OH258755   3.134   6.421   5.131 -0.7911  0.1428 -0.3801
12447TIP3    H158756   3.162   6.513   5.133  1.3487 -0.4245  2.5371
12447TIP3    H258757   3.043   6.423   5.160 -0.7396  1.3578 -0.2341
12448TIP3   OH258758   6.499   0.279   1.067 -0.0226  0.0246 -0.2096
12448TIP3    H158759   6.511   0.332   1.146 -0.1728  0.7924 -0.7020
12448TIP3    H258760   6.474   0.193   1.101  1.4440 -0.1017  0.6489
12449TIP3   OH258761   5.249   5.824   1.928  0.3954  0.7159 -0.0733
12449TIP3    H158762   5.322   5.825   1.989  0.5165 -0.0641 -0.1922
12449TIP3    H258763   5.171   5.815   1.983  0.5854 -1.2667 -0.0672
12450TIP3   OH258764   4.876   6.616   3.716 -0.2066 -0.0318 -0.2962
12450TIP3    H158765   4.854   6.529   3.683 -0.5410 -0.1110  0.1244
12450TIP3    H258766   4.835   6.676   3.654  1.8287 -0.1383 -1.8065
12451TIP3   OH258767   5.804   5.286   1.918  0.6356  0.4085 -0.0002
12451TIP3    H158768   5.867   5.341   1.965 -1.6990  1.5840  1.9878
12451TIP3    H258769   5.749   5.348   1.870  1.3183 -0.6403 -2.2676
12452TIP3   OH258770   6.358   0.402  11.596  0.7371  0.6236  0.3311
12452TIP3    H158771   6.301   0.479  11.600  0.9350  0.7564  0.6468
12452TIP3    H258772   6.366   0.373  11.686  0.5958  0.1795  0.2016
12453TIP3   OH258773   2.754   6.533  16.786  0.0002  0.4915 -0.2317
12453TIP3    H158774   2.783   6.485  16.864 -0.4005  3.1344  1.6522
12453TIP3    H258775   2.672   6.489  16.761  0.6882 -1.0832  0.1343
12454TIP3   OH258776   4.206   0.384   2.302  0.1564  0.2863  0.3865
12454TIP3    H158777   4.258   0.388   2.222  0.7083 -0.5233  0.6871
12454TIP3    H258778   4.122   0.424   2.279 -1.7919 -4.4898 -2.2317
12455TIP3   OH258779   3.278   6.360  14.458 -0.2765  1.1400  0.3871
12455TIP3    H158780   3.273   6.387  14.366 -0.0587  0.5055  0.1865
12455TIP3    H258781   3.259   6.440  14.507  0.0147  1.5777 -0.2037
12456TIP3   OH258782   6.540   2.533   2.087 -0.4637 -0.6091  1.0077
12456TIP3    H158783   6.467   2.589   2.060 -1.0943 -0.9834  1.8562
12456TIP3    H258784   6.614   2.562   2.034 -1.2031 -0.1478  0.1966
12457TIP3   OH258785   4.824   0.944  14.974  0.3459 -0.1214  0.4937
12457TIP3    H158786   4.797   0.890  14.900 -2.2266  0.8626  0.6080
12457TIP3    H258787   4.777   1.027  14.962  1.8307  1.0036  1.9138
12458TIP3   OH258788   3.339   1.851   0.806  0.3397 -0.2615  0.0687
12458TIP3    H158789   3.341   1.879   0.714  2.4416 -0.3381  0.0239
12458TIP3    H258790   3.367   1.928   0.855 -0.1319 -0.4106  0.5787
12459TIP3   OH258791   1.918   1.378   4.853  0.2115  1.0298  0.2982
12459TIP3    H158792   2.002   1.353   4.814 -0.2941  1.6314 -1.2301
12459TIP3    H258793   1.943   1.432   4.928  1.1966  0.4966  0.3824
12460TIP3   OH258794   2.650   6.168  12.844  0.2567 -0.0550 -0.0530
12460TIP3    H158795   2.582   6.166  12.777 -3.5599 -1.4207  3.4051
12460TIP3    H258796   2.695   6.085  12.835 -1.8507 -1.3221  0.4277
12461TIP3   OH258797   4.903   3.830  15.154 -0.4311  0.1906 -0.3359
12461TIP3    H158798   4.906   3.805  15.062 -2.0318  0.8385 -0.5933
12461TIP3    H258799   4.839   3.901  15.158 -2.3182 -1.4973  1.6370
12462TIP3   OH258800   0.964   2.917   0.968  0.7417  0.0404 -0.0932
12462TIP3    H158801   0.885   2.910   0.916  0.9799  1.0554 -0.6211
12462TIP3    H258802   0.938   2.967   1.045  0.2299 -2.0240  1.1554
12463TIP3   OH258803   0.523   6.318  11.796  0.4387  0.4939 -0.8153
12463TIP3    H158804   0.617   6.336  11.795  0.8245 -1.2649 -0.3182
12463TIP3    H258805   0.510   6.257  11.724 -0.2941  0.5761 -0.7556
12464TIP3   OH258806   5.992   0.291   1.492  0.4891 -1.2201 -0.9411
12464TIP3    H158807   6.030   0.203   1.490 -0.8892 -2.0460  2.0804
12464TIP3    H258808   6.016   0.325   1.579 -0.9640  0.4461 -1.1348
12465TIP3   OH258809   2.923   5.326   1.053 -0.2417  0.4026 -0.7533
12465TIP3    H158810   2.886   5.241   1.029  1.3930 -0.3369 -0.8177
12465TIP3    H258811   2.896   5.385   0.982  0.7768 -0.7063 -2.1188
12466TIP3   OH258812   0.072   5.457  14.902  0.0938 -0.4215 -0.3221
12466TIP3    H158813   0.151   5.478  14.951 -0.4822 -1.1356  0.9551
12466TIP3    H258814   0.081   5.506  14.820  1.4833  0.1119  0.1206
12467TIP3   OH258815   0.047   3.861  16.904 -0.3976  0.2701 -0.1010
12467TIP3    H158816   0.068   3.890  16.816  0.3944  0.4661  0.1468
12467TIP3    H258817  -0.048   3.850  16.904 -0.6193  2.0163 -0.4531
12468TIP3   OH258818   2.972   2.476   2.149  0.4098 -0.2494 -0.4073
12468TIP3    H158819   3.010   2.444   2.231  2.0255  0.1488 -0.9573
12468TIP3    H258820   2.947   2.567   2.168 -0.8199 -0.6818  0.1161
12469TIP3   OH258821   5.320   3.518   1.845 -0.1943  0.3876  0.2709
12469TIP3    H158822   5.374   3.502   1.921 -1.5963  1.3170  1.5143
12469TIP3    H258823   5.343   3.448   1.783 -0.8360 -1.9713  2.5374
12470TIP3   OH258824   5.734   5.051  14.130  0.3387  0.0760  0.3602
12470TIP3    H158825   5.694   5.082  14.049  1.4455 -0.6571 -0.4868
12470TIP3    H258826   5.661   5.047  14.192 -0.2018  2.5496  0.0051
12471TIP3   OH258827   1.871   5.693   3.483  0.1022  0.2713 -0.1362
12471TIP3    H158828   1.811   5.641   3.430  0.6561  0.2439 -0.7558
12471TIP3    H258829   1.923   5.628   3.530  0.9904  0.2272 -1.1297
12472TIP3   OH258830   1.882   5.797  11.790  0.1842  0.0785 -0.7949
12472TIP3    H158831   1.910   5.861  11.855 -2.2896  2.0513 -1.4986
12472TIP3    H258832   1.805   5.755  11.829  0.6637 -1.1621 -1.1298
12473TIP3   OH258833   6.366   5.965  12.191  0.3649  0.5796  0.0341
12473TIP3    H158834   6.412   5.983  12.109 -0.7094  2.2609 -0.2528
12473TIP3    H258835   6.275   5.990  12.173 -0.6553 -2.2550  0.7020
12474TIP3   OH258836   0.902   2.296  16.324  0.1513  0.5893  0.3776
12474TIP3    H158837   0.849   2.277  16.402  1.5535  0.5360  1.3570
12474TIP3    H258838   0.986   2.253  16.341  0.6100  0.8686 -1.0241
12475TIP3   OH258839   5.462   1.338  15.674 -0.3330  0.0188 -0.1474
12475TIP3    H158840   5.513   1.293  15.741  0.1383  0.2679 -0.3319
12475TIP3    H258841   5.375   1.348  15.713 -0.3814 -0.8355 -0.0182
12476TIP3   OH258842   4.683   6.702  11.826 -0.1255  0.4339 -0.0257
12476TIP3    H158843   4.737   6.703  11.905 -0.6318 -0.9972  0.3877
12476TIP3    H258844   4.741   6.730  11.756  1.4508 -1.8522  0.2647
12477TIP3   OH258845   2.262   0.655   3.373 -0.0093 -0.4267  0.1023
12477TIP3    H158846   2.228   0.716   3.439 -0.1987 -1.0616  0.6064
12477TIP3    H258847   2.232   0.690   3.290 -1.7199 -0.8383  0.5173
12478TIP3   OH258848   4.399   2.841   6.117  0.1199 -0.4735 -0.4735
12478TIP3    H158849   4.449   2.922   6.117  0.6568 -0.7729  1.0748
12478TIP3    H258850   4.388   2.819   6.210 -1.7493 -1.1215 -0.8174
12479TIP3   OH258851   5.588   0.640   0.224 -0.1980 -0.0221  0.6982
12479TIP3    H158852   5.664   0.675   0.179 -0.2069 -1.8133 -0.8136
12479TIP3    H258853   5.624   0.599   0.304  0.2204  0.4612  0.7596
12480TIP3   OH258854   2.857   0.070   1.831  0.7147 -0.0597  0.6664
12480TIP3    H158855   2.829  -0.021   1.838 -1.4365  0.6414  2.6755
12480TIP3    H258856   2.948   0.070   1.859  0.1559 -1.3745  2.7226
12481TIP3   OH258857   5.266   6.548  13.527  0.4207 -0.4233  0.5642
12481TIP3    H158858   5.284   6.579  13.616 -0.7128 -0.4313  0.8168
12481TIP3    H258859   5.289   6.621  13.470 -0.9083  0.4002  1.0480
12482TIP3   OH258860   4.941   6.358   4.638 -0.3424  0.0636  0.5872
12482TIP3    H158861   5.027   6.382   4.672  1.1864 -0.2357 -2.6847
12482TIP3    H258862   4.920   6.276   4.681  0.2400  0.8941  2.5665
12483TIP3   OH258863   2.119   3.628   4.389 -0.3165 -0.4718  0.0067
12483TIP3    H158864   2.082   3.541   4.404 -1.6543  0.1241  0.3338
12483TIP3    H258865   2.121   3.668   4.475 -2.5620  0.8730 -0.4690
12484TIP3   OH258866   3.959   3.777  11.663  0.5794 -0.1515 -0.0582
12484TIP3    H158867   3.976   3.730  11.582 -0.1388 -1.3328  0.4512
12484TIP3    H258868   3.864   3.776  11.673  0.6658 -0.1719  0.8831
12485TIP3   OH258869   0.658   2.064  16.777 -0.1218  0.0412 -0.5813
12485TIP3    H158870   0.582   2.108  16.814 -0.7752  0.3705 -2.2357
12485TIP3    H258871   0.728   2.078  16.841 -0.8031  1.8561 -0.1944
12486TIP3   OH258872   5.690   3.512  11.359 -0.5273  0.6163 -0.3229
12486TIP3    H158873   5.639   3.482  11.434  1.6742 -1.5558  0.4323
12486TIP3    H258874   5.627   3.514  11.287 -1.8241 -1.4736  0.6558
12487TIP3   OH258875   5.365   6.051   6.002 -0.5069 -0.0956 -0.1370
12487TIP3    H158876   5.393   6.081   6.088  1.6316 -0.0051 -0.8041
12487TIP3    H258877   5.270   6.061   6.003 -0.6742 -1.0532  2.5501
12488TIP3   OH258878   2.677   0.030   5.596 -0.4137  0.2562  0.1110
12488TIP3    H158879   2.721  -0.005   5.674  0.9409  1.7976  0.0758
12488TIP3    H258880   2.719  -0.014   5.522  0.0889  0.6745  0.1443
12489TIP3   OH258881   1.370   3.524   1.428 -0.9904  0.0217 -0.2144
12489TIP3    H158882   1.306   3.526   1.500  0.2665  0.2618  0.9328
12489TIP3    H258883   1.433   3.457   1.455  0.0068  0.7722 -0.6478
12490TIP3   OH258884   1.319   4.881   1.785 -0.0559 -0.7305  0.0155
12490TIP3    H158885   1.400   4.851   1.743  1.0937 -0.4702  1.9023
12490TIP3    H258886   1.268   4.919   1.714  1.9755  0.1043 -1.0918
12491TIP3   OH258887   5.010   3.376   3.557  0.4416  0.7231  0.2983
12491TIP3    H158888   4.981   3.285   3.557 -1.1517  1.1961 -0.2591
12491TIP3    H258889   5.081   3.378   3.492  0.1240 -0.0058 -0.0862
12492TIP3   OH258890   3.829   3.904   1.994  0.2363 -0.2173 -0.5084
12492TIP3    H158891   3.884   3.961   2.048  0.0750 -0.2133 -0.3495
12492TIP3    H258892   3.739   3.924   2.021  0.2148 -1.1797  0.1884
12493TIP3   OH258893   5.694   1.854  11.431 -0.8699  0.3938 -0.5425
12493TIP3    H158894   5.730   1.940  11.455 -0.5491  0.2245 -0.4158
12493TIP3    H258895   5.606   1.874  11.399 -1.0674  0.7004  0.1601
12494TIP3   OH258896   2.424   3.161   2.467 -0.0818 -0.5105 -0.2815
12494TIP3    H158897   2.440   3.068   2.451 -1.7976 -0.8738 -0.0492
12494TIP3    H258898   2.341   3.179   2.423 -0.6409  0.4894  1.1078
12495TIP3   OH258899   1.005   0.120  12.187  0.0516 -0.6502  0.0139
12495TIP3    H158900   0.999   0.047  12.249  0.0896 -0.5270  0.1650
12495TIP3    H258901   0.943   0.098  12.118  0.7344 -1.2721 -0.4112
12496TIP3   OH258902   1.360   4.277  12.646 -0.4784  0.0847  0.3046
12496TIP3    H158903   1.324   4.193  12.676  0.1527 -0.9459 -1.6574
12496TIP3    H258904   1.306   4.300  12.570  0.9118  0.1687 -0.6798
12497TIP3   OH258905   5.550   0.691  14.311  0.1303  0.1296  0.2557
12497TIP3    H158906   5.522   0.627  14.377 -1.8664 -0.6788 -1.2462
12497TIP3    H258907   5.625   0.735  14.350 -1.4465  0.3050  3.4197
12498TIP3   OH258908   1.598   0.728   3.091  0.0735  0.2214  0.0505
12498TIP3    H158909   1.694   0.734   3.086  0.0841  0.7684  0.7558
12498TIP3    H258910   1.577   0.645   3.047  1.0674 -1.0196  1.7669
12499TIP3   OH258911   0.653   0.774   5.568  0.2586 -0.2185 -0.6289
12499TIP3    H158912   0.693   0.805   5.487  0.7684  1.2528  0.1627
12499TIP3    H258913   0.718   0.790   5.636 -0.4595 -0.7066  0.2055
12500TIP3   OH258914   4.528   2.856  16.079  0.5839  0.7904 -0.1335
12500TIP3    H158915   4.463   2.851  16.149 -0.7972  1.5238 -1.2896
12500TIP3    H258916   4.603   2.807  16.111 -0.9756 -1.0840  0.8322
12501TIP3   OH258917   5.894   3.698   5.870  0.2734  0.1536 -0.9086
12501TIP3    H158918   5.919   3.682   5.779  2.0792 -0.4582 -0.3528
12501TIP3    H258919   5.872   3.612   5.905  2.4656 -0.1066 -0.0110
12502TIP3   OH258920   0.663   2.197  12.509  0.2408 -0.3969 -0.5828
12502TIP3    H158921   0.581   2.149  12.523  0.0360 -0.8076 -2.7836
12502TIP3    H258922   0.671   2.253  12.586 -1.9042 -0.6602 -0.0869
12503TIP3   OH258923   4.469   5.915   3.415  0.1906  0.8372 -0.5455
12503TIP3    H158924   4.398   5.932   3.352 -1.0343  0.0254  0.5756
12503TIP3    H258925   4.436   5.951   3.497  0.4226 -0.8938  0.3342
12504TIP3   OH258926   3.065   0.956  13.298 -0.1248 -0.5512  0.1881
12504TIP3    H158927   3.039   0.864  13.295 -2.9291  0.1144  1.2906
12504TIP3    H258928   3.009   0.999  13.235  1.9930  0.3223 -1.2096
12505TIP3   OH258929   3.607   2.820   1.729 -0.2295  0.2404  0.0247
12505TIP3    H158930   3.683   2.877   1.742  0.7844 -0.9103 -0.6915
12505TIP3    H258931   3.603   2.766   1.808 -0.3512  0.3475  0.0924
12506TIP3   OH258932   6.173   0.260   1.025  0.5619  0.1248  0.4513
12506TIP3    H158933   6.219   0.344   1.032  0.6954  0.1035 -0.1089
12506TIP3    H258934   6.233   0.204   0.976 -0.0367  0.0835 -0.2559
12507TIP3   OH258935   1.736   1.715  13.110  0.1712  0.0255  0.0134
12507TIP3    H158936   1.765   1.719  13.019  0.8503 -1.1019  0.1615
12507TIP3    H258937   1.642   1.695  13.105  0.4184 -1.0811 -0.4454
12508TIP3   OH258938   4.720   2.313   0.749  0.0524  0.4975  0.1186
12508TIP3    H158939   4.686   2.386   0.800 -1.0459  1.5400 -1.9601
12508TIP3    H258940   4.725   2.346   0.659 -1.1465 -2.1401 -1.0603
12509TIP3   OH258941   3.100   2.564  15.911  0.1703  0.7137  0.0822
12509TIP3    H158942   3.072   2.519  15.831 -3.0475  1.1379  0.8054
12509TIP3    H258943   3.190   2.536  15.925 -0.0659 -1.5319 -2.1928
12510TIP3   OH258944   1.123   4.253  15.688  0.5778 -0.1863  0.2325
12510TIP3    H158945   1.042   4.296  15.659 -0.0665 -1.0308  0.7497
12510TIP3    H258946   1.102   4.160  15.687  0.4599 -0.2946  3.4973
12511TIP3   OH258947   2.649   2.090   4.035 -0.6811 -0.6474  0.1280
12511TIP3    H158948   2.593   2.157   3.996 -1.8252 -0.5115  1.9276
12511TIP3    H258949   2.699   2.137   4.102  0.0102 -1.2033  0.0107
12512TIP3   OH258950   3.711   0.165   3.787  0.1964 -0.6144  0.3384
12512TIP3    H158951   3.653   0.233   3.753  0.0761 -0.5976  0.5728
12512TIP3    H258952   3.740   0.117   3.710 -0.5819 -0.9851  0.2609
12513TIP3   OH258953   2.557   3.926  11.327 -0.1982 -0.2505  0.0028
12513TIP3    H158954   2.563   4.012  11.284 -0.6895 -0.1151  0.1966
12513TIP3    H258955   2.520   3.868  11.261  0.4005 -0.3817 -0.2202
12514TIP3   OH258956   6.148   4.313   5.164 -0.1355 -0.3966  0.2663
12514TIP3    H158957   6.180   4.377   5.101  0.5767  0.3164  1.3144
12514TIP3    H258958   6.052   4.322   5.162 -0.0095  1.9181  1.5834
12515TIP3   OH258959   1.672   2.791  14.993 -0.2845  0.1344  0.8253
12515TIP3    H158960   1.720   2.722  14.946  0.0150  0.3319  0.8367
12515TIP3    H258961   1.580   2.768  14.983 -0.2010 -0.0714  0.5259
12516TIP3   OH258962   3.920   6.315  12.894  0.4247  0.3231 -0.4269
12516TIP3    H158963   3.829   6.320  12.923  0.7700 -0.3281  0.8339
12516TIP3    H258964   3.963   6.260  12.959  1.7981  0.8820 -0.8263
12517TIP3   OH258965   2.094   3.418   0.117 -0.0229  0.3794  0.1264
12517TIP3    H158966   2.100   3.395   0.024  0.4303 -1.1994  0.5037
12517TIP3    H258967   2.169   3.474   0.134  0.1435  0.3074 -0.3739
12518TIP3   OH258968   3.062   3.213   5.124 -0.3437  0.4174  0.8595
12518TIP3    H158969   3.087   3.218   5.216  1.7403  0.1620  0.3772
12518TIP3    H258970   3.124   3.270   5.079 -1.8109  1.1438 -0.3309
12519TIP3   OH258971   6.735   1.963  17.176 -0.6673  0.2239  0.0981
12519TIP3    H158972   6.661   1.906  17.155  0.0781 -0.3239 -1.1229
12519TIP3    H258973   6.722   2.041  17.122 -0.3414  0.1200 -0.1313
12520TIP3   OH258974   5.805   5.471  10.473 -0.5666 -0.0430  0.0449
12520TIP3    H158975   5.831   5.495  10.562 -1.7490  0.7061  0.2098
12520TIP3    H258976   5.876   5.504  10.418 -1.3990  2.6237  0.4125
12521TIP3   OH258977   4.419   2.785  17.166 -0.0876 -0.1854  0.2718
12521TIP3    H158978   4.448   2.822  17.250  1.3702 -0.0311 -0.2690
12521TIP3    H258979   4.327   2.762  17.181  0.2182 -0.4674  2.0086
12522TIP3   OH258980   3.528   2.465  16.231  0.1985 -0.0181 -0.1006
12522TIP3    H158981   3.438   2.465  16.265  0.6374 -1.4954  1.1735
12522TIP3    H258982   3.579   2.510  16.297  0.4596  0.5759 -0.6967
12523TIP3   OH258983   4.516   1.536  13.139 -0.0278  0.3885  0.1285
12523TIP3    H158984   4.540   1.446  13.158  0.3515  0.5092  0.2420
12523TIP3    H258985   4.578   1.588  13.191  2.6854  0.7877 -3.1630
12524TIP3   OH258986   3.455   4.324   3.124 -0.1887  0.1576  0.4998
12524TIP3    H158987   3.539   4.370   3.130 -0.3148  0.3750  0.6027
12524TIP3    H258988   3.468   4.260   3.054 -0.1779  0.7059 -0.0144
12525TIP3   OH258989   6.246   2.090   0.920 -0.0877  0.6878 -0.4305
12525TIP3    H158990   6.226   2.040   1.000 -1.3867  0.6460 -0.7666
12525TIP3    H258991   6.166   2.085   0.868  0.6027  1.0848 -1.5547
12526TIP3   OH258992   4.719   0.254  12.135  0.1857  0.5803  0.3662
12526TIP3    H158993   4.739   0.163  12.116 -0.0478  0.6576 -0.2581
12526TIP3    H258994   4.710   0.295  12.049  0.6441  1.2682  0.6410
12527TIP3   OH258995   3.068   0.402  12.640  0.7838  0.2053 -0.2561
12527TIP3    H158996   3.072   0.309  12.664  1.3600  0.7358  1.9025
12527TIP3    H258997   2.991   0.435  12.688  0.9978  0.9921 -0.4459
12528TIP3   OH258998   3.326   1.397  13.809 -0.0324  0.4676 -0.3225
12528TIP3    H158999   3.356   1.348  13.886 -0.1246  0.4275 -0.3124
12528TIP3    H259000   3.298   1.481  13.844  0.7510  0.7792 -0.4211
12529TIP3   OH259001   6.396   4.273  14.146 -0.2225 -0.1417  0.0310
12529TIP3    H159002   6.444   4.193  14.168  0.1138  0.0295 -0.0681
12529TIP3    H259003   6.348   4.295  14.226 -0.1882 -0.3515  0.1101
12530TIP3   OH259004   1.553   4.705   0.489 -0.2868  1.1021 -0.4603
12530TIP3    H159005   1.562   4.691   0.584 -2.1533  0.0450 -0.3882
12530TIP3    H259006   1.591   4.627   0.450  0.5712  1.5829 -0.6073
12531TIP3   OH259007   3.991   2.611  15.262  0.2267  0.4945 -0.4426
12531TIP3    H159008   4.036   2.688  15.228 -0.9196  1.3347 -0.1584
12531TIP3    H259009   3.938   2.645  15.335 -0.2182 -0.5830 -0.2367
12532TIP3   OH259010   4.799   1.597   1.745  0.1990  0.0441 -0.5260
12532TIP3    H159011   4.709   1.569   1.762 -0.5110  1.8739 -1.0392
12532TIP3    H259012   4.798   1.691   1.760  2.3309 -0.0431  0.5642
12533TIP3   OH259013   4.143   4.217   1.021 -0.7452  0.1152  0.3064
12533TIP3    H159014   4.158   4.243   1.112 -1.1850  0.8712  0.1658
12533TIP3    H259015   4.225   4.176   0.995 -0.9218 -0.9466  1.3251
12534TIP3   OH259016   2.119   4.801  12.943 -0.5191  0.0010 -0.3713
12534TIP3    H159017   2.148   4.719  12.984  0.4028  0.0209 -0.9552
12534TIP3    H259018   2.087   4.854  13.016  1.2800  0.1155  0.3908
12535TIP3   OH259019   4.627   1.746  12.603 -0.5773 -0.1637  0.4915
12535TIP3    H159020   4.672   1.662  12.593 -2.5733 -1.1019 -1.4638
12535TIP3    H259021   4.540   1.731  12.565 -1.4248  2.4596  1.2081
12536TIP3   OH259022   4.515   0.751  16.260  0.0553 -0.4968  0.0944
12536TIP3    H159023   4.436   0.721  16.216 -0.5292 -0.1580  0.8891
12536TIP3    H259024   4.561   0.671  16.284 -1.2250 -0.8048  1.7125
12537TIP3   OH259025   6.175   6.050  12.570 -0.0028 -0.2740 -0.2394
12537TIP3    H159026   6.267   6.068  12.548 -0.0529 -1.5113 -1.6194
12537TIP3    H259027   6.125   6.094  12.502 -0.4655  0.4261  0.5333
12538TIP3   OH259028   5.296   1.012   0.945 -0.5376 -0.4812  0.1143
12538TIP3    H159029   5.221   0.957   0.922 -1.0760  0.7098 -1.1834
12538TIP3    H259030   5.276   1.045   1.032 -0.5710 -1.6949  0.5833
12539TIP3   OH259031   4.216   6.351  13.736  0.2910  0.1904 -0.6614
12539TIP3    H159032   4.151   6.388  13.676  0.1968  0.5513 -0.3414
12539TIP3    H259033   4.226   6.260  13.708  0.5560  0.4589 -1.4883
12540TIP3   OH259034   6.492   1.471   1.299  0.3885 -0.6514 -0.2268
12540TIP3    H159035   6.444   1.407   1.246 -1.5452 -0.0441  0.7302
12540TIP3    H259036   6.531   1.418   1.369 -1.8398 -0.7583  1.0083
12541TIP3   OH259037   2.567   0.769  13.554 -0.2716  0.6037 -0.2851
12541TIP3    H159038   2.661   0.767  13.570 -0.4943 -0.9334  1.1019
12541TIP3    H259039   2.551   0.698  13.491 -0.3870  1.5946 -1.4056
12542TIP3   OH259040   3.082   6.700   3.765 -0.0073  0.3283 -0.3512
12542TIP3    H159041   3.065   6.655   3.847  0.0279  1.7199  0.4626
12542TIP3    H259042   3.177   6.700   3.757 -0.0491 -1.6921 -1.5385
12543TIP3   OH259043   0.477   6.485   4.015  0.3679  0.1026 -0.4827
12543TIP3    H159044   0.564   6.504   3.979 -0.0780  0.6793 -1.2981
12543TIP3    H259045   0.417   6.519   3.949 -0.4811 -0.9397 -0.2593
12544TIP3   OH259046   0.270   1.050  15.845 -0.3770 -0.1617  0.2466
12544TIP3    H159047   0.201   1.116  15.854 -1.6674 -1.0646 -2.0212
12544TIP3    H259048   0.228   0.968  15.870  0.4992 -0.4664  0.7542
12545TIP3   OH259049   5.629   4.709   5.791 -0.3015 -0.2267 -0.1309
12545TIP3    H159050   5.548   4.758   5.805 -0.1045  0.3072 -0.8080
12545TIP3    H259051   5.613   4.659   5.712  0.5813  1.1038 -1.1861
12546TIP3   OH259052   1.656   6.099   0.097  0.0060 -0.2425  0.1766
12546TIP3    H159053   1.683   6.169   0.157  1.8928  0.1443 -1.0189
12546TIP3    H259054   1.667   6.019   0.147 -1.7221  0.2401  1.4105
12547TIP3   OH259055   0.921   5.466   4.227  0.5176 -0.2471 -0.0560
12547TIP3    H159056   0.907   5.427   4.141  0.0792  0.9480 -0.5416
12547TIP3    H259057   0.946   5.556   4.209 -0.7599  0.3680  1.1073
12548TIP3   OH259058   0.304   0.159   5.051 -0.0822  0.0380  0.0576
12548TIP3    H159059   0.376   0.167   4.989  0.0192 -0.8952  0.0434
12548TIP3    H259060   0.267   0.247   5.057  0.1089  0.2074 -1.0885
12549TIP3   OH259061   2.632   3.088  14.994 -0.3505  0.1659  0.0092
12549TIP3    H159062   2.581   3.039  14.929 -2.6870  2.6451 -0.2149
12549TIP3    H259063   2.709   3.117  14.946 -0.9353  0.0577 -1.0353
12550TIP3   OH259064   2.793   6.737  13.175  0.4980 -0.3269  0.1792
12550TIP3    H159065   2.852   6.804  13.210  0.8144 -0.2224 -0.5287
12550TIP3    H259066   2.718   6.785  13.141  0.6338 -0.3420 -0.1485
12551TIP3   OH259067   5.193   0.328  16.636 -0.0702  0.4406 -0.0190
12551TIP3    H159068   5.206   0.236  16.662  2.2724  0.6285 -0.2703
12551TIP3    H259069   5.099   0.338  16.630 -0.4768 -1.4853  1.7242
12552TIP3   OH259070   5.868   2.461  12.295  0.1784  0.2752 -0.3384
12552TIP3    H159071   5.840   2.549  12.321 -0.0981  0.3747 -0.9393
12552TIP3    H259072   5.801   2.403  12.332  0.3711  0.3193  0.0740
12553TIP3   OH259073   1.227   2.059  14.739  0.3785  0.4342 -0.2448
12553TIP3    H159074   1.207   1.970  14.711  1.3729  0.3055 -0.5795
12553TIP3    H259075   1.201   2.114  14.664  0.3015  0.3678 -0.2669
12554TIP3   OH259076   3.668   1.331   6.505  0.0640 -0.2624 -0.2809
12554TIP3    H159077   3.724   1.268   6.459 -0.0397  0.0091 -0.7847
12554TIP3    H259078   3.618   1.374   6.435  1.2480  1.4743 -0.1096
12555TIP3   OH259079   3.174   2.359   5.623 -0.5255  0.1222 -0.2992
12555TIP3    H159080   3.094   2.317   5.592  0.3809 -0.6773 -1.6766
12555TIP3    H259081   3.177   2.338   5.716 -2.2536  0.7639 -0.0630
12556TIP3   OH259082   4.791   1.339   4.042 -0.0528 -0.1414 -0.4367
12556TIP3    H159083   4.705   1.381   4.035  0.5780  1.1017 -0.8883
12556TIP3    H259084   4.810   1.306   3.955  0.8132  1.4119 -0.8764
12557TIP3   OH259085   3.449   1.731  13.749 -0.5479  0.1264  0.9251
12557TIP3    H159086   3.388   1.682  13.696 -0.0515 -0.4191  0.8525
12557TIP3    H259087   3.438   1.696  13.838 -0.0651 -0.2531  0.8402
12558TIP3   OH259088   3.240   5.742   4.527  0.3407  0.2645 -0.3438
12558TIP3    H159089   3.148   5.748   4.552  0.6802 -0.0103  1.0263
12558TIP3    H259090   3.253   5.651   4.500  0.2647  0.2518 -0.3364
12559TIP3   OH259091   3.770   0.887  13.909  0.0328 -0.0162  0.2188
12559TIP3    H159092   3.713   0.812  13.927 -0.9405  0.4530 -0.7742
12559TIP3    H259093   3.710   0.962  13.908  1.0545  0.8508  1.6490
12560TIP3   OH259094   6.599   5.448   3.446 -0.2756  0.0252  0.1869
12560TIP3    H159095   6.592   5.456   3.542 -0.2643 -1.6147  0.3508
12560TIP3    H259096   6.688   5.476   3.426 -0.0230 -0.3604  0.7511
12561TIP3   OH259097   1.457   0.401  16.540 -0.4640 -0.3052  0.3388
12561TIP3    H159098   1.517   0.405  16.614 -0.4347 -0.4938  0.3261
12561TIP3    H259099   1.371   0.424  16.576 -0.1593  1.3206  0.0891
12562TIP3   OH259100   5.459   6.583  15.517 -0.0442 -1.2647 -1.1214
12562TIP3    H159101   5.480   6.549  15.604  0.0241  1.4356  0.0110
12562TIP3    H259102   5.540   6.624  15.487 -1.2400  2.0094 -0.2865
12563TIP3   OH259103   4.413   3.493   5.291 -0.5243  0.3123  0.8920
12563TIP3    H159104   4.351   3.502   5.364 -1.2703 -0.0229  0.3132
12563TIP3    H259105   4.377   3.422   5.238  0.5747 -0.1660  0.7549
12564TIP3   OH259106   6.002   3.780   4.428 -0.0355 -0.0210  0.2632
12564TIP3    H159107   5.922   3.788   4.375 -0.3258 -0.2713  0.6590
12564TIP3    H259108   6.071   3.819   4.373 -0.5658  0.9332  0.2449
12565TIP3   OH259109   6.151   0.979  11.365 -0.0915 -0.1418  0.3189
12565TIP3    H159110   6.078   1.037  11.344  0.7156  0.9118  0.3543
12565TIP3    H259111   6.179   1.006  11.452  1.2225  0.4333 -0.2500
12566TIP3   OH259112   6.070   5.157   1.822  0.1769 -0.5584 -0.1043
12566TIP3    H159113   6.053   5.240   1.867  0.7951 -0.3968 -0.1610
12566TIP3    H259114   6.105   5.099   1.890  1.8944 -0.0597 -0.5134
12567TIP3   OH259115   6.218   2.019  14.912 -0.0041 -0.0039 -0.9634
12567TIP3    H159116   6.195   2.054  14.998 -0.3115 -0.8505 -0.6927
12567TIP3    H259117   6.270   1.940  14.932 -0.7562 -0.6590 -1.5331
12568TIP3   OH259118   3.194   4.295   6.915 -0.3774  0.1026 -0.3758
12568TIP3    H159119   3.161   4.206   6.922  0.2554 -0.3412 -2.3005
12568TIP3    H259120   3.180   4.318   6.823  2.7974  0.5837 -0.8516
12569TIP3   OH259121   4.344   2.026  11.905  0.2413 -0.5095  0.0962
12569TIP3    H159122   4.314   2.006  11.816 -1.5168 -0.9532  0.7448
12569TIP3    H259123   4.335   1.943  11.952  0.9551 -0.2238  0.7586
12570TIP3   OH259124   6.477   4.633  15.659 -0.7390  0.0387 -0.0462
12570TIP3    H159125   6.566   4.629  15.693  0.2601  0.0611 -2.4112
12570TIP3    H259126   6.422   4.651  15.735  1.1663 -0.7932  1.6164
12571TIP3   OH259127   6.537   4.778   0.690  0.0728  0.6170 -0.0558
12571TIP3    H159128   6.484   4.739   0.621  1.4376  0.3795 -1.0097
12571TIP3    H259129   6.483   4.850   0.724 -0.9520  0.2193 -0.8024
12572TIP3   OH259130   1.354   3.860  16.494  0.5560  0.0931 -0.0008
12572TIP3    H159131   1.293   3.926  16.528  0.0512  0.1582 -0.9978
12572TIP3    H259132   1.390   3.900  16.414 -1.2068 -1.5511 -1.7206
12573TIP3   OH259133   6.244   5.269   0.118 -0.3781 -0.0040 -0.0642
12573TIP3    H159134   6.229   5.251   0.025  0.1346  1.9443 -0.5579
12573TIP3    H259135   6.227   5.185   0.161 -1.1408 -0.8164 -1.8420
12574TIP3   OH259136   2.869   3.927   1.766  0.2725  0.0906 -0.2143
12574TIP3    H159137   2.821   3.999   1.726  0.5524  0.1075 -0.5243
12574TIP3    H259138   2.813   3.850   1.755 -0.3567  0.4014  0.7718
12575TIP3   OH259139   4.654   0.487   3.318 -0.0247 -0.1467 -0.2049
12575TIP3    H159140   4.706   0.566   3.302 -0.8499  0.3279 -0.6263
12575TIP3    H259141   4.718   0.418   3.333  0.7299  0.9262  1.8525
12576TIP3   OH259142   0.366   2.601   3.191  0.0538 -0.0695  0.8752
12576TIP3    H159143   0.411   2.569   3.113 -0.2179 -0.2032  0.7702
12576TIP3    H259144   0.411   2.682   3.213 -0.0664  0.1369  0.3862
12577TIP3   OH259145   2.539   2.020   6.296  0.5940  0.4737  1.0593
12577TIP3    H159146   2.493   1.953   6.346  0.6759 -0.8876 -0.6360
12577TIP3    H259147   2.481   2.096   6.300 -0.7995 -0.5339  0.7593
12578TIP3   OH259148   2.490   5.255  14.589 -0.4298  0.1595 -0.3176
12578TIP3    H159149   2.511   5.215  14.504  0.0142  2.4239 -1.3482
12578TIP3    H259150   2.574   5.255  14.636 -0.3581  0.1914 -0.4448
12579TIP3   OH259151   4.622   5.629   1.896  0.5536  0.4507 -0.2475
12579TIP3    H159152   4.653   5.682   1.823 -3.6633  1.6336 -1.4878
12579TIP3    H259153   4.625   5.539   1.863  1.7110  0.6140 -0.6186
12580TIP3   OH259154   5.150   0.738   2.340  0.1660  0.6308  0.1969
12580TIP3    H159155   5.186   0.805   2.282 -0.1507  1.3136  0.7664
12580TIP3    H259156   5.224   0.713   2.396  0.0278  1.3104  0.7051
12581TIP3   OH259157   3.916   2.332  13.520 -0.5444 -0.3775 -0.7343
12581TIP3    H159158   3.970   2.402  13.483  1.0359  0.6021  2.9599
12581TIP3    H259159   3.970   2.253  13.513  1.0995  0.3840  1.9214
12582TIP3   OH259160   2.502   3.080   2.843  1.2106 -0.2435  0.0485
12582TIP3    H159161   2.566   3.091   2.772  2.5225 -0.9373  1.0941
12582TIP3    H259162   2.536   3.008   2.896 -0.4421 -0.6313  0.6541
12583TIP3   OH259163   2.173   6.335   2.198 -0.6114 -0.0297 -0.9303
12583TIP3    H159164   2.266   6.347   2.176  0.9493  0.6932  4.5710
12583TIP3    H259165   2.149   6.414   2.246 -4.2588 -0.1843 -2.1777
12584TIP3   OH259166   4.545   2.085   0.746  0.2319 -0.1939 -0.5657
12584TIP3    H159167   4.583   2.173   0.741 -0.5279  0.0867 -1.5446
12584TIP3    H259168   4.453   2.097   0.724 -0.2799 -0.9934  0.9644
12585TIP3   OH259169   1.521   3.947  14.363 -0.1327  0.2846  0.0041
12585TIP3    H159170   1.556   4.033  14.388  0.2211  0.2962 -0.5129
12585TIP3    H259171   1.599   3.891  14.357 -0.4168 -0.2157  0.8825
12586TIP3   OH259172   2.144   6.182  14.212 -0.3151 -0.1269 -0.5891
12586TIP3    H159173   2.157   6.123  14.138 -0.6980  1.8002 -2.3091
12586TIP3    H259174   2.058   6.159  14.247  0.6780 -2.3379  0.5700
12587TIP3   OH259175   2.955   2.894  15.005 -0.3044  0.3902  0.2835
12587TIP3    H159176   2.984   2.985  14.996 -0.9162  0.4729 -1.0389
12587TIP3    H259177   2.946   2.862  14.915 -1.1987 -0.6283  0.7099
12588TIP3   OH259178   2.150   2.333   3.561  0.0483 -0.9030 -0.2572
12588TIP3    H159179   2.194   2.291   3.635  0.4607  0.8071  0.5294
12588TIP3    H259180   2.118   2.260   3.507 -0.3633 -2.2207  1.6510
12589TIP3   OH259181   4.932   5.339   0.390  0.0110 -0.3125  0.4356
12589TIP3    H159182   5.011   5.384   0.418 -0.2618 -0.0271  0.7585
12589TIP3    H259183   4.952   5.246   0.400 -0.4160 -0.2170  2.5975
12590TIP3   OH259184   6.587   0.110   5.313  0.0944  0.3046  0.1488
12590TIP3    H159185   6.660   0.141   5.366 -1.3762  1.6001  1.5176
12590TIP3    H259186   6.620   0.113   5.223  1.5871  1.2823  0.6885
12591TIP3   OH259187   4.711   0.014   1.941 -0.1673 -0.1807 -0.0219
12591TIP3    H159188   4.623   0.015   1.905 -1.0058 -0.1150  1.9118
12591TIP3    H259189   4.757   0.083   1.893 -1.8678  1.4157  0.5408
12592TIP3   OH259190   3.619   4.277  16.692 -0.2334  0.2961  0.3258
12592TIP3    H159191   3.562   4.226  16.634  0.4486  2.1130 -2.1487
12592TIP3    H259192   3.560   4.330  16.744 -0.8942  0.9074 -0.9887
12593TIP3   OH259193   0.785   2.785  12.687  0.0078  0.1004 -0.0733
12593TIP3    H159194   0.699   2.808  12.652 -0.2749 -0.9533 -0.1347
12593TIP3    H259195   0.766   2.717  12.752  0.8202 -0.3713 -0.3209
12594TIP3   OH259196   6.387   1.723  11.730 -0.3342 -0.3699  0.0242
12594TIP3    H159197   6.324   1.776  11.680 -0.7732 -0.3027  0.6286
12594TIP3    H259198   6.333   1.653  11.768 -0.1393 -0.0162  0.9698
12595TIP3   OH259199   3.896   1.134   1.687 -0.3441  0.4515 -0.2813
12595TIP3    H159200   3.877   1.115   1.595 -0.7626 -1.0246  0.0761
12595TIP3    H259201   3.989   1.114   1.697 -0.7160 -1.3008  0.0225
12596TIP3   OH259202   0.165   4.638  14.906 -0.0980  0.1360 -0.3242
12596TIP3    H159203   0.084   4.587  14.898 -0.4343  0.7327 -0.8288
12596TIP3    H259204   0.171   4.660  14.999  0.6978 -1.8382  0.1489
12597TIP3   OH259205   5.328   2.840  16.691  0.1781  0.6894 -0.0568
12597TIP3    H159206   5.270   2.774  16.654  0.8436  0.2875 -0.4230
12597TIP3    H259207   5.271   2.912  16.716 -0.5079  0.1565 -0.0752
12598TIP3   OH259208   6.037   6.095   0.053  0.3570 -0.5079 -0.6261
12598TIP3    H159209   5.943   6.110   0.061  0.0302 -2.7259  0.2482
12598TIP3    H259210   6.063   6.146  -0.025 -2.0054 -1.6602 -2.2823
12599TIP3   OH259211   3.975   2.371   6.099  0.2864 -0.6181  0.1250
12599TIP3    H159212   3.924   2.371   6.181 -0.7313 -1.9280 -0.4683
12599TIP3    H259213   3.930   2.434   6.043  2.3344  2.0974  1.2722
12600TIP3   OH259214   5.902   1.358   3.046  0.1669 -0.4403  0.2200
12600TIP3    H159215   5.976   1.347   3.105  0.7159 -3.0964 -0.8177
12600TIP3    H259216   5.940   1.396   2.967  0.3334 -1.2134 -0.0808
12601TIP3   OH259217   0.452   2.354   5.133  0.1527 -0.0542  0.2825
12601TIP3    H159218   0.484   2.333   5.045  0.1830  0.3597  0.1955
12601TIP3    H259219   0.370   2.400   5.118  1.6810  2.9292  0.3166
12602TIP3   OH259220   1.020   2.673  12.242 -0.2707  0.2108  0.0194
12602TIP3    H159221   0.947   2.718  12.200 -0.8659  1.1434  1.9635
12602TIP3    H259222   0.985   2.586  12.263 -0.1257 -0.0840 -0.8852
12603TIP3   OH259223   2.695   1.371   5.690 -0.0443  0.6726 -0.5672
12603TIP3    H159224   2.621   1.320   5.725 -2.3206  2.9272 -1.7650
12603TIP3    H259225   2.714   1.435   5.759  1.1879 -0.2055 -0.0596
12604TIP3   OH259226   3.585   4.380  15.822 -0.2476  0.7269 -0.0322
12604TIP3    H159227   3.517   4.439  15.790 -0.5027 -0.1597 -1.2438
12604TIP3    H259228   3.665   4.411  15.779 -0.5378 -0.2867 -1.3860
12605TIP3   OH259229   2.079   0.004   3.065 -0.0161 -0.1136  0.2733
12605TIP3    H159230   2.053  -0.071   3.118 -1.1319 -0.5533 -0.8470
12605TIP3    H259231   2.068   0.080   3.122 -1.3547 -0.5591  0.6290
12606TIP3   OH259232   5.355   0.687   2.506  0.0124  0.2434  0.0885
12606TIP3    H159233   5.364   0.756   2.571  2.2198  1.7742 -1.6801
12606TIP3    H259234   5.397   0.611   2.546  1.5427  1.2211  0.4265
12607TIP3   OH259235   5.605   3.235   2.532 -0.1027  0.0695  0.2303
12607TIP3    H159236   5.594   3.311   2.589  0.0247  0.2093  0.0711
12607TIP3    H259237   5.625   3.273   2.446 -4.1507  0.0327 -0.9065
12608TIP3   OH259238   1.258   1.678   5.904 -0.9155 -0.2295 -0.5351
12608TIP3    H159239   1.272   1.721   5.819 -1.8750  1.9380  0.3107
12608TIP3    H259240   1.166   1.654   5.904 -1.6353  2.1113  0.7550
12609TIP3   OH259241   2.018   1.389   3.877  0.0348 -0.3016 -0.4489
12609TIP3    H159242   1.996   1.296   3.877 -1.2987 -0.0023 -0.3488
12609TIP3    H259243   2.077   1.400   3.951 -1.4651 -0.7047  0.8572
12610TIP3   OH259244   6.528   2.231   1.482  0.0916 -0.0587  0.2605
12610TIP3    H159245   6.527   2.227   1.578 -2.5099 -1.4606  0.2753
12610TIP3    H259246   6.520   2.324   1.462 -2.5499  0.0964  1.5412
12611TIP3   OH259247   6.252   1.553   3.678 -0.0209 -0.2077  0.3503
12611TIP3    H159248   6.308   1.630   3.686 -0.4325  0.0916  0.3930
12611TIP3    H259249   6.165   1.584   3.703 -0.1351 -0.7581  0.6517
12612TIP3   OH259250   5.496   2.841   1.553 -1.0389  0.1130 -0.0955
12612TIP3    H159251   5.423   2.861   1.612  0.7653 -0.2483  2.4535
12612TIP3    H259252   5.566   2.810   1.612  2.1654  3.0432 -1.9882
12613TIP3   OH259253   6.305   0.845   5.475  0.4640 -0.2563  0.5990
12613TIP3    H159254   6.297   0.838   5.380 -0.1206  0.7600  0.5593
12613TIP3    H259255   6.217   0.868   5.505  1.2131  2.2585  1.0851
12614TIP3   OH259256   1.849   3.379   2.987  0.5536 -0.2406  0.2019
12614TIP3    H159257   1.856   3.285   2.968  0.5351 -0.3797  0.8376
12614TIP3    H259258   1.939   3.411   2.982  0.5190 -0.2230 -0.3450
12615TIP3   OH259259   0.217   6.188   4.264 -0.7220  0.3878 -0.4560
12615TIP3    H159260   0.165   6.258   4.302 -1.7150 -1.2821  1.4609
12615TIP3    H259261   0.304   6.226   4.252 -1.0724  1.7693  1.0694
12616TIP3   OH259262   3.065   0.418  16.965 -0.2056 -0.1855 -0.8938
12616TIP3    H159263   3.122   0.346  16.937  1.3181  1.3166 -1.8762
12616TIP3    H259264   2.986   0.409  16.911 -0.0077 -1.0772 -1.0457
12617TIP3   OH259265   3.910   4.673   4.228 -0.2994 -0.1640  0.0875
12617TIP3    H159266   3.819   4.698   4.243 -0.1022 -0.2150  1.4770
12617TIP3    H259267   3.905   4.588   4.184 -0.9151  0.0442 -0.2625
12618TIP3   OH259268   6.509   2.877  14.238 -0.1208  0.8591 -0.2611
12618TIP3    H159269   6.554   2.820  14.175  0.5610  1.0281  0.0544
12618TIP3    H259270   6.507   2.963  14.196 -0.3467  0.8020 -0.3665
12619TIP3   OH259271   4.577   3.627  14.695  0.2843 -0.6205 -0.4066
12619TIP3    H159272   4.580   3.596  14.605  0.2647  0.7024 -0.8938
12619TIP3    H259273   4.485   3.648  14.711  0.1156 -1.8264  0.2880
12620TIP3   OH259274   3.495   0.440  17.152 -0.1671 -0.1886  0.4050
12620TIP3    H159275   3.509   0.349  17.178 -1.7717 -1.0031 -1.3935
12620TIP3    H259276   3.561   0.456  17.085 -1.1826 -0.7274 -0.7534
12621TIP3   OH259277   0.520   3.083  12.525 -0.1138  0.2302  0.2019
12621TIP3    H159278   0.504   3.177  12.535 -0.8994  0.0002  1.3532
12621TIP3    H259279   0.529   3.070  12.431 -0.7608  1.3566 -0.0354
12622TIP3   OH259280   1.201   2.525  14.480 -0.1326  0.1130 -0.1553
12622TIP3    H159281   1.283   2.480  14.463 -0.9375 -0.8223 -1.8101
12622TIP3    H259282   1.183   2.575  14.400  0.9302  3.9142  1.7047
12623TIP3   OH259283   2.549   1.342  11.689  0.0035  0.2600 -0.2463
12623TIP3    H159284   2.492   1.272  11.721 -0.1400 -0.4940 -2.0426
12623TIP3    H259285   2.512   1.422  11.726 -0.8714 -0.4391  0.4267
12624TIP3   OH259286   0.650   1.286  16.375  0.2092  0.1734  0.2491
12624TIP3    H159287   0.561   1.251  16.383  0.5648 -0.2979  3.1752
12624TIP3    H259288   0.701   1.214  16.339  0.0700 -0.8697  2.0338
12625TIP3   OH259289   2.503   5.775   2.659  0.3214 -0.3635 -0.5362
12625TIP3    H159290   2.578   5.761   2.716  0.6297 -0.3138 -0.9234
12625TIP3    H259291   2.429   5.788   2.719  0.5426 -0.8212 -0.1596
12626TIP3   OH259292   5.371   2.849   0.966  0.1923 -0.1339 -0.1684
12626TIP3    H159293   5.319   2.779   0.926 -1.1569 -0.0286  1.2706
12626TIP3    H259294   5.452   2.806   0.992 -0.7477 -1.3234  1.0042
12627TIP3   OH259295   1.723   0.004   0.735  0.6804 -0.0540 -0.2374
12627TIP3    H159296   1.740   0.028   0.826 -0.1113 -1.3014  0.2710
12627TIP3    H259297   1.799  -0.047   0.709  1.2745  0.9602 -0.5555
12628TIP3   OH259298   4.308   1.168   4.624  0.3481 -0.1582 -0.5378
12628TIP3    H159299   4.269   1.086   4.595  0.7857 -0.0830 -1.3717
12628TIP3    H259300   4.333   1.213   4.543 -1.9803  1.8668 -0.2631
12629TIP3   OH259301   2.984   1.800   1.702 -0.0911  0.6879 -0.3967
12629TIP3    H159302   2.892   1.800   1.729 -0.5547  0.8449 -1.8896
12629TIP3    H259303   3.026   1.864   1.758 -0.6265 -0.2431  1.1276
12630TIP3   OH259304   0.786   6.376  14.554  0.2139 -0.3604  0.0153
12630TIP3    H159305   0.737   6.315  14.609 -0.6634 -0.5446 -0.9369
12630TIP3    H259306   0.720   6.414  14.496  0.5420  2.2531  1.2067
12631TIP3   OH259307   6.352   3.022   1.531  0.2814 -0.0734  0.4353
12631TIP3    H159308   6.416   2.974   1.479  0.6407 -0.8147  1.5400
12631TIP3    H259309   6.383   3.113   1.529  1.8733 -0.5427  1.6522
12632TIP3   OH259310   3.927   4.885  15.899 -0.1714 -0.0135  0.6817
12632TIP3    H159311   3.937   4.897  15.805 -0.2349 -1.9585  0.3888
12632TIP3    H259312   3.924   4.790  15.911 -2.7866  0.1925  2.3831
12633TIP3   OH259313   1.084   5.368  15.068 -0.2477  0.2117  0.6250
12633TIP3    H159314   1.013   5.353  15.006 -0.5430  1.1179  0.7202
12633TIP3    H259315   1.131   5.285  15.071 -0.5375 -0.0135 -0.4116
12634TIP3   OH259316   4.736   6.268  16.980 -0.5447 -0.5162 -0.1095
12634TIP3    H159317   4.677   6.320  17.034 -2.6042 -1.1099 -1.6637
12634TIP3    H259318   4.795   6.331  16.940 -1.8200  0.4427 -0.5353
12635TIP3   OH259319   4.101   4.044  13.546  0.4484  0.0014 -0.0372
12635TIP3    H159320   4.054   3.971  13.587 -0.8840  1.6540  1.5721
12635TIP3    H259321   4.063   4.052  13.459 -0.5713 -0.2321  0.3709
12636TIP3   OH259322   1.661   2.843  14.439 -0.0736  0.6553  0.3519
12636TIP3    H159323   1.660   2.772  14.504  0.8048  0.4592  0.1682
12636TIP3    H259324   1.703   2.916  14.484  1.1260  0.3149 -0.1848
12637TIP3   OH259325   2.627   1.970   4.806  0.5237 -0.3408 -0.2220
12637TIP3    H159326   2.596   2.001   4.721  0.8005 -0.1256 -0.2456
12637TIP3    H259327   2.654   1.879   4.789  0.7918 -0.2287 -0.4222
12638TIP3   OH259328   0.319   3.468  13.576  0.1227  0.2541 -0.3932
12638TIP3    H159329   0.252   3.528  13.611  1.7521  1.7090  0.3846
12638TIP3    H259330   0.274   3.384  13.569 -1.6160  1.0256  0.7066
12639TIP3   OH259331   0.183   0.163   1.975  0.5172 -0.1876  0.3639
12639TIP3    H159332   0.154   0.214   2.050  2.6579  0.0289  1.1369
12639TIP3    H259333   0.178   0.072   2.004  0.9494 -0.1266  0.6476
12640TIP3   OH259334   0.580   3.578  14.096  0.2111  0.2923 -0.7539
12640TIP3    H159335   0.648   3.559  14.031  0.0443 -0.4378 -0.7275
12640TIP3    H259336   0.525   3.644  14.055 -0.2407 -0.5866 -1.6240
12641TIP3   OH259337   6.551   5.855   0.845  0.7041 -0.3653 -0.2596
12641TIP3    H159338   6.631   5.827   0.801  0.4136 -1.3099 -0.2287
12641TIP3    H259339   6.572   5.850   0.938  0.9830  0.5768 -0.2674
12642TIP3   OH259340   6.769   6.568  16.877 -0.1935  0.1042  0.0870
12642TIP3    H159341   6.793   6.498  16.939 -0.8299  1.4531  1.9671
12642TIP3    H259342   6.849   6.584  16.827 -0.3755 -2.8038 -1.3168
12643TIP3   OH259343   3.996   2.529  11.689 -0.0157 -0.0165  0.4033
12643TIP3    H159344   4.070   2.482  11.726  0.5381 -0.0443 -0.7185
12643TIP3    H259345   4.033   2.582  11.619 -0.9957  0.2514  0.0676
12644TIP3   OH259346   0.264   3.437  14.130  0.1827 -0.4446 -0.8038
12644TIP3    H159347   0.311   3.481  14.059 -0.0637  0.1764 -0.5888
12644TIP3    H259348   0.268   3.497  14.203  0.3769 -1.0574 -0.3013
12645TIP3   OH259349   4.444   6.074   3.895 -0.0891 -0.2591  0.5156
12645TIP3    H159350   4.392   6.110   3.966 -0.6495  1.6547 -0.8033
12645TIP3    H259351   4.407   5.987   3.880 -0.3643 -0.4474  2.1062
12646TIP3   OH259352   2.308   5.529   2.753  0.1367  0.4147  0.3552
12646TIP3    H159353   2.262   5.611   2.768  1.0145  1.0857 -0.4452
12646TIP3    H259354   2.389   5.537   2.803  0.4813  0.2758 -0.1704
12647TIP3   OH259355   1.774   3.157   2.336  0.2781 -0.1169 -0.0488
12647TIP3    H159356   1.693   3.164   2.387  1.4914 -2.4133  2.4690
12647TIP3    H259357   1.815   3.076   2.367  3.7153  1.0865 -0.9845
12648TIP3   OH259358   6.286   3.453  13.042  0.8754  0.4324  0.3554
12648TIP3    H159359   6.233   3.377  13.020  0.6581  0.2316  1.4734
12648TIP3    H259360   6.248   3.486  13.124  1.8340  0.8913  0.6387
12649TIP3   OH259361   1.646   0.221  14.623 -0.2552  0.3781 -0.4729
12649TIP3    H159362   1.600   0.176  14.694 -0.3005  0.3644 -0.5109
12649TIP3    H259363   1.581   0.228  14.553 -0.0788 -0.0116 -0.6802
12650TIP3   OH259364   0.227   0.715  17.293 -0.2161 -0.4475 -0.3568
12650TIP3    H159365   0.188   0.700  17.379 -0.9292  1.0966 -0.3889
12650TIP3    H259366   0.154   0.742  17.237  0.1271 -1.9667 -1.6242
12651TIP3   OH259367   1.028   5.685   5.167 -0.2364 -0.3397  0.4291
12651TIP3    H159368   1.051   5.659   5.078 -0.3976 -1.8002  0.7985
12651TIP3    H259369   1.035   5.781   5.166 -0.7897 -0.2769 -1.3000
12652TIP3   OH259370   5.358   0.773   0.196  0.6963 -0.2730 -0.0001
12652TIP3    H159371   5.434   0.718   0.218  2.1797  1.1761 -1.2206
12652TIP3    H259372   5.365   0.786   0.101 -0.6343  0.5492 -0.0044
12653TIP3   OH259373   3.412   1.885   4.043  0.0855 -0.0570  0.1936
12653TIP3    H159374   3.345   1.954   4.043  0.7237  0.5683 -0.0747
12653TIP3    H259375   3.364   1.806   4.067 -0.4310  0.6843  1.7481
12654TIP3   OH259376   3.962   5.567  13.177  0.8515  0.0908  0.1744
12654TIP3    H159377   3.881   5.537  13.218  0.3338 -0.0082 -0.8814
12654TIP3    H259378   4.020   5.587  13.250  0.8757 -2.4882  0.9235
12655TIP3   OH259379   5.619   2.581  16.926  0.2221 -0.4443  0.1787
12655TIP3    H159380   5.577   2.654  16.971 -0.9485 -2.4979  2.6642
12655TIP3    H259381   5.553   2.552  16.863 -0.3951 -0.9991  1.0677
12656TIP3   OH259382   0.024   5.187  15.343  0.0902  0.3023  0.1650
12656TIP3    H159383  -0.008   5.188  15.433 -1.0282  0.9308 -0.2179
12656TIP3    H259384   0.037   5.094  15.323 -1.6247 -0.0067  0.3198
12657TIP3   OH259385   2.270   4.032   5.696 -0.1151 -0.0575  0.6908
12657TIP3    H159386   2.335   4.009   5.629  0.0416 -1.3154  1.2426
12657TIP3    H259387   2.187   4.031   5.648 -0.1510 -2.1403  0.7122
12658TIP3   OH259388   0.379   3.112   2.063 -0.1744  0.4174 -0.4924
12658TIP3    H159389   0.406   3.035   2.113  0.2436  2.1387  2.1552
12658TIP3    H259390   0.461   3.145   2.024 -0.5151 -0.9801 -2.5701
12659TIP3   OH259391   5.267   5.047   1.532 -0.2983  0.1030  0.0125
12659TIP3    H159392   5.258   5.132   1.490  2.1972  0.3223 -0.2071
12659TIP3    H259393   5.348   5.053   1.581 -0.7651 -1.7281  1.1045
12660TIP3   OH259394   0.168   4.017  14.548  0.0502 -0.4832 -0.7865
12660TIP3    H159395   0.211   3.999  14.632  0.2640  0.4013 -0.6981
12660TIP3    H259396   0.141   3.931  14.516 -1.2526 -0.7122  0.8243
12661TIP3   OH259397   0.363   3.927  14.727  0.0593  0.2952 -0.5607
12661TIP3    H159398   0.419   3.970  14.663  1.1937  0.1467  0.3107
12661TIP3    H259399   0.378   3.974  14.809  0.4720 -1.0253  0.1458
12662TIP3   OH259400   6.452   5.351  17.020  0.3069  0.3682  0.1222
12662TIP3    H159401   6.359   5.343  16.999  0.8270 -2.1840 -1.6838
12662TIP3    H259402   6.461   5.304  17.104  0.1729 -0.9293 -0.5571
12663TIP3   OH259403   5.768   3.335  16.965  0.1916  0.0784 -0.1082
12663TIP3    H159404   5.736   3.423  16.986 -1.1362 -0.4602  0.2591
12663TIP3    H259405   5.776   3.292  17.051 -0.6295 -0.6229 -0.3689
12664TIP3   OH259406   0.285   1.955   2.066 -0.2122  0.4181 -0.2806
12664TIP3    H159407   0.235   2.006   2.130  0.2303 -0.0981  0.4919
12664TIP3    H259408   0.261   1.864   2.083  0.4389  0.2210 -0.3744
12665TIP3   OH259409   2.305   0.408  13.560  0.2293  0.2327 -0.2550
12665TIP3    H159410   2.334   0.462  13.633 -1.8045  1.7741 -0.4895
12665TIP3    H259411   2.209   0.410  13.565  0.0476 -2.5654 -0.9022
12666TIP3   OH259412   3.553   3.403   2.708 -0.2035 -0.2644  0.4634
12666TIP3    H159413   3.574   3.317   2.745  1.1854 -0.6069 -1.0041
12666TIP3    H259414   3.614   3.463   2.749 -1.3308  0.0977  1.6645
12667TIP3   OH259415   5.885   3.763  13.296  0.7130 -0.0059 -0.1261
12667TIP3    H159416   5.960   3.815  13.266  0.3579  0.3415 -0.4282
12667TIP3    H259417   5.857   3.806  13.377  1.4346 -0.7142  0.5101
12668TIP3   OH259418   4.293   2.392  12.986 -0.0148  0.3731 -0.5462
12668TIP3    H159419   4.228   2.419  12.921 -2.3085 -2.1812  0.4568
12668TIP3    H259420   4.300   2.297  12.974  2.3818  0.3545  0.4738
12669TIP3   OH259421   5.488   1.364  10.934  0.1905  0.0559  0.0695
12669TIP3    H159422   5.511   1.292  10.875  0.0348  0.7261 -0.8182
12669TIP3    H259423   5.558   1.364  10.999 -0.0470 -1.1848  0.3605
12670TIP3   OH259424   6.253   4.481   2.999  0.0007 -0.0511 -0.5611
12670TIP3    H159425   6.334   4.511   2.959  0.8259  1.0756  1.7793
12670TIP3    H259426   6.280   4.429   3.075 -1.4585 -0.3639 -0.2102
12671TIP3   OH259427   5.433   4.881   3.806 -0.2117  0.2886  0.1158
12671TIP3    H159428   5.454   4.788   3.801 -1.7357 -0.1646  1.2735
12671TIP3    H259429   5.384   4.899   3.726  1.6301  0.5685 -0.9919
12672TIP3   OH259430   4.976   1.521   6.175 -0.0151 -0.5973  0.2296
12672TIP3    H159431   5.045   1.480   6.227 -0.1857  0.6295  1.5094
12672TIP3    H259432   4.895   1.476   6.201  0.1398 -1.2188 -0.3591
12673TIP3   OH259433   3.162   4.111  13.056  0.9736  0.0055  0.0504
12673TIP3    H159434   3.082   4.163  13.064  0.6210 -0.0219 -2.5272
12673TIP3    H259435   3.232   4.175  13.055  0.7686  0.2284 -0.2293
12674TIP3   OH259436   2.322   4.688  15.770  0.7682  0.0862  0.2924
12674TIP3    H159437   2.363   4.602  15.779  1.2749  0.2974  0.0452
12674TIP3    H259438   2.395   4.750  15.769  0.5785  0.3490 -1.8520
12675TIP3   OH259439   2.838   4.413  13.711 -1.2121 -0.2633  0.2293
12675TIP3    H159440   2.770   4.428  13.645 -1.0842 -0.3672  0.0750
12675TIP3    H259441   2.872   4.326  13.691 -1.5119 -0.5002  0.7330
12676TIP3   OH259442   1.168   1.275  13.796  0.3598 -0.3075  0.4685
12676TIP3    H159443   1.230   1.258  13.867 -0.4141 -2.6809  0.6700
12676TIP3    H259444   1.220   1.268  13.716  0.6080 -0.9652  0.6840
12677TIP3   OH259445   2.263   6.392  16.779 -0.4673  0.1129  0.0219
12677TIP3    H159446   2.171   6.419  16.787 -0.1821  0.7910  1.2974
12677TIP3    H259447   2.259   6.297  16.771 -1.2852  0.1344  0.0321
12678TIP3   OH259448   3.657   0.156   4.554  0.1287 -0.6328  0.0037
12678TIP3    H159449   3.710   0.079   4.534  2.0506  0.3836  0.8856
12678TIP3    H259450   3.591   0.158   4.485 -0.3091 -3.3093  0.2332
12679TIP3   OH259451   2.756   5.984   6.863  0.1408 -0.1573  0.0271
12679TIP3    H159452   2.745   6.051   6.930 -2.1446 -0.1983 -0.2140
12679TIP3    H259453   2.848   5.990   6.837  0.2036  2.3485  0.5741
12680TIP3   OH259454   6.573   2.374  11.246 -0.0427 -0.3083 -0.2257
12680TIP3    H159455   6.482   2.390  11.219  0.0304 -0.3731 -0.5098
12680TIP3    H259456   6.599   2.296  11.197  0.9320  1.0308 -1.9300
12681TIP3   OH259457   4.561   4.835   5.071  0.7320 -0.7421  0.0530
12681TIP3    H159458   4.500   4.909   5.071  1.3919 -0.1790 -0.3317
12681TIP3    H259459   4.516   4.766   5.118  0.5549  0.2893  1.4469
12682TIP3   OH259460   1.798   2.180  17.151  0.1150 -0.0482  0.3870
12682TIP3    H159461   1.782   2.179  17.246 -0.0704  0.6354  0.3653
12682TIP3    H259462   1.793   2.272  17.127  1.5538 -0.0605 -0.0527
12683TIP3   OH259463   2.387   2.808  14.700 -0.6163  0.1561 -0.0492
12683TIP3    H159464   2.346   2.865  14.635 -0.2731 -0.0593 -0.4659
12683TIP3    H259465   2.370   2.850  14.784 -1.1291  0.4026 -0.2728
12684TIP3   OH259466   5.384   4.608  10.739  0.5680 -0.0556  1.2341
12684TIP3    H159467   5.369   4.698  10.712 -0.3315 -1.1019 -2.3470
12684TIP3    H259468   5.297   4.575  10.763  0.5038 -0.5485  0.3557
12685TIP3   OH259469   0.959   3.914  11.958  0.3855 -0.1014  0.3103
12685TIP3    H159470   1.030   3.915  12.023  1.4662 -0.4707 -0.8363
12685TIP3    H259471   1.003   3.906  11.874 -1.0521 -1.1622 -0.3828
12686TIP3   OH259472   2.457   5.803  16.415 -0.5088  0.2560 -0.6526
12686TIP3    H159473   2.395   5.813  16.487 -2.0578  2.6293 -2.1681
12686TIP3    H259474   2.408   5.757  16.347 -0.2906  1.1836 -1.4645
12687TIP3   OH259475   5.140   2.965  11.587 -0.5497  0.2227  0.4980
12687TIP3    H159476   5.203   2.996  11.521 -1.5905 -1.0913 -1.1936
12687TIP3    H259477   5.110   3.045  11.630  2.6957  0.8718  1.8748
12688TIP3   OH259478   5.306   2.154   4.891  0.0402 -0.2671 -0.1294
12688TIP3    H159479   5.273   2.108   4.814 -0.9564 -0.5701  0.4558
12688TIP3    H259480   5.381   2.103   4.919 -0.3766 -0.9070 -0.1493
12689TIP3   OH259481   0.758   2.294   4.382 -0.7223  0.3228  0.5167
12689TIP3    H159482   0.795   2.326   4.464 -0.1364  1.3031 -0.1169
12689TIP3    H259483   0.740   2.201   4.399 -0.0022  0.3497  1.5439
12690TIP3   OH259484   0.471   6.370  12.074 -0.3638  0.0016 -0.2830
12690TIP3    H159485   0.490   6.329  11.989  0.3798  0.6132 -0.4259
12690TIP3    H259486   0.396   6.427  12.056  0.4953  1.0116 -0.8385
12691TIP3   OH259487   6.441   1.903   1.362  0.0468  0.1906 -0.3722
12691TIP3    H159488   6.484   1.833   1.314 -0.2310  1.5324 -2.7561
12691TIP3    H259489   6.483   1.983   1.330 -0.7879  1.2205  0.9941
12692TIP3   OH259490   5.874   3.055  12.311 -0.4317  0.2447  0.4929
12692TIP3    H159491   5.936   3.110  12.360 -0.5865  2.4715 -1.6482
12692TIP3    H259492   5.788   3.089  12.336 -0.8492 -1.9592  2.4222
12693TIP3   OH259493   3.491   2.958  16.338 -0.2997 -0.2165  0.4907
12693TIP3    H159494   3.513   2.909  16.259  0.3971 -1.9640  1.6865
12693TIP3    H259495   3.546   2.919  16.406 -1.3587  0.7650  1.9819
12694TIP3   OH259496   0.560   5.640  14.761  0.1625 -0.6610 -0.3880
12694TIP3    H159497   0.530   5.692  14.686  1.6162 -0.8070 -1.1035
12694TIP3    H259498   0.622   5.697  14.806 -0.6320 -0.6107  0.6783
12695TIP3   OH259499   1.310   5.258  13.968 -0.1716 -0.6806  0.0441
12695TIP3    H159500   1.378   5.210  13.921 -0.6396  0.0773 -1.4834
12695TIP3    H259501   1.347   5.345  13.981 -0.7156 -0.3490 -0.5466
12696TIP3   OH259502   2.122   4.610  15.565  0.4382 -0.0293 -0.2071
12696TIP3    H159503   2.175   4.648  15.635 -1.1912  0.1619  0.9767
12696TIP3    H259504   2.101   4.684  15.508 -0.7350  0.4473  0.7881
12697TIP3   OH259505   6.510   4.141   3.427 -0.4584  0.0471 -0.1734
12697TIP3    H159506   6.580   4.143   3.362 -0.3914  4.3413 -0.2135
12697TIP3    H259507   6.432   4.115   3.379  0.5422 -2.3341 -0.6478
12698TIP3   OH259508   5.479   4.827   3.371 -0.0840 -0.2701  0.0108
12698TIP3    H159509   5.457   4.778   3.292  1.4401 -1.8219  0.4830
12698TIP3    H259510   5.473   4.763   3.442  0.4888  0.5995  0.8744
12699TIP3   OH259511   2.847   0.468  12.798  0.1755  0.0204  0.3883
12699TIP3    H159512   2.846   0.474  12.893  1.2458 -1.4482  0.5171
12699TIP3    H259513   2.799   0.546  12.769 -0.2887  0.4204  2.1132
12700TIP3   OH259514   3.817   3.971   0.763 -0.5602  0.2998  0.3377
12700TIP3    H159515   3.805   4.019   0.844 -0.1184  1.1929 -0.1190
12700TIP3    H259516   3.902   3.929   0.772 -0.1730  1.0046  0.0443
12701TIP3   OH259517   5.293   0.051   0.106  0.2216 -0.4483 -0.1940
12701TIP3    H159518   5.286   0.147   0.109  0.5415 -0.4491  0.9619
12701TIP3    H259519   5.334   0.033   0.021  0.9488  0.5032 -0.0684
12702TIP3   OH259520   2.933   5.972   3.102 -0.2595 -0.7292 -0.6647
12702TIP3    H159521   2.892   6.043   3.053 -0.2839 -0.2680  0.0109
12702TIP3    H259522   2.956   5.907   3.036  2.7197  1.2795 -1.7968
12703TIP3   OH259523   5.102   6.079   0.089 -0.4972  0.9068 -0.1412
12703TIP3    H159524   5.068   6.028   0.016  0.0070 -0.5215  0.5805
12703TIP3    H259525   5.056   6.163   0.084 -1.3525  0.3870 -1.3579
12704TIP3   OH259526   5.168   3.347   3.310  0.4395 -0.5495 -0.2905
12704TIP3    H159527   5.172   3.357   3.215 -0.2517 -0.1612 -0.2851
12704TIP3    H259528   5.255   3.318   3.335  1.2453  1.3026 -0.8080
12705TIP3   OH259529   6.318   3.995   2.931  0.4042 -0.0260  0.0534
12705TIP3    H159530   6.318   4.063   2.999 -0.7714 -0.5554  0.6064
12705TIP3    H259531   6.284   4.040   2.853 -0.4078  0.0350  0.4266
12706TIP3   OH259532   0.232   3.706  16.676 -0.1044  0.2532  0.7768
12706TIP3    H159533   0.285   3.786  16.679  0.0213  0.1284  2.3101
12706TIP3    H259534   0.294   3.635  16.689 -0.3454 -0.0573  0.2938
12707TIP3   OH259535   4.635   6.080  14.144  0.1751 -0.0422  0.3045
12707TIP3    H159536   4.725   6.057  14.167  0.3972 -0.4324 -0.8711
12707TIP3    H259537   4.618   6.031  14.063 -0.2516  1.8621 -0.8272
12708TIP3   OH259538   5.329   2.336  12.629  0.0849 -0.0656  0.2023
12708TIP3    H159539   5.298   2.286  12.704 -0.3339 -0.4585 -0.2288
12708TIP3    H259540   5.260   2.327  12.563  0.3290  0.4867 -0.1396
12709TIP3   OH259541   2.003   5.422  12.443  0.5361 -0.0044 -0.4160
12709TIP3    H159542   1.986   5.338  12.486  0.6052  0.6830  1.0129
12709TIP3    H259543   1.916   5.453  12.419  0.1871  0.8037  1.6484
12710TIP3   OH259544   0.502   4.933  15.840  0.0039 -1.1253  0.4936
12710TIP3    H159545   0.493   4.942  15.745  0.7476  0.4439  0.5380
12710TIP3    H259546   0.567   4.864  15.851  0.6000 -0.6901 -0.1745
12711TIP3   OH259547   5.746   5.951  15.293 -0.3286 -0.2719  0.1497
12711TIP3    H159548   5.772   6.032  15.337  1.1523 -0.0916 -0.9784
12711TIP3    H259549   5.781   5.881  15.348 -2.3532 -0.2226  1.5889
12712TIP3   OH259550   0.513   1.235  16.897 -0.5688  0.1099 -0.0985
12712TIP3    H159551   0.563   1.156  16.876 -1.3195 -0.3067 -0.3731
12712TIP3    H259552   0.446   1.205  16.958 -0.8065  0.5542 -0.1374
12713TIP3   OH259553   6.279   0.331   0.693  0.4914  0.0455 -0.0624
12713TIP3    H159554   6.362   0.367   0.725  0.0501 -0.5089  1.8615
12713TIP3    H259555   6.303   0.252   0.645  1.1720  0.7165 -0.8419
12714TIP3   OH259556   3.641   1.743   3.846  0.4532  0.1069  0.1745
12714TIP3    H159557   3.604   1.812   3.901 -0.9117 -0.1968 -0.3262
12714TIP3    H259558   3.680   1.789   3.771 -0.9793  0.3321 -0.4625
12715TIP3   OH259559   3.366   3.309   5.379  0.0488 -0.4335  0.2653
12715TIP3    H159560   3.285   3.279   5.420  0.2853 -2.4251 -0.5975
12715TIP3    H259561   3.435   3.259   5.423  0.6354 -0.0585 -0.2158
12716TIP3   OH259562   2.360   1.495   3.756 -0.6663  0.2318  0.2610
12716TIP3    H159563   2.330   1.575   3.800 -0.4249  0.6987 -0.4121
12716TIP3    H259564   2.429   1.525   3.697 -0.4727 -0.5013  0.1133
12717TIP3   OH259565   6.211   2.394   5.203  0.1943  0.1926 -0.1131
12717TIP3    H159566   6.187   2.482   5.231  0.4719  0.9538 -2.1023
12717TIP3    H259567   6.249   2.406   5.115  0.3821 -1.8856 -0.3701
12718TIP3   OH259568   3.592   3.962  14.231  0.6473 -0.1364 -0.5392
12718TIP3    H159569   3.683   3.990  14.224  0.6700 -0.3608 -1.2795
12718TIP3    H259570   3.542   4.039  14.202  0.6947 -0.6644 -2.1613
12719TIP3   OH259571   3.793   3.464  12.905 -0.4487 -0.0847  0.5574
12719TIP3    H159572   3.755   3.382  12.873  2.6374 -0.1311 -3.8383
12719TIP3    H259573   3.857   3.436  12.970  0.1743 -1.1683 -0.4788
12720TIP3   OH259574   1.057   0.979   1.002  0.1860 -0.6340 -0.2231
12720TIP3    H159575   1.003   0.948   1.075  1.0313 -0.0580  0.6693
12720TIP3    H259576   1.068   1.073   1.019  2.2036 -0.8919  0.1256
12721TIP3   OH259577   6.203   3.585   0.338  0.1334  0.9372 -0.2923
12721TIP3    H159578   6.240   3.648   0.278  1.2163  0.4376 -0.1734
12721TIP3    H259579   6.278   3.537   0.373 -0.3694  1.6587  1.9841
12722TIP3   OH259580   6.275   6.759  15.456  0.3252 -0.2345  0.2515
12722TIP3    H159581   6.339   6.724  15.518  0.8414  0.4280  0.1038
12722TIP3    H259582   6.283   6.854  15.464  0.1551 -0.1413 -0.5907
12723TIP3   OH259583   3.381   3.612  13.355  0.2714 -0.1599  0.6339
12723TIP3    H159584   3.312   3.629  13.291 -1.4787 -2.5428  1.7537
12723TIP3    H259585   3.395   3.697  13.398 -0.8909  0.7020 -0.6090
12724TIP3   OH259586   2.737   3.778  11.974  0.3585 -0.4123  0.1620
12724TIP3    H159587   2.744   3.787  12.069  2.0028 -0.0044  0.0436
12724TIP3    H259588   2.691   3.696  11.961 -1.4057  0.3434  1.2937
12725TIP3   OH259589   2.092   3.489  11.271 -0.2146 -0.7504 -0.2495
12725TIP3    H159590   2.124   3.543  11.199  1.2188 -1.1991  0.0029
12725TIP3    H259591   2.007   3.525  11.294  1.3397  2.4882  1.0208
12726TIP3   OH259592   2.256   6.677   2.700 -0.1579 -0.1125 -1.4423
12726TIP3    H159593   2.170   6.714   2.720 -0.4548 -1.5859  0.3433
12726TIP3    H259594   2.291   6.731   2.630 -3.0195 -0.1739 -3.0308
12727TIP3   OH259595   6.193   3.747   3.117  0.3881  0.4690 -0.2168
12727TIP3    H159596   6.130   3.720   3.184 -0.3091  0.1721 -0.9867
12727TIP3    H259597   6.242   3.667   3.096 -0.1278  0.3060 -0.8349
12728TIP3   OH259598   1.726   4.815  15.508 -0.2804 -0.0351  0.3694
12728TIP3    H159599   1.762   4.733  15.544 -0.5912 -0.7426 -0.8795
12728TIP3    H259600   1.797   4.878  15.517 -0.3032 -0.2035  2.0996
12729TIP3   OH259601   1.543   1.919  14.787 -0.1644  0.5490  1.0155
12729TIP3    H159602   1.451   1.936  14.807 -0.2798  1.2286 -0.0143
12729TIP3    H259603   1.546   1.917  14.691  1.2260  2.4443  0.9822
12730TIP3   OH259604   4.000   6.739  15.473 -0.2936  0.2876 -0.3403
12730TIP3    H159605   3.939   6.675  15.437  0.4143 -1.0194  0.6683
12730TIP3    H259606   3.945   6.811  15.504 -1.2723 -0.5663 -0.0634
12731TIP3   OH259607   5.556   4.420   1.101  0.1260 -0.0046  0.1015
12731TIP3    H159608   5.555   4.464   1.186  0.7213 -2.2461  1.3522
12731TIP3    H259609   5.474   4.370   1.099  1.5236 -2.4941  0.8636
12732TIP3   OH259610   2.094   0.202   1.675  0.1539 -0.4097  0.1071
12732TIP3    H159611   2.170   0.187   1.619  0.0573 -0.9129  0.1022
12732TIP3    H259612   2.122   0.270   1.736 -0.1911  1.1842 -1.4318
12733TIP3   OH259613   2.076   4.566   0.031  0.3209 -0.4483 -0.0958
12733TIP3    H159614   1.986   4.540   0.013 -0.9357  1.7919  2.2708
12733TIP3    H259615   2.097   4.631  -0.036 -0.4920  0.2885  0.3499
12734TIP3   OH259616   6.535   4.746   2.621 -0.4869 -0.1214  0.1858
12734TIP3    H159617   6.559   4.838   2.623 -0.2577 -0.1942  1.2821
12734TIP3    H259618   6.559   4.716   2.533  0.0602  0.6952  0.0540
12735TIP3   OH259619   1.149   6.244   3.701  0.3393  0.1339 -0.1846
12735TIP3    H159620   1.113   6.263   3.615  0.6887  0.2723 -0.3004
12735TIP3    H259621   1.182   6.328   3.733  0.2181  0.0818  0.0792
12736TIP3   OH259622   5.747   4.232  16.170  0.1130 -0.1096 -0.1207
12736TIP3    H159623   5.706   4.283  16.100 -0.2185 -0.6771 -0.3473
12736TIP3    H259624   5.792   4.297  16.224  1.5647  0.2174 -1.6444
12737TIP3   OH259625   3.053   3.180   0.833 -0.4716 -0.0474  0.2452
12737TIP3    H159626   3.093   3.094   0.845 -0.5576  0.0405  1.2644
12737TIP3    H259627   3.085   3.231   0.907 -0.8859  0.6235 -0.0310
12738TIP3   OH259628   5.643   2.329   5.776 -0.3027 -0.0656  1.0361
12738TIP3    H159629   5.593   2.274   5.835 -0.2232 -1.6691 -0.3185
12738TIP3    H259630   5.582   2.348   5.704 -0.3348  1.6750  1.4712
12739TIP3   OH259631   3.300   5.591  11.078 -0.3787 -0.4782  0.0968
12739TIP3    H159632   3.344   5.642  11.010 -0.6649  0.6650  0.7368
12739TIP3    H259633   3.212   5.575  11.044 -0.6758  0.5005  0.3757
12740TIP3   OH259634   1.042   5.505  16.915 -1.2891 -0.2332  0.5548
12740TIP3    H159635   0.952   5.477  16.930 -1.2294 -0.5240  0.3880
12740TIP3    H259636   1.044   5.528  16.822 -1.4793  0.8712  0.8119
12741TIP3   OH259637   6.183   3.013  12.495  0.0121  0.2646  0.2620
12741TIP3    H159638   6.195   2.920  12.476  1.0490  0.9988 -3.3064
12741TIP3    H259639   6.090   3.022  12.514 -0.6832 -1.1245 -2.1885
12742TIP3   OH259640   5.955   2.473  16.026 -1.2319 -0.1431  0.2247
12742TIP3    H159641   6.012   2.484  16.102 -1.1520  0.0107  0.1422
12742TIP3    H259642   6.011   2.492  15.951 -1.9551  2.4060  0.2255
12743TIP3   OH259643   2.897   3.073   3.339  0.0673  0.3991  1.2353
12743TIP3    H159644   2.947   3.153   3.323  3.1787 -1.9131 -2.5887
12743TIP3    H259645   2.952   3.023   3.401 -0.1459 -0.0877  1.0343
12744TIP3   OH259646   5.177   3.430   3.058  1.0356  0.4420  0.1307
12744TIP3    H159647   5.191   3.483   2.979  1.6331  0.3735  0.1918
12744TIP3    H259648   5.103   3.374   3.036  0.0591  1.6262  0.2280
12745TIP3   OH259649   1.601   5.203  15.644 -0.4851 -0.4906 -0.0669
12745TIP3    H159650   1.506   5.213  15.637 -0.2602  2.2148 -0.5098
12745TIP3    H259651   1.634   5.223  15.557  0.5577  0.2423  0.4770
12746TIP3   OH259652   5.360   4.113   5.721 -1.1642 -0.2170 -0.1068
12746TIP3    H159653   5.423   4.185   5.722  1.5147 -2.3867 -0.2040
12746TIP3    H259654   5.338   4.100   5.814 -0.0389 -0.5289  0.1386
12747TIP3   OH259655   0.564   1.287  12.202 -0.0332 -0.4037  0.1458
12747TIP3    H159656   0.566   1.290  12.106  4.9475  0.1488 -0.0047
12747TIP3    H259657   0.550   1.378  12.229  1.5186  0.0065 -0.2756
12748TIP3   OH259658   4.170   4.327   0.531 -0.2421 -0.0085 -0.0452
12748TIP3    H159659   4.183   4.373   0.613  0.6122  1.6202 -1.0411
12748TIP3    H259660   4.088   4.362   0.496 -0.3063 -0.2676 -0.1596
12749TIP3   OH259661   5.438   0.727  14.070  0.9140  0.4664  0.2599
12749TIP3    H159662   5.362   0.670  14.065  1.0332  0.3773 -0.6800
12749TIP3    H259663   5.455   0.736  14.164  0.3336 -0.2891  0.4479
12750TIP3   OH259664   3.218   5.056  11.404  0.6681  0.1718  0.2001
12750TIP3    H159665   3.292   5.077  11.461  1.1362  0.4756 -0.5125
12750TIP3    H259666   3.231   4.964  11.380  1.0106  0.3222 -0.2035
12751TIP3   OH259667   6.312   0.780  13.167 -0.0452  0.4221 -0.1305
12751TIP3    H159668   6.268   0.714  13.220  0.8006  0.1879  0.3013
12751TIP3    H259669   6.388   0.735  13.131 -0.6085  0.5757 -1.5746
12752TIP3   OH259670   3.992   2.103   3.140  0.4565 -0.2777  0.1635
12752TIP3    H159671   3.973   2.184   3.187  1.2911 -0.0897  0.1962
12752TIP3    H259672   3.984   2.127   3.047 -2.3456 -0.9285  0.1389
12753TIP3   OH259673   2.320   2.948   6.120  0.1687  0.4203 -0.6111
12753TIP3    H159674   2.354   2.919   6.205  0.6385  0.0324 -0.9278
12753TIP3    H259675   2.236   2.989   6.141 -0.4011 -0.9258 -0.1218
12754TIP3   OH259676   4.700   4.913  17.159 -0.3731  0.3706  0.1570
12754TIP3    H159677   4.734   4.841  17.106  0.4544 -0.4985  1.7802
12754TIP3    H259678   4.777   4.961  17.187 -0.6621  0.0609  1.5674
12755TIP3   OH259679   1.536   0.149  12.821 -0.1234 -0.0670 -0.0305
12755TIP3    H159680   1.501   0.223  12.773 -0.8920 -0.0427  0.5470
12755TIP3    H259681   1.466   0.124  12.882  0.4803 -0.6617  0.4412
12756TIP3   OH259682   5.929   0.177  16.669 -0.8080  0.0197  0.3378
12756TIP3    H159683   5.901   0.092  16.704 -3.6433  0.8225  0.2471
12756TIP3    H259684   5.944   0.231  16.746 -1.2354  0.0963  0.3651
12757TIP3   OH259685   4.502   2.243  15.614  0.0578 -0.1792 -0.2545
12757TIP3    H159686   4.510   2.188  15.692  0.1743 -1.4168 -1.1162
12757TIP3    H259687   4.431   2.204  15.564  1.0340 -0.3930 -1.5344
12758TIP3   OH259688   3.165   4.033   5.613 -0.1959 -0.3506 -0.2137
12758TIP3    H159689   3.079   4.072   5.624  0.0342  0.0572  0.1697
12758TIP3    H259690   3.188   4.050   5.522  0.1264  0.8915  0.0782
12759TIP3   OH259691   5.924   2.058  12.006 -0.2821  0.3726  0.6461
12759TIP3    H159692   5.894   2.149  12.012 -0.3758  0.3607  0.3728
12759TIP3    H259693   6.012   2.063  11.971 -1.5499  0.2107 -3.0181
12760TIP3   OH259694   0.561   5.409   1.726 -0.3538 -0.3435 -0.2946
12760TIP3    H159695   0.533   5.419   1.635 -2.1308  1.4156  0.3765
12760TIP3    H259696   0.601   5.493   1.748 -1.2691 -0.1951  0.9350
12761TIP3   OH259697   5.192   4.689   1.619  0.2540  0.0096 -0.2568
12761TIP3    H159698   5.101   4.709   1.641  0.4989  1.7426 -0.7066
12761TIP3    H259699   5.188   4.600   1.583 -1.2724  0.0755 -0.3233
12762TIP3   OH259700   0.780   4.678   4.565 -0.3192  0.6838  0.2091
12762TIP3    H159701   0.735   4.704   4.484 -0.3117 -0.6052 -0.2210
12762TIP3    H259702   0.712   4.637   4.618  0.5240 -2.6107 -1.0405
12763TIP3   OH259703   6.297   1.821   2.402 -0.2744  0.1989  0.3067
12763TIP3    H159704   6.238   1.830   2.327 -0.0238  0.6615  0.1591
12763TIP3    H259705   6.277   1.897   2.457  0.4798  0.6023  0.0434
12764TIP3   OH259706   4.941   0.485   5.827  0.4249 -0.2312 -0.2403
12764TIP3    H159707   4.992   0.439   5.761 -1.8498 -3.4037 -0.0247
12764TIP3    H259708   4.887   0.546   5.777 -0.8288 -2.1567 -1.3781
12765TIP3   OH259709   1.287   0.675  12.278 -0.1502  0.1642  0.0774
12765TIP3    H159710   1.286   0.665  12.183 -0.8012  0.6723  0.0215
12765TIP3    H259711   1.196   0.697  12.301 -0.2294 -0.9622  0.9335
12766TIP3   OH259712   0.876   2.122  16.944  0.1937 -0.4460  0.1980
12766TIP3    H159713   0.969   2.123  16.919 -0.1527  0.6368 -1.2211
12766TIP3    H259714   0.865   2.040  16.993  1.6497 -1.1503 -0.5724
12767TIP3   OH259715   2.329   2.683  13.291 -0.2267 -0.5367  0.2200
12767TIP3    H159716   2.288   2.649  13.211  1.6170 -1.1475 -0.5026
12767TIP3    H259717   2.418   2.705  13.265 -0.0101  0.5872  1.7980
12768TIP3   OH259718   4.221   2.626  12.488 -0.0382 -0.0364  0.1030
12768TIP3    H159719   4.236   2.720  12.479  0.7423 -0.0662  1.0057
12768TIP3    H259720   4.234   2.591  12.400 -1.9318  0.8892 -0.6016
12769TIP3   OH259721   3.453   0.768   5.486 -0.1327 -0.0298  0.1853
12769TIP3    H159722   3.425   0.853   5.452  0.2033  0.1575  0.3702
12769TIP3    H259723   3.507   0.790   5.563 -0.3994 -0.4241  0.4893
12770TIP3   OH259724   3.278   5.165  14.843 -0.0183  0.4933  0.0353
12770TIP3    H159725   3.357   5.178  14.895  0.0618  0.3111 -0.0385
12770TIP3    H259726   3.306   5.109  14.770 -0.7775 -1.9047  1.4536
12771TIP3   OH259727   1.925   1.360  12.675 -0.0959 -0.5257 -0.4950
12771TIP3    H159728   1.833   1.370  12.699 -0.2580  0.4180 -1.4387
12771TIP3    H259729   1.926   1.368  12.580  1.2270  1.9474 -0.3435
12772TIP3   OH259730   2.531   5.017  17.067  0.2676 -0.3260  0.0839
12772TIP3    H159731   2.467   5.002  16.998 -1.4298 -0.6716  1.6711
12772TIP3    H259732   2.542   4.932  17.110  0.1934  0.1608  1.1198
12773TIP3   OH259733   4.735   5.676  12.530  0.0705 -0.5085 -0.0401
12773TIP3    H159734   4.671   5.638  12.590 -1.1540  1.6559  0.1157
12773TIP3    H259735   4.710   5.643  12.444  0.3981 -1.7500  0.3164
12774TIP3   OH259736   3.655   1.060  16.887 -0.2458  0.0139  0.2357
12774TIP3    H159737   3.561   1.041  16.885 -1.0149  3.2265  0.0014
12774TIP3    H259738   3.679   1.054  16.979 -0.2553 -2.2918  0.1452
12775TIP3   OH259739   6.748   1.969  16.439  0.0730  0.3021 -0.3616
12775TIP3    H159740   6.663   1.933  16.461  0.5479 -1.0685 -0.6765
12775TIP3    H259741   6.731   2.031  16.368 -0.9137  1.6586  0.9877
12776TIP3   OH259742   5.480   2.323   4.025  0.3323 -0.2627  0.4751
12776TIP3    H159743   5.404   2.274   3.993  0.9086 -1.6716  1.1638
12776TIP3    H259744   5.463   2.333   4.119  0.3232  0.7007  0.3752
12777TIP3   OH259745   5.215   3.524   1.187  0.8464  0.1037 -0.5297
12777TIP3    H159746   5.220   3.448   1.246 -0.3167  0.6161  0.2832
12777TIP3    H259747   5.264   3.593   1.232  0.2379  0.3986 -0.3062
12778TIP3   OH259748   1.057   6.362  14.475 -0.3201  0.9074  0.2241
12778TIP3    H159749   0.966   6.359  14.505 -0.1958  0.8087  0.5994
12778TIP3    H259750   1.104   6.409  14.544  0.0113  0.4811  0.2975
12779TIP3   OH259751   3.642   3.796   5.346  0.3513 -0.5150 -0.0083
12779TIP3    H159752   3.614   3.865   5.286  0.7337 -1.0001 -0.7688
12779TIP3    H259753   3.727   3.826   5.379  0.1473 -0.2540  0.2820
12780TIP3   OH259754   4.956   1.623  16.473  0.1265 -0.0532  0.5209
12780TIP3    H159755   4.958   1.636  16.378  0.8800 -0.4909  0.4703
12780TIP3    H259756   5.046   1.639  16.501 -0.2585  0.8793  1.2824
12781TIP3   OH259757   3.398   3.606   3.787 -0.2460 -0.2191  0.1387
12781TIP3    H159758   3.430   3.689   3.822 -0.8631 -0.2084  0.7046
12781TIP3    H259759   3.341   3.630   3.714  1.8734 -0.2826 -1.6219
12782TIP3   OH259760   3.313   5.133  15.768  0.3166  0.0185  0.3682
12782TIP3    H159761   3.328   5.116  15.860  0.1767  0.0072  0.3905
12782TIP3    H259762   3.225   5.097  15.751  0.1146  0.5092  0.3603
12783TIP3   OH259763   4.583   6.228  12.497 -0.2945 -0.2678 -0.2443
12783TIP3    H159764   4.629   6.238  12.413 -1.2114  0.9357 -0.6336
12783TIP3    H259765   4.496   6.196  12.474 -0.4857 -0.1245  0.2563
12784TIP3   OH259766   2.403   4.605  14.155  0.4570 -0.1204  0.3244
12784TIP3    H159767   2.460   4.678  14.130 -1.7996  1.3125 -0.9822
12784TIP3    H259768   2.360   4.580  14.074 -0.1203 -1.7738  1.1004
12785TIP3   OH259769   2.948   3.047   5.744  0.2668 -0.3389  0.9561
12785TIP3    H159770   2.948   3.016   5.835 -2.2270 -1.0792  0.7979
12785TIP3    H259771   3.007   2.987   5.698  0.0823 -1.1772  1.7753
12786TIP3   OH259772   4.227   4.888  11.604  0.6871  0.0412  0.1563
12786TIP3    H159773   4.240   4.809  11.656  2.1963 -0.5092 -0.9823
12786TIP3    H259774   4.244   4.960  11.665  0.5562 -0.5449  0.8925
12787TIP3   OH259775   3.589   6.131  11.052  0.7172  0.7922  0.3029
12787TIP3    H159776   3.523   6.063  11.037 -0.1320  1.4695  0.8603
12787TIP3    H259777   3.669   6.096  11.013 -0.3343  0.6108 -1.8668
12788TIP3   OH259778   2.425   3.888   1.923  0.7586 -0.2564 -0.3119
12788TIP3    H159779   2.450   3.886   2.016  0.5072 -1.4973 -0.2554
12788TIP3    H259780   2.400   3.798   1.903 -0.6989  0.3075 -1.1837
12789TIP3   OH259781   6.399   1.085   1.231 -0.2250  0.1276 -0.2234
12789TIP3    H159782   6.337   1.082   1.304  0.3708  0.0165  0.2872
12789TIP3    H259783   6.464   1.019   1.252 -1.2714 -1.6051 -2.0279
12790TIP3   OH259784   0.497   2.684  13.221 -0.6872  0.4871  0.3313
12790TIP3    H159785   0.429   2.724  13.166  0.2422 -0.6730 -1.7661
12790TIP3    H259786   0.562   2.753  13.232 -1.1225  0.8893  0.4210
12791TIP3   OH259787   4.332   1.404   2.196  0.3065  0.3653 -0.9936
12791TIP3    H159788   4.271   1.390   2.269 -1.0147  0.4496 -2.0441
12791TIP3    H259789   4.410   1.441   2.237 -0.0502 -0.4462  0.4876
12792TIP3   OH259790   1.795   3.801  14.462  0.5042 -0.0285  0.0906
12792TIP3    H159791   1.855   3.874  14.446 -0.5020  0.5699 -1.1908
12792TIP3    H259792   1.812   3.739  14.391 -1.5045  0.9465 -1.3518
12793TIP3   OH259793   3.354   2.109   5.881 -0.2726 -0.1725 -0.1573
12793TIP3    H159794   3.320   2.174   5.819 -0.4540 -2.0329 -2.1265
12793TIP3    H259795   3.357   2.155   5.964  1.2436  2.9113 -1.7303
12794TIP3   OH259796   2.558   1.343   3.340  0.2384 -0.4020  0.0998
12794TIP3    H159797   2.482   1.401   3.335  1.3031  0.9991 -0.8350
12794TIP3    H259798   2.551   1.302   3.426 -2.1281 -1.1539 -0.3825
12795TIP3   OH259799   1.446   4.276  14.185  0.2650  0.0317 -0.0955
12795TIP3    H159800   1.384   4.249  14.117  0.0543 -1.3735  0.6219
12795TIP3    H259801   1.446   4.372  14.181 -0.6466  0.0011 -1.2603
12796TIP3   OH259802   1.212   5.880  11.953 -0.7650  0.8541  0.1946
12796TIP3    H159803   1.132   5.828  11.953 -1.0140  1.2402  0.6765
12796TIP3    H259804   1.215   5.921  12.039  0.1924  0.4779  0.3509
12797TIP3   OH259805   3.292   5.323  12.031 -0.3746 -0.2101  0.0250
12797TIP3    H159806   3.234   5.275  12.090 -0.1868 -0.6488 -0.1423
12797TIP3    H259807   3.379   5.284  12.046 -0.1941  0.1730 -0.0113
12798TIP3   OH259808   4.808   4.088   6.312  0.0927 -0.3314 -0.2481
12798TIP3    H159809   4.734   4.100   6.251 -0.6224 -0.5954  0.5539
12798TIP3    H259810   4.797   4.000   6.346  1.3991 -0.7663 -0.9132
12799TIP3   OH259811   3.012   5.479  12.601 -0.7972  0.3793 -0.5547
12799TIP3    H159812   2.937   5.514  12.649 -1.4663  0.3992 -1.5837
12799TIP3    H259813   3.027   5.392  12.640 -1.7584  0.1153 -0.7437
12800TIP3   OH259814   3.134   0.881  15.592  0.4176 -0.5907 -0.2313
12800TIP3    H159815   3.207   0.835  15.550  0.0776 -0.8909 -0.4957
12800TIP3    H259816   3.071   0.897  15.522 -0.6556 -2.0699  0.3280
12801TIP3   OH259817   0.995   0.069  11.707  0.3528  0.1881  0.1185
12801TIP3    H159818   1.022  -0.018  11.736 -0.6385 -0.4637 -0.8054
12801TIP3    H259819   0.899   0.065  11.702  0.3446  0.9654 -0.9804
12802TIP3   OH259820   1.012   3.362   5.686 -0.5921  0.8390 -0.5776
12802TIP3    H159821   1.006   3.324   5.599  1.6524 -1.2450  0.0526
12802TIP3    H259822   1.028   3.287   5.744 -0.1086  2.3481  1.3736
12803TIP3   OH259823   5.514   3.371   6.591 -0.1901  0.2865  0.5180
12803TIP3    H159824   5.471   3.362   6.676 -1.7122  0.0552 -0.2373
12803TIP3    H259825   5.531   3.281   6.564 -2.4148  0.1533 -0.6905
12804TIP3   OH259826   1.628   1.938   4.581 -0.7649  0.2631  0.5587
12804TIP3    H159827   1.613   1.928   4.675 -0.1959 -0.6533  0.5604
12804TIP3    H259828   1.659   2.028   4.571 -1.1673  0.4760  1.2005
12805TIP3   OH259829   1.648   4.794   1.050  0.2990 -0.1162 -0.1852
12805TIP3    H159830   1.565   4.770   1.091 -0.3595  0.2958 -1.2350
12805TIP3    H259831   1.688   4.710   1.028  0.1852 -0.3179  0.3586
12806TIP3   OH259832   5.640   4.851   3.993 -0.3650  0.2067 -0.2456
12806TIP3    H159833   5.620   4.758   4.004  0.4356 -0.0046 -0.5503
12806TIP3    H259834   5.570   4.884   3.937 -0.6849 -0.1963 -0.0849
12807TIP3   OH259835   6.279   0.919  11.628 -0.5470  0.1634 -0.3953
12807TIP3    H159836   6.353   0.891  11.573  0.4695  1.5254  0.2104
12807TIP3    H259837   6.291   0.869  11.709  0.2160  0.9748  0.0103
12808TIP3   OH259838   2.944   3.837   5.871 -0.2874 -0.1516 -0.0611
12808TIP3    H159839   3.007   3.809   5.805 -0.4503 -1.2566  0.2363
12808TIP3    H259840   2.883   3.764   5.879 -1.6945  0.9319 -0.4263
12809TIP3   OH259841   3.358   1.236   4.775 -0.0344  0.0665  0.3024
12809TIP3    H159842   3.425   1.171   4.800 -1.5951 -1.4748  0.6760
12809TIP3    H259843   3.333   1.210   4.686 -0.8156  0.0233  0.5324
12810TIP3   OH259844   3.143   3.765  16.688 -0.1318  0.6657  0.0334
12810TIP3    H159845   3.067   3.711  16.669 -0.0136  0.4492  0.1749
12810TIP3    H259846   3.194   3.764  16.607  0.3335 -0.1948  0.3259
12811TIP3   OH259847   2.480   6.127   4.606  0.6132  0.3134 -0.0850
12811TIP3    H159848   2.554   6.125   4.545  0.7095  0.1328  0.0354
12811TIP3    H259849   2.427   6.051   4.580  0.9518 -0.1058  0.4202
12812TIP3   OH259850   3.621   5.688  15.343  0.4134 -0.2792 -0.2483
12812TIP3    H159851   3.656   5.766  15.300  1.1934  0.6779  1.9377
12812TIP3    H259852   3.535   5.714  15.375  0.9336 -0.0476  1.0414
12813TIP3   OH259853   4.119   6.052  10.962 -0.5761  0.0688  0.1995
12813TIP3    H159854   4.066   6.026  10.887  2.1061 -0.0647 -1.7844
12813TIP3    H259855   4.098   5.986  11.029 -1.1332 -1.4037 -1.3408
12814TIP3   OH259856   5.922   4.877   4.023  0.8120 -0.0292  0.0568
12814TIP3    H159857   5.827   4.867   4.020  0.8963 -0.6570 -0.9789
12814TIP3    H259858   5.952   4.806   4.080  0.8000 -1.2644 -1.3721
12815TIP3   OH259859   2.924   3.590  10.592 -0.6446  0.4073  1.0988
12815TIP3    H159860   2.995   3.598  10.657  0.0524 -0.6251  0.5057
12815TIP3    H259861   2.917   3.495  10.578 -0.5647  0.6311 -0.5591
12816TIP3   OH259862   5.171   6.458   4.257 -0.2620  0.0352  0.6137
12816TIP3    H159863   5.108   6.527   4.279  0.4768  0.2635  2.1508
12816TIP3    H259864   5.156   6.390   4.323 -0.9475 -1.2896 -0.8498
12817TIP3   OH259865   3.194   4.684   3.858 -0.0400  0.6224  0.6336
12817TIP3    H159866   3.232   4.771   3.845 -0.4194  0.5458 -1.2700
12817TIP3    H259867   3.172   4.682   3.951  0.5853  2.3026  0.8679
12818TIP3   OH259868   6.037   3.715  16.598  0.1144 -0.2933 -0.4019
12818TIP3    H159869   6.063   3.798  16.640  2.0074 -0.9838 -0.1387
12818TIP3    H259870   5.989   3.668  16.666 -1.8582  0.9436 -0.8510
12819TIP3   OH259871   4.207   2.712  12.851 -0.0096 -0.8154 -0.2973
12819TIP3    H159872   4.141   2.750  12.908 -0.9719 -1.2060 -1.1150
12819TIP3    H259873   4.279   2.688  12.910 -0.2049  0.4327  0.4832
12820TIP3   OH259874   6.536   0.021   1.163  0.7602  0.1615 -0.1756
12820TIP3    H159875   6.551  -0.016   1.250  0.9093  2.4694  0.8632
12820TIP3    H259876   6.623   0.030   1.125  0.9547  1.3680  0.4776
12821TIP3   OH259877   5.292   4.874  15.906 -0.5221 -0.3824  0.3622
12821TIP3    H159878   5.320   4.786  15.932 -0.8723 -0.0400  1.9965
12821TIP3    H259879   5.200   4.879  15.934 -1.5044 -0.5538 -2.5299
12822TIP3   OH259880   1.806   0.708   2.403 -0.0028  0.1479  0.1428
12822TIP3    H159881   1.757   0.641   2.355  0.0305 -0.1465  0.5138
12822TIP3    H259882   1.862   0.748   2.337 -1.3801  1.1163 -0.4977
12823TIP3   OH259883   1.099   4.985   6.245 -0.3711 -0.0868  0.0625
12823TIP3    H159884   1.192   4.990   6.223 -0.2643  0.3307  0.5989
12823TIP3    H259885   1.095   5.007   6.338 -1.2313  2.1014 -0.4429
12824TIP3   OH259886   4.261   0.235   3.598  0.4809 -0.8085 -0.1171
12824TIP3    H159887   4.197   0.305   3.614 -0.2393 -0.9932 -1.8516
12824TIP3    H259888   4.344   0.271   3.627 -0.2226 -0.1121  1.1353
12825TIP3   OH259889   6.404   6.751   4.925  0.5778  0.0777 -0.1826
12825TIP3    H159890   6.310   6.737   4.936  0.0827  2.4825 -0.9015
12825TIP3    H259891   6.437   6.665   4.896 -1.3254 -0.8840  0.3276
12826TIP3   OH259892   5.299   6.567   6.211 -0.1773 -0.0348 -0.1475
12826TIP3    H159893   5.383   6.546   6.169  0.0203  0.3427  0.0533
12826TIP3    H259894   5.323   6.594   6.300 -0.6028 -0.9403  0.2551
12827TIP3   OH259895   0.725   2.134   5.145  0.4206  0.3832  0.0373
12827TIP3    H159896   0.716   2.157   5.237  0.9744  1.2190 -0.1033
12827TIP3    H259897   0.705   2.215   5.098  1.0064  0.1988 -0.5409
12828TIP3   OH259898   2.403   3.668   3.052  0.2321  0.0498 -0.3084
12828TIP3    H159899   2.471   3.705   2.996  0.4732 -0.5655 -0.4312
12828TIP3    H259900   2.408   3.717   3.133  2.3465 -1.4590  0.5480
12829TIP3   OH259901   0.985   1.478   4.306 -0.4819  0.1125 -0.4186
12829TIP3    H159902   0.935   1.494   4.386 -0.0478  0.3855 -0.1987
12829TIP3    H259903   1.034   1.559   4.291 -0.2422 -0.0855 -0.7313
12830TIP3   OH259904   1.203   0.625   4.724  0.2411 -0.5311 -0.9906
12830TIP3    H159905   1.137   0.671   4.671  1.5879  1.9421 -0.6861
12830TIP3    H259906   1.183   0.651   4.814  1.4778  0.1221 -0.8799
12831TIP3   OH259907   2.628   5.281   2.422 -0.2095  0.3741  0.0961
12831TIP3    H159908   2.649   5.189   2.407  0.8939  0.8063 -1.2603
12831TIP3    H259909   2.552   5.297   2.366 -1.4618 -0.0851  1.5973
12832TIP3   OH259910   6.155   4.292   2.747 -0.3740  0.3210 -0.6553
12832TIP3    H159911   6.206   4.339   2.813  0.3018  0.0205 -0.9459
12832TIP3    H259912   6.221   4.251   2.692 -0.9401 -1.5778  0.0217
12833TIP3   OH259913   6.099   1.132   0.951 -0.4303 -1.1194 -0.9916
12833TIP3    H159914   6.129   1.046   0.922 -1.6251 -1.9499  0.1008
12833TIP3    H259915   6.064   1.117   1.039  0.1388  0.6704 -0.4126
12834TIP3   OH259916   5.341   6.231  12.331  0.3902  0.6951  0.4368
12834TIP3    H159917   5.301   6.310  12.296  0.1003  0.2598 -0.2393
12834TIP3    H259918   5.371   6.183  12.253  0.5633  0.1477  0.8346
12835TIP3   OH259919   6.325   0.221   2.594 -0.5954  0.3382 -0.3108
12835TIP3    H159920   6.287   0.211   2.681  1.0432  0.7955  0.4875
12835TIP3    H259921   6.249   0.226   2.535 -1.7712  1.3208  1.2146
12836TIP3   OH259922   1.463   4.320  13.134  0.2429 -0.5717 -0.3701
12836TIP3    H159923   1.544   4.273  13.115 -0.0160 -0.0343 -3.3492
12836TIP3    H259924   1.490   4.412  13.142  0.3493 -0.7705  2.4635
12837TIP3   OH259925   5.720   3.078  15.745  0.1544 -0.4342 -0.5424
12837TIP3    H159926   5.639   3.070  15.695 -0.4644 -0.8777  0.4892
12837TIP3    H259927   5.698   3.045  15.832  1.3351 -0.1726 -0.1183
12838TIP3   OH259928   2.621   4.433   2.110 -0.4901  0.5797  0.5714
12838TIP3    H159929   2.708   4.394   2.111 -0.5415  0.4841  1.2266
12838TIP3    H259930   2.634   4.518   2.068  0.1209  1.0187  1.6144
12839TIP3   OH259931   3.077   0.849  16.727  0.2602  0.4358  0.4740
12839TIP3    H159932   3.063   0.785  16.656  0.9745  0.6090  0.1694
12839TIP3    H259933   3.039   0.807  16.804  2.1276 -1.1154  0.6425
12840TIP3   OH259934   5.210   3.285   6.443 -0.4607  0.1378 -0.2878
12840TIP3    H159935   5.296   3.247   6.427 -0.0178  1.8566 -2.4441
12840TIP3    H259936   5.168   3.225   6.505  2.4669 -0.4575  1.2988
12841TIP3   OH259937   3.526   6.261   3.243  0.4890 -0.1438 -0.4260
12841TIP3    H159938   3.482   6.332   3.289  0.9019 -0.1049 -0.0875
12841TIP3    H259939   3.461   6.190   3.240  0.5946 -0.2906  0.5729
12842TIP3   OH259940   6.184   6.669   2.395 -0.2798  0.4595  0.2249
12842TIP3    H159941   6.276   6.660   2.372 -0.0973 -0.3235  1.2154
12842TIP3    H259942   6.161   6.757   2.365  0.6296  0.4539 -0.5360
12843TIP3   OH259943   1.789   0.322   2.214  0.2359 -0.1622 -0.4805
12843TIP3    H159944   1.799   0.351   2.305 -0.6980 -0.5288 -0.2498
12843TIP3    H259945   1.807   0.228   2.216  1.1795 -0.0068 -0.8617
12844TIP3   OH259946   0.218   1.007  15.548 -0.0943  0.0502 -0.9676
12844TIP3    H159947   0.248   1.042  15.632  1.9836  0.1629 -1.6963
12844TIP3    H259948   0.224   1.081  15.488 -1.1430 -0.1437 -1.3275
12845TIP3   OH259949   6.766   6.267   5.370 -0.2245  0.2232  0.5099
12845TIP3    H159950   6.763   6.342   5.310 -1.1543 -0.2051 -0.0045
12845TIP3    H259951   6.858   6.255   5.389 -0.0400  1.3480  0.4005
12846TIP3   OH259952   2.624   5.009   0.433 -1.3774 -0.0658  0.2116
12846TIP3    H159953   2.673   4.991   0.514  1.4619 -1.6295 -1.6938
12846TIP3    H259954   2.580   5.092   0.450  0.3899  0.4743  2.7983
12847TIP3   OH259955   5.083   1.158   1.432  0.5931 -0.0859  0.4170
12847TIP3    H159956   5.034   1.123   1.507 -1.9900  0.1541 -1.0239
12847TIP3    H259957   5.085   1.252   1.446  1.7774 -0.1847  1.0592
12848TIP3   OH259958   5.644   5.334   1.108  0.0604  0.2066  0.0561
12848TIP3    H159959   5.600   5.269   1.053  0.1235 -1.8760  2.3215
12848TIP3    H259960   5.650   5.293   1.194  0.4768  3.0996  1.5167
12849TIP3   OH259961   6.339   6.616   6.540  0.4707  0.2631 -0.5773
12849TIP3    H159962   6.278   6.635   6.611 -1.3786 -2.2182 -1.3504
12849TIP3    H259963   6.425   6.619   6.581 -0.4455  0.0088  1.4996
12850TIP3   OH259964   0.368   1.401   0.601 -0.1571  0.5997  0.2883
12850TIP3    H159965   0.429   1.380   0.672  0.3525 -0.1230 -0.3532
12850TIP3    H259966   0.424   1.422   0.527 -0.6880  1.2997  0.0703
12851TIP3   OH259967   3.253   1.906  12.528 -0.0394 -0.3486 -0.4090
12851TIP3    H159968   3.227   1.963  12.456  0.3082 -0.7881 -0.8931
12851TIP3    H259969   3.260   1.819  12.489  0.1903 -0.5874  0.1457
12852TIP3   OH259970   4.692   5.545   2.173  0.1140  0.0216 -0.2131
12852TIP3    H159971   4.727   5.615   2.228 -0.7677  0.1212  0.2477
12852TIP3    H259972   4.685   5.584   2.086 -0.2504  0.4842  0.0140
12853TIP3   OH259973   5.722   5.266  10.911 -0.9657  0.2945 -0.9759
12853TIP3    H159974   5.648   5.315  10.876 -1.4777  0.1553 -0.1180
12853TIP3    H259975   5.687   5.177  10.924 -1.4304  0.7955  1.7651
12854TIP3   OH259976   4.778   0.973  11.400 -0.2550 -0.2802 -0.3779
12854TIP3    H159977   4.716   0.900  11.400 -0.5573 -0.0230  0.3942
12854TIP3    H259978   4.863   0.931  11.412 -0.5293 -0.4311  1.1928
12855TIP3   OH259979   4.194   4.347   2.141  0.0460 -0.0546 -0.0894
12855TIP3    H159980   4.212   4.266   2.092 -0.8868  0.1392 -0.7839
12855TIP3    H259981   4.109   4.332   2.182  0.2949  0.2333  0.5414
12856TIP3   OH259982   2.065   4.819  12.246  0.0437  0.5641 -0.1830
12856TIP3    H159983   1.978   4.779  12.255  0.2242  0.2217  0.0549
12856TIP3    H259984   2.111   4.762  12.184  0.7667 -0.4026  1.1922
12857TIP3   OH259985   0.155   3.742   0.375 -0.2513 -0.6261  0.3696
12857TIP3    H159986   0.228   3.798   0.401 -0.8411 -0.5454  2.0433
12857TIP3    H259987   0.196   3.662   0.341  0.5922  0.1135 -0.3849
12858TIP3   OH259988   0.845   6.582   1.219 -0.1772 -0.0293 -0.0172
12858TIP3    H159989   0.882   6.496   1.202  0.2511  0.3461 -1.0988
12858TIP3    H259990   0.889   6.640   1.157 -1.0145  0.8292  0.1576
12859TIP3   OH259991   0.164   2.035  14.726  0.2155  0.1590 -0.2312
12859TIP3    H159992   0.231   2.005  14.664 -1.0109 -1.0587 -1.0139
12859TIP3    H259993   0.200   2.012  14.812  1.5992  1.1870 -0.4959
12860TIP3   OH259994   6.441   1.319  11.508 -0.2176  0.3076  0.2325
12860TIP3    H159995   6.355   1.290  11.536  0.7103 -2.0008  0.9286
12860TIP3    H259996   6.492   1.325  11.589  0.6375  0.3444 -0.2969
12861TIP3   OH259997   0.763   5.200   3.929  0.0661 -0.7679  0.1550
12861TIP3    H159998   0.818   5.126   3.957 -0.1554 -0.6040  1.0578
12861TIP3    H259999   0.696   5.206   3.997  1.0550  1.3237  1.0057
12862TIP3   OH260000   6.443   6.446  14.298 -0.0970  0.7181  0.1398
12862TIP3    H160001   6.389   6.490  14.364 -2.0942  0.3439 -1.1774
12862TIP3    H260002   6.389   6.373  14.267  1.6449 -0.4032 -0.4271
12863TIP3   OH260003   6.393   3.995  10.415 -0.1152  0.3939 -0.4916
12863TIP3    H160004   6.354   3.967  10.498 -0.8084 -1.3868 -1.3777
12863TIP3    H260005   6.487   3.986  10.429 -0.1440  1.2538  0.4551
12864TIP3   OH260006   1.858   0.832  12.961  0.1747  0.2104  0.3697
12864TIP3    H160007   1.799   0.844  12.886  0.4643 -0.0867  0.0870
12864TIP3    H260008   1.900   0.747  12.945 -0.1362 -0.0932  1.1390
12865TIP3   OH260009   1.624   3.979  13.968  0.2949 -0.1638  0.2826
12865TIP3    H160010   1.693   4.009  14.027  0.6862 -1.0885  0.3184
12865TIP3    H260011   1.632   4.036  13.891  1.6635 -0.7729 -0.0681
12866TIP3   OH260012   3.368   2.347   0.847  0.1270 -0.2243 -0.2864
12866TIP3    H160013   3.326   2.431   0.865 -0.2808 -0.5299  0.2482
12866TIP3    H260014   3.461   2.367   0.839  0.1404  0.1721  0.6808
12867TIP3   OH260015   0.538   0.532   4.946  0.0295  0.5081 -0.1011
12867TIP3    H160016   0.630   0.539   4.971  0.4318 -0.2175 -1.2838
12867TIP3    H260017   0.528   0.591   4.871 -0.5538  0.8251  0.2174
12868TIP3   OH260018   6.103   6.263  13.067  0.2833 -0.3695 -0.5104
12868TIP3    H160019   6.067   6.347  13.037  0.4119 -0.6899 -1.5915
12868TIP3    H260020   6.029   6.203  13.066 -0.4374  0.2816  2.7613
12869TIP3   OH260021   0.411   3.263   4.439  0.2926 -0.1980 -0.0246
12869TIP3    H160022   0.502   3.257   4.413  0.7536 -0.3775  1.5003
12869TIP3    H260023   0.365   3.296   4.362  1.4146 -1.3740 -1.2451
12870TIP3   OH260024   3.101   1.835   6.320 -0.3790  0.0352  0.1122
12870TIP3    H160025   3.148   1.808   6.399 -1.1804  0.8459  0.8899
12870TIP3    H260026   3.170   1.847   6.254  0.1985 -1.7609  0.3276
12871TIP3   OH260027   3.851   6.302  12.198 -0.4310 -0.2297 -0.0566
12871TIP3    H160028   3.909   6.231  12.224  0.7588  0.4572 -0.7627
12871TIP3    H260029   3.804   6.325  12.279 -0.0059 -1.0518  0.4400
12872TIP3   OH260030   6.065   3.413   2.078 -0.7859 -0.1411 -0.0170
12872TIP3    H160031   6.045   3.366   2.159 -3.9686 -1.2816 -1.3027
12872TIP3    H260032   6.118   3.352   2.027 -2.1696 -1.1081 -0.3569
12873TIP3   OH260033   0.984   1.891  16.552 -0.7159 -0.4911  0.4617
12873TIP3    H160034   0.917   1.897  16.484 -0.2119  1.8690  0.0760
12873TIP3    H260035   1.064   1.869  16.504 -0.4603  0.6944  0.2884
12874TIP3   OH260036   3.661   5.137  10.982 -0.3010  0.4227  0.5277
12874TIP3    H160037   3.606   5.131  10.904 -0.3071 -0.2187  0.5746
12874TIP3    H260038   3.703   5.051  10.988 -0.3717  0.4343  1.2802
12875TIP3   OH260039   4.417   3.843  14.465  0.5422  0.2682  0.0348
12875TIP3    H160040   4.446   3.896  14.390  0.6796 -0.8517 -0.7285
12875TIP3    H260041   4.435   3.753  14.439 -1.2966 -0.2953  0.5747
12876TIP3   OH260042   2.488   3.626   2.625 -0.2398  0.1221  0.0544
12876TIP3    H160043   2.459   3.563   2.692  0.4556  0.5870  0.8114
12876TIP3    H260044   2.468   3.583   2.542 -3.7781  0.7245  0.4653
12877TIP3   OH260045   3.964   3.596   0.480 -0.1335  0.2988  0.1096
12877TIP3    H160046   4.014   3.637   0.410  0.8411  0.9840  1.1548
12877TIP3    H260047   3.980   3.503   0.471 -1.5434  0.1814 -1.6864
12878TIP3   OH260048   2.184   0.127  13.753  0.2981 -0.0706 -0.2214
12878TIP3    H160049   2.266   0.177  13.748  0.3377 -0.2621 -2.0070
12878TIP3    H260050   2.122   0.178  13.700 -0.0427 -1.1957 -0.9205
12879TIP3   OH260051   5.963   3.327  15.765  0.4480  0.5965  0.4906
12879TIP3    H160052   5.874   3.338  15.731  1.1253  1.6746 -1.0310
12879TIP3    H260053   5.975   3.232  15.769 -0.3548  0.4416 -0.4014
12880TIP3   OH260054   5.736   6.558  14.662  0.0081 -0.4380  0.5764
12880TIP3    H160055   5.799   6.550  14.733  1.0247  0.7050 -0.1402
12880TIP3    H260056   5.651   6.560  14.704  0.6300  0.9124  1.8194
12881TIP3   OH260057   2.298   3.341   3.196 -0.6016  0.3766  0.1035
12881TIP3    H160058   2.279   3.434   3.205  0.3303  0.4468  1.9457
12881TIP3    H260059   2.249   3.313   3.119  0.3166  2.7158 -1.4389
12882TIP3   OH260060   1.268   5.339   3.251 -0.3553  0.5299  0.2771
12882TIP3    H160061   1.229   5.314   3.335  0.3476 -0.5036  0.3096
12882TIP3    H260062   1.193   5.355   3.194 -0.8448 -1.0462  0.4455
12883TIP3   OH260063   5.544   1.950  16.835 -0.0542  0.5202  0.5028
12883TIP3    H160064   5.533   1.905  16.919  2.9855 -0.7004  0.3864
12883TIP3    H260065   5.485   1.906  16.775  1.8224 -2.5347  0.7241
12884TIP3   OH260066   3.567   0.735   5.716 -0.4253 -0.7184  0.4768
12884TIP3    H160067   3.564   0.775   5.802 -1.5464  0.3090 -0.0212
12884TIP3    H260068   3.485   0.685   5.709 -1.1269  0.5255 -0.5939
12885TIP3   OH260069   3.397   1.724  16.487 -0.0232  0.0253 -0.6574
12885TIP3    H160070   3.445   1.734  16.405 -0.8335  0.4212 -1.1045
12885TIP3    H260071   3.382   1.814  16.516 -0.4760 -0.0907 -0.5253
12886TIP3   OH260072   6.302   2.754  12.352 -0.2854  0.5769  0.1585
12886TIP3    H160073   6.386   2.777  12.314  0.4791 -0.5271  1.0753
12886TIP3    H260074   6.241   2.754  12.279  0.0388  3.3809 -0.2177
12887TIP3   OH260075   2.784   4.986  16.774 -0.7896 -0.2483  0.1605
12887TIP3    H160076   2.753   5.039  16.701 -0.1259 -0.9146 -0.6207
12887TIP3    H260077   2.783   5.045  16.849 -0.8027  0.6409 -0.5325
12888TIP3   OH260078   0.625   6.069   1.391 -0.2776 -0.5883 -0.4821
12888TIP3    H160079   0.580   6.146   1.356 -0.7544 -0.9348 -0.6376
12888TIP3    H260080   0.670   6.101   1.470  1.9469  0.5308 -2.0897
12889TIP3   OH260081   5.291   0.433   2.619  0.1946 -0.1947 -0.1402
12889TIP3    H160082   5.205   0.467   2.594 -0.6109 -1.8631  0.2047
12889TIP3    H260083   5.273   0.375   2.693  1.6100 -0.6039 -0.0926
12890TIP3   OH260084   3.145   5.727  14.111  0.0300  0.2110 -0.2034
12890TIP3    H160085   3.096   5.686  14.040  0.7447 -0.2117 -0.4596
12890TIP3    H260086   3.137   5.666  14.185  0.6833 -0.1606 -0.4345
12891TIP3   OH260087   6.575   3.186  12.522  0.1332  0.4943 -0.2485
12891TIP3    H160088   6.518   3.167  12.448 -3.2318 -2.5627  2.7215
12891TIP3    H260089   6.522   3.240  12.580 -0.0236 -2.3757  2.6076
12892TIP3   OH260090   3.247   0.626  10.867 -0.3116  0.4535 -0.4780
12892TIP3    H160091   3.289   0.551  10.824  0.4120  0.1009  0.7808
12892TIP3    H260092   3.157   0.597  10.883 -0.1697  0.0303 -0.4318
12893TIP3   OH260093   1.024   3.823  16.961  0.4283 -0.0403  0.1783
12893TIP3    H160094   0.978   3.852  16.882  2.1768  0.3243 -0.7459
12893TIP3    H260095   0.978   3.743  16.988 -0.1067 -0.2472 -1.2869
12894TIP3   OH260096   3.483   4.579   3.774  0.0610 -0.0715  0.2342
12894TIP3    H160097   3.492   4.489   3.804 -0.2700 -0.0340  0.4359
12894TIP3    H260098   3.407   4.613   3.819  0.2817  0.3644  0.2835
12895TIP3   OH260099   2.195   5.692  16.886 -0.2586  0.4836 -0.3202
12895TIP3    H160100   2.134   5.629  16.923  0.5846 -0.4321 -0.4532
12895TIP3    H260101   2.282   5.655  16.903  0.2049  0.8412 -1.7151
12896TIP3   OH260102   2.747   3.781   2.202  0.1183  0.1091 -0.3554
12896TIP3    H160103   2.751   3.790   2.297 -0.3875 -0.8885 -0.2318
12896TIP3    H260104   2.697   3.701   2.187  0.3108  0.1786 -1.4617
12897TIP3   OH260105   1.861   4.188   2.884  0.3665  0.5261 -0.0361
12897TIP3    H160106   1.804   4.265   2.872  0.0279  0.6287  1.8476
12897TIP3    H260107   1.942   4.224   2.920  0.6002  0.0860 -0.1191
12898TIP3   OH260108   3.808   2.204   3.735  0.0223 -0.2759  0.5537
12898TIP3    H160109   3.823   2.298   3.737  2.9017 -0.6419  0.0429
12898TIP3    H260110   3.819   2.180   3.642 -1.8269 -0.9918  0.4774
12899TIP3   OH260111   2.099   2.801   0.268  0.1230  0.2705  0.6560
12899TIP3    H160112   2.127   2.892   0.261  0.0052  0.2709  0.1490
12899TIP3    H260113   2.165   2.760   0.325  0.2628  0.6321  0.7590
12900TIP3   OH260114   5.595   2.331  15.458  0.4826 -0.6154  0.2087
12900TIP3    H160115   5.628   2.244  15.480  0.0311 -0.8396  0.0078
12900TIP3    H260116   5.644   2.357  15.380 -0.9825 -1.6652 -1.1169
12901TIP3   OH260117   4.545   1.055   4.684  0.5674 -0.1298  0.3074
12901TIP3    H160118   4.460   1.090   4.659 -0.3438 -1.8351  0.8728
12901TIP3    H260119   4.605   1.088   4.617 -0.1558  2.5613  0.8666
12902TIP3   OH260120   5.582   1.326  13.309 -0.3182  0.5799 -0.0126
12902TIP3    H160121   5.565   1.416  13.337  2.8693  0.9081  1.2000
12902TIP3    H260122   5.655   1.333  13.248 -0.3942 -1.1598 -0.3487
12903TIP3   OH260123   2.239   6.203   0.378  0.3144  0.3071 -0.1831
12903TIP3    H160124   2.300   6.142   0.420 -1.0951 -1.2327 -0.2936
12903TIP3    H260125   2.240   6.280   0.435  1.2640 -0.2708  0.6089
12904TIP3   OH260126   3.262   1.647  13.566 -0.7721  0.1266  0.2612
12904TIP3    H160127   3.195   1.609  13.509 -0.2325  1.8065 -1.6300
12904TIP3    H260128   3.334   1.584  13.564 -1.6707 -0.9798  1.1083
12905TIP3   OH260129   1.241   3.074  16.386 -0.7178 -0.6797 -0.2009
12905TIP3    H160130   1.206   2.986  16.371  0.3618 -1.0161 -0.8691
12905TIP3    H260131   1.336   3.065  16.373 -0.3916  0.2519  1.3388
12906TIP3   OH260132   2.598   1.492  15.180 -0.9152 -0.1949  0.4512
12906TIP3    H160133   2.605   1.402  15.147  0.4294  0.0098  0.1049
12906TIP3    H260134   2.534   1.486  15.251 -1.6255 -1.2170 -0.2508
12907TIP3   OH260135   1.094   6.215   5.486  0.6729  0.0226  0.1290
12907TIP3    H160136   1.169   6.233   5.429  1.0060 -0.7779  0.3029
12907TIP3    H260137   1.131   6.165   5.559  0.5032  2.0816  1.7287
12908TIP3   OH260138   2.146   1.741  13.397  0.2028 -0.0461  0.2811
12908TIP3    H160139   2.114   1.756  13.486 -1.3055  4.0362 -0.7372
12908TIP3    H260140   2.072   1.699  13.352  0.4234 -0.7538  0.5656
12909TIP3   OH260141   2.006   0.322  16.857 -0.3956  0.0150 -0.2222
12909TIP3    H160142   2.094   0.355  16.837 -0.1986  0.9070  1.9243
12909TIP3    H260143   2.008   0.231  16.825  1.1134  0.1743 -0.6834
12910TIP3   OH260144   5.319   6.287   1.311 -0.5338 -0.2345 -0.1797
12910TIP3    H160145   5.348   6.305   1.222 -0.7410 -1.3361 -0.4886
12910TIP3    H260146   5.353   6.359   1.363  1.3604 -0.6333 -0.8088
12911TIP3   OH260147   3.491   6.181   0.057  0.5789 -0.0825 -0.3579
12911TIP3    H160148   3.516   6.241   0.127  0.2408 -0.3453 -0.0050
12911TIP3    H260149   3.562   6.186  -0.007  1.8932 -1.3273  0.9455
12912TIP3   OH260150   2.361   4.872  12.877  0.4967 -0.6402  0.3367
12912TIP3    H160151   2.350   4.933  12.805 -0.2399 -0.9795  0.1545
12912TIP3    H260152   2.277   4.874  12.924  1.5186  0.9257  2.2742
12913TIP3   OH260153   0.463   4.849  13.967  0.4874  0.1593  0.1038
12913TIP3    H160154   0.507   4.783  14.020 -0.3323  0.0178  0.6306
12913TIP3    H260155   0.530   4.879  13.905  1.0718 -0.6456  0.3278
12914TIP3   OH260156   1.393   3.524   4.667 -0.4089  0.0080 -0.4289
12914TIP3    H160157   1.358   3.564   4.747 -0.5748 -0.0493 -0.4737
12914TIP3    H260158   1.391   3.594   4.602 -1.6756 -0.3477 -0.7975
12915TIP3   OH260159   4.491   5.163   3.595  0.0695  0.2847 -0.3672
12915TIP3    H160160   4.477   5.258   3.589  0.1610  0.2753 -0.7254
12915TIP3    H260161   4.414   5.125   3.553  1.2749  0.2360 -2.6870
12916TIP3   OH260162   1.241   1.675   2.616  0.4460 -0.3130 -0.3047
12916TIP3    H160163   1.268   1.641   2.702 -1.4093  0.1005  0.4820
12916TIP3    H260164   1.207   1.762   2.634  0.2856 -0.1062 -1.5307
12917TIP3   OH260165   4.835   1.164   5.756  0.0376  0.2000  0.2858
12917TIP3    H160166   4.793   1.214   5.826  0.1400 -1.3064  1.4783
12917TIP3    H260167   4.825   1.219   5.678 -0.6487  1.6386  1.3369
12918TIP3   OH260168   2.975   1.790  12.613 -0.2937 -0.5672 -0.6112
12918TIP3    H160169   2.970   1.863  12.551  2.6604  2.0095  1.7949
12918TIP3    H260170   2.900   1.803  12.671  0.3431  0.8289 -0.0514
12919TIP3   OH260171   4.869   1.613   1.461 -0.2510  0.4617 -0.0445
12919TIP3    H160172   4.842   1.613   1.553  0.5922  0.4273  0.2101
12919TIP3    H260173   4.803   1.667   1.417  0.1602  1.7050  0.8239
12920TIP3   OH260174   5.990   1.666  13.918 -0.5477 -0.0823  0.5518
12920TIP3    H160175   6.081   1.649  13.942 -0.5564  1.5610  1.9473
12920TIP3    H260176   5.940   1.602  13.969 -0.1989 -1.1048 -0.3482
12921TIP3   OH260177   4.121   2.754  14.556 -0.6040 -0.2638  0.1577
12921TIP3    H160178   4.189   2.693  14.583 -1.5302 -0.9907  0.8973
12921TIP3    H260179   4.130   2.759  14.461  0.7791  0.0295  0.2738
12922TIP3   OH260180   4.342   1.531  12.270  0.2012  0.4794  0.3054
12922TIP3    H160181   4.295   1.479  12.335  2.1376  1.5898  2.7559
12922TIP3    H260182   4.306   1.502  12.186 -1.4632 -2.0279  1.7433
12923TIP3   OH260183   4.019   0.316  17.072 -0.4066 -0.0026  0.0877
12923TIP3    H160184   4.049   0.395  17.026 -3.0850  1.1335  0.0962
12923TIP3    H260185   4.057   0.243  17.022  0.5461  1.2440 -1.0971
12924TIP3   OH260186   6.591   2.886  16.324  0.6600 -0.3043 -0.3533
12924TIP3    H160187   6.500   2.907  16.346  0.9542 -0.8973  1.5846
12924TIP3    H260188   6.643   2.955  16.364  1.0879 -0.0066 -1.3912
12925TIP3   OH260189   3.860   3.754   3.858  0.0593 -0.6801 -0.2368
12925TIP3    H160190   3.898   3.771   3.945  1.9393 -0.0561 -1.1211
12925TIP3    H260191   3.795   3.823   3.846  1.4224  0.6595 -0.2262
12926TIP3   OH260192   6.736   6.252  14.726 -0.7260  0.1727  0.0434
12926TIP3    H160193   6.809   6.305  14.760 -1.3107  0.6624  0.5522
12926TIP3    H260194   6.761   6.233  14.635 -0.3093  0.9683 -0.0225
12927TIP3   OH260195   4.320   6.708   3.008 -0.2440  0.0368  0.0537
12927TIP3    H160196   4.260   6.783   3.003 -0.6876 -0.3295 -0.1547
12927TIP3    H260197   4.278   6.648   3.070  0.4251  0.2338  0.7177
12928TIP3   OH260198   0.402   6.117   2.961  0.3166 -0.2249  0.1501
12928TIP3    H160199   0.313   6.098   2.933  0.3414  1.0967 -0.9063
12928TIP3    H260200   0.454   6.044   2.929 -0.2579 -0.6231  0.1102
12929TIP3   OH260201   2.466   4.185   3.830 -0.0218 -0.0485  0.2338
12929TIP3    H160202   2.512   4.263   3.798  0.3265  0.2540  1.4294
12929TIP3    H260203   2.390   4.218   3.877  0.6539 -0.3436  1.6079
12930TIP3   OH260204   1.413   0.288   5.597 -0.2688  0.0891 -0.4180
12930TIP3    H160205   1.397   0.374   5.637 -1.9269  0.2671 -1.3540
12930TIP3    H260206   1.360   0.227   5.648  2.3434 -0.7911  1.4471
12931TIP3   OH260207   6.346   6.537  14.930 -0.3668 -0.2494  0.0428
12931TIP3    H160208   6.406   6.485  14.876  0.6531 -1.1820  1.9775
12931TIP3    H260209   6.290   6.582  14.866  1.2010 -0.7454 -1.7962
12932TIP3   OH260210   2.668   5.410   1.243 -0.5208  0.0968  0.0162
12932TIP3    H160211   2.655   5.490   1.192  2.0410  1.2091  0.9357
12932TIP3    H260212   2.622   5.426   1.325  0.4031  0.8656  0.3939
12933TIP3   OH260213   3.721   6.413   1.041 -0.1948  0.2131  0.0236
12933TIP3    H160214   3.762   6.424   0.955 -1.7859 -0.2043 -0.8402
12933TIP3    H260215   3.746   6.325   1.069  0.8160  0.5716  0.2795
12934TIP3   OH260216   6.675   3.019  11.865 -0.2514  0.1007  0.0387
12934TIP3    H160217   6.739   3.032  11.795 -0.1028  0.0986  0.1729
12934TIP3    H260218   6.654   3.107  11.896 -0.2015  0.0918  0.0964
12935TIP3   OH260219   5.951   3.427   3.182 -0.2691 -0.2628 -0.0369
12935TIP3    H160220   5.878   3.449   3.124  0.1569  1.0717 -0.0912
12935TIP3    H260221   5.968   3.334   3.164  0.0417  0.1628 -2.2876
12936TIP3   OH260222   0.758   2.564  13.867  0.2993  0.4637  0.2145
12936TIP3    H160223   0.781   2.476  13.896  0.4263  0.9159  1.5097
12936TIP3    H260224   0.731   2.610  13.946 -1.5647  1.0566 -0.6981
12937TIP3   OH260225   0.275   6.756   5.644  0.7223 -0.0873  0.9517
12937TIP3    H160226   0.295   6.802   5.563 -0.4046  1.0711  1.3129
12937TIP3    H260227   0.348   6.778   5.703  1.5517 -0.9460  0.2913
12938TIP3   OH260228   2.529   5.934   1.799 -0.2738  0.2532  0.3536
12938TIP3    H160229   2.538   5.976   1.713  0.3293 -0.0110  0.2811
12938TIP3    H260230   2.495   6.003   1.856 -0.1653  0.5833  0.0250
12939TIP3   OH260231   0.438   3.755  17.085  0.9546 -0.4374  0.1076
12939TIP3    H160232   0.486   3.673  17.088  2.0814  0.2357  1.6085
12939TIP3    H260233   0.504   3.822  17.102  0.0368  0.7857 -0.9774
12940TIP3   OH260234   6.114   0.645  17.288  0.4860 -0.2311 -0.7612
12940TIP3    H160235   6.110   0.738  17.269 -0.3565 -0.1489 -0.1923
12940TIP3    H260236   6.207   0.623  17.276  1.1811  1.1910  1.4437
12941TIP3   OH260237   0.275   6.286  13.081 -0.1721  0.1769  0.0732
12941TIP3    H160238   0.251   6.194  13.094 -1.2941  0.5000  0.3148
12941TIP3    H260239   0.262   6.327  13.166  1.8172  0.2737  0.3981
12942TIP3   OH260240   2.186   2.428   0.789 -0.2241  0.1690 -0.0710
12942TIP3    H160241   2.147   2.472   0.714 -0.4665  0.7289  0.3673
12942TIP3    H260242   2.123   2.443   0.860 -0.7345 -1.6097 -0.0914
12943TIP3   OH260243   4.951   5.428   1.850  0.3141  0.1283  0.2115
12943TIP3    H160244   4.863   5.391   1.846  0.3612 -0.2618  1.8124
12943TIP3    H260245   4.964   5.448   1.943  0.8312  2.9391 -0.3768
12944TIP3   OH260246   2.205   5.325  15.201 -0.4809  0.0983  0.1335
12944TIP3    H160247   2.206   5.381  15.123  1.6278  0.3366  0.2669
12944TIP3    H260248   2.217   5.385  15.274 -2.3086 -0.1407  0.6797
12945TIP3   OH260249   4.449   2.400   5.416 -1.0004  0.0626 -0.2473
12945TIP3    H160250   4.418   2.416   5.328 -2.1680 -1.5119 -0.1721
12945TIP3    H260251   4.389   2.334   5.451 -1.4283  1.6114  2.2182
12946TIP3   OH260252   5.870   4.554   0.117 -0.4327  0.0153 -0.7262
12946TIP3    H160253   5.881   4.572   0.023 -2.5464 -0.9216 -1.2122
12946TIP3    H260254   5.862   4.640   0.157  2.2972  0.5247 -1.0681
12947TIP3   OH260255   0.680   0.227  16.036  0.2623  0.1712 -0.3851
12947TIP3    H160256   0.642   0.236  15.949  0.2257  0.4616 -0.3409
12947TIP3    H260257   0.738   0.152  16.030 -0.0056 -0.0228 -0.5658
12948TIP3   OH260258   0.819   3.905   2.257 -0.2644  1.0848  0.5511
12948TIP3    H160259   0.860   3.968   2.316  1.8512 -0.7241  1.1495
12948TIP3    H260260   0.759   3.855   2.314 -1.2213  1.8911  0.2776
12949TIP3   OH260261   3.044   2.523   2.574 -0.5484 -0.2784 -0.6224
12949TIP3    H160262   3.092   2.474   2.507 -1.0412 -0.4814 -0.8291
12949TIP3    H260263   3.021   2.606   2.530 -1.2323 -0.5789 -0.8499
12950TIP3   OH260264   3.623   4.422  13.566 -0.7453  0.0535 -0.0851
12950TIP3    H160265   3.682   4.487  13.604  0.7020 -0.8313 -0.7310
12950TIP3    H260266   3.681   4.353  13.534 -2.1803 -1.1377 -0.2283
12951TIP3   OH260267   5.314   2.470   4.254  0.2656  0.6095 -0.1768
12951TIP3    H160268   5.294   2.554   4.213 -0.6451  0.7220  0.4559
12951TIP3    H260269   5.359   2.494   4.335 -1.4058  0.5953  0.8031
12952TIP3   OH260270   0.780   3.479   2.080 -0.0535 -0.2600 -0.6348
12952TIP3    H160271   0.833   3.500   2.158 -1.0389 -2.0781  0.5992
12952TIP3    H260272   0.812   3.393   2.052 -0.0459  0.1595 -1.9835
12953TIP3   OH260273   4.497   0.279   4.591  0.3821 -0.1808  0.4174
12953TIP3    H160274   4.433   0.240   4.531 -1.2772  4.3625 -1.1794
12953TIP3    H260275   4.573   0.299   4.536  0.9684 -0.5319  1.0712
12954TIP3   OH260276   6.594   2.914   7.007  0.0087 -0.1996  0.3815
12954TIP3    H160277   6.568   2.951   6.923  0.2736  0.4738  0.5892
12954TIP3    H260278   6.653   2.842   6.985 -0.8423 -0.7913 -0.0415
12955TIP3   OH260279   3.968   4.137  12.240 -0.0646  0.2758 -0.0079
12955TIP3    H160280   3.929   4.050  12.230  2.3272 -1.0309  1.1202
12955TIP3    H260281   3.982   4.168  12.150 -0.2844 -0.8181 -0.4314
12956TIP3   OH260282   4.184   0.311  11.753  0.4727 -0.4689 -0.0275
12956TIP3    H160283   4.245   0.329  11.825  0.4584  1.7545 -0.4988
12956TIP3    H260284   4.205   0.222  11.725 -0.0994 -1.8063  3.2599
12957TIP3   OH260285   1.259   2.337  15.609  0.0706  0.5684  0.3301
12957TIP3    H160286   1.335   2.344  15.667  0.8808 -0.3310 -0.5769
12957TIP3    H260287   1.188   2.306  15.666  0.1297  2.2013  1.3586
12958TIP3   OH260288   0.120   3.804   3.882  0.3649  0.1623 -0.2636
12958TIP3    H160289   0.208   3.766   3.882  0.3248  0.0484 -0.9800
12958TIP3    H260290   0.080   3.772   3.801 -0.8612 -0.9868  0.7442
12959TIP3   OH260291   6.111   0.831   1.117 -0.0118 -0.1805 -0.0204
12959TIP3    H160292   6.025   0.807   1.150  0.0101 -1.3316 -0.7332
12959TIP3    H260293   6.125   0.921   1.147 -0.6495 -0.6292  1.6894
12960TIP3   OH260294   4.122   6.521  14.305 -0.1986 -0.2073  0.0999
12960TIP3    H160295   4.201   6.468  14.301 -0.5874 -0.7832 -0.1198
12960TIP3    H260296   4.117   6.565  14.221 -1.0395 -1.5594 -0.6051
12961TIP3   OH260297   4.582   4.440  16.323  0.2363  0.1805  0.3396
12961TIP3    H160298   4.505   4.406  16.279 -1.4246  0.3727  2.8562
12961TIP3    H260299   4.654   4.383  16.296 -0.9631 -0.5951 -1.3388
12962TIP3   OH260300   4.299   4.433   6.097 -0.7612  0.0611 -0.2843
12962TIP3    H160301   4.369   4.425   6.162  0.6785 -0.1561 -1.8070
12962TIP3    H260302   4.301   4.350   6.049 -1.7237  0.2628 -0.6950
12963TIP3   OH260303   3.498   4.098   1.173  0.0670 -0.4284 -0.3433
12963TIP3    H160304   3.590   4.076   1.160  0.4566  1.3761 -0.9416
12963TIP3    H260305   3.496   4.144   1.257  0.0005  0.8452 -1.0115
12964TIP3   OH260306   2.626   2.646  12.096  0.2497 -0.0789 -0.0367
12964TIP3    H160307   2.555   2.642  12.032  0.7626 -2.1167 -0.5397
12964TIP3    H260308   2.590   2.604  12.174 -0.8748  3.6345  1.6803
12965TIP3   OH260309   3.597   3.932   1.453 -0.4541 -0.1795  0.0381
12965TIP3    H160310   3.588   3.864   1.386 -3.5020  0.5516 -0.4465
12965TIP3    H260311   3.535   4.000   1.426  0.7736  1.7345  1.7786
12966TIP3   OH260312   3.990   6.764  12.625  0.2777  0.1070 -0.8027
12966TIP3    H160313   3.917   6.704  12.612  0.0108  0.2897 -0.1661
12966TIP3    H260314   4.057   6.712  12.670 -0.8685  0.8565  2.0004
12967TIP3   OH260315   6.291   6.691   1.068 -0.0648  0.1582 -0.6988
12967TIP3    H160316   6.311   6.707   0.976  1.7092 -2.6200 -0.9212
12967TIP3    H260317   6.369   6.720   1.116 -0.0374 -0.4696 -0.3447
12968TIP3   OH260318   0.220   2.208  16.245 -0.5183  0.7130  0.0449
12968TIP3    H160319   0.278   2.170  16.178  0.0391  0.8425  0.4482
12968TIP3    H260320   0.136   2.164  16.231  0.0841 -0.6142  0.4351
12969TIP3   OH260321   5.082   2.900  12.710 -0.4660 -0.0007 -0.2287
12969TIP3    H160322   5.135   2.903  12.789  0.1818 -0.1444 -0.6484
12969TIP3    H260323   5.127   2.959  12.649 -1.5397  0.9331 -0.1453
12970TIP3   OH260324   3.247   3.846   1.749 -0.3536 -0.0161  0.2958
12970TIP3    H160325   3.316   3.900   1.712 -1.6251  0.9992 -0.6878
12970TIP3    H260326   3.196   3.905   1.804 -1.7982 -0.1404 -0.8367
12971TIP3   OH260327   0.937   1.631   2.064  0.0439 -0.5281  0.2696
12971TIP3    H160328   0.957   1.668   2.150  0.8785  0.0090 -0.1500
12971TIP3    H260329   1.019   1.636   2.015  0.0270 -2.3854 -0.0113
12972TIP3   OH260330   5.404   5.712  11.096 -0.0592  0.0659  0.0579
12972TIP3    H160331   5.378   5.627  11.060  2.5919 -0.4925 -0.7640
12972TIP3    H260332   5.405   5.771  11.021  1.0232  0.0439  0.0394
12973TIP3   OH260333   4.648   5.212   4.506 -0.0251  0.9951  0.5014
12973TIP3    H160334   4.682   5.296   4.537  2.1668  0.1129  0.6265
12973TIP3    H260335   4.644   5.157   4.584  1.3810  0.1007 -0.0317
12974TIP3   OH260336   1.593   4.257   3.688  0.1683 -0.1876 -0.4385
12974TIP3    H160337   1.557   4.198   3.754  0.4642 -2.3340 -2.0889
12974TIP3    H260338   1.537   4.334   3.692 -0.4501 -0.6718  1.5743
12975TIP3   OH260339   2.619   5.640   4.452 -0.1521  0.0285 -0.0169
12975TIP3    H160340   2.642   5.732   4.439 -1.2308  0.8821  3.2301
12975TIP3    H260341   2.531   5.632   4.414  0.9556 -0.4750 -2.7229
12976TIP3   OH260342   1.497   4.932  16.284  1.2548  0.4703  0.2734
12976TIP3    H160343   1.586   4.925  16.320  1.4423  0.7659 -0.1362
12976TIP3    H260344   1.507   4.980  16.202  0.5939  1.3105  0.6661
12977TIP3   OH260345   4.351   1.996   4.443  0.2106  0.1581  0.2299
12977TIP3    H160346   4.428   1.946   4.419  0.7189  0.6481  0.8158
12977TIP3    H260347   4.377   2.046   4.520 -0.5068  0.7643  0.0984
12978TIP3   OH260348   5.663   3.522  16.173 -0.2002  0.9337 -0.1189
12978TIP3    H160349   5.646   3.604  16.127  1.4871  0.7133 -1.2367
12978TIP3    H260350   5.729   3.478  16.119  0.0431 -0.4658  1.2557
12979TIP3   OH260351   1.465   4.598  13.450  0.0216  0.1439 -0.4345
12979TIP3    H160352   1.371   4.598  13.467  0.2043 -0.3342  0.6816
12979TIP3    H260353   1.482   4.680  13.405 -0.7964  0.6601  0.1765
12980TIP3   OH260354   0.658   2.954   1.063 -0.4215  0.0915 -0.2924
12980TIP3    H160355   0.660   3.033   1.116  2.5462  1.4292 -2.1564
12980TIP3    H260356   0.690   2.885   1.121 -2.6181  0.2629  1.2166
12981TIP3   OH260357   5.653   4.642  11.465 -0.5913 -0.3020 -0.2568
12981TIP3    H160358   5.724   4.623  11.405 -1.2640  0.6135 -1.3858
12981TIP3    H260359   5.574   4.610  11.420 -0.9299 -1.1410  0.8867
12982TIP3   OH260360   5.765   3.976   0.507  0.3542  0.2106  0.2468
12982TIP3    H160361   5.855   3.964   0.537  0.4988 -0.7672 -0.5355
12982TIP3    H260362   5.754   3.913   0.435 -0.4705  1.3800 -0.7045
12983TIP3   OH260363   3.516   0.010   3.434  0.0431  0.0335 -0.6508
12983TIP3    H160364   3.524   0.104   3.416  0.5793 -0.1462 -1.3927
12983TIP3    H260365   3.605  -0.024   3.424  0.2913 -0.2069  1.7262
12984TIP3   OH260366   3.944   5.620   4.483 -0.6448  0.0295  0.4209
12984TIP3    H160367   4.031   5.660   4.488 -0.6073  0.1376 -0.6880
12984TIP3    H260368   3.902   5.642   4.566  0.2666  0.2619  0.8296
12985TIP3   OH260369   1.985   2.685   5.766 -0.0224 -0.2759  0.1080
12985TIP3    H160370   1.912   2.733   5.805 -1.4084 -2.2215  0.0477
12985TIP3    H260371   1.944   2.623   5.706  1.8358 -0.1077 -1.4219
12986TIP3   OH260372   3.870   3.452  13.648 -0.6468  0.4900  0.4718
12986TIP3    H160373   3.781   3.486  13.654 -0.8812 -0.0050 -0.1043
12986TIP3    H260374   3.885   3.407  13.731 -2.1527 -2.2809 -0.6356
12987TIP3   OH260375   0.494   0.995   6.107 -0.5765 -0.1726  0.1419
12987TIP3    H160376   0.423   1.002   6.171 -0.8936  1.1323 -0.3340
12987TIP3    H260377   0.542   1.077   6.114  1.4809 -1.3531  1.0752
12988TIP3   OH260378   2.895   3.572   0.796  0.8358  0.7508 -0.4781
12988TIP3    H160379   2.951   3.592   0.721 -1.1132 -1.3437 -2.6583
12988TIP3    H260380   2.868   3.481   0.783  0.4688  0.2548  2.8754
12989TIP3   OH260381   3.997   4.346   1.730 -0.5513 -0.6632 -0.9449
12989TIP3    H160382   4.061   4.403   1.687 -1.6324  1.1545 -0.2458
12989TIP3    H260383   3.917   4.356   1.679 -2.4919  3.1361  2.3272
12990TIP3   OH260384   2.197   0.899  16.506 -0.2939  0.4972 -0.5525
12990TIP3    H160385   2.166   0.875  16.419 -0.8277 -1.3845  0.1156
12990TIP3    H260386   2.120   0.888  16.562  0.6582 -0.7159  0.5424
12991TIP3   OH260387   2.790   3.294  16.893  0.4186 -0.0042 -0.5313
12991TIP3    H160388   2.754   3.334  16.814 -3.7240 -2.1427 -0.0148
12991TIP3    H260389   2.752   3.345  16.965  2.2084  0.4060  0.2014
12992TIP3   OH260390   3.782   4.280   1.248 -0.1914 -0.6634 -0.1045
12992TIP3    H160391   3.863   4.326   1.227 -0.9825  0.1541 -1.4636
12992TIP3    H260392   3.808   4.187   1.250  0.7433 -0.4285 -0.6560
12993TIP3   OH260393   6.190   2.837   3.023 -0.1910 -0.8117 -0.4716
12993TIP3    H160394   6.281   2.809   3.025 -0.2616 -1.1531  2.5392
12993TIP3    H260395   6.190   2.925   3.060 -0.9368 -0.1316 -1.9942
12994TIP3   OH260396   4.297   0.057  14.649  0.1360  0.0726  0.5435
12994TIP3    H160397   4.382   0.018  14.667  0.5039 -0.4748 -1.9793
12994TIP3    H260398   4.312   0.151  14.649 -0.0068  0.1623  3.2249
12995TIP3   OH260399   0.473   6.730  11.344 -0.3511 -0.2846  0.0272
12995TIP3    H160400   0.451   6.656  11.287 -0.5727 -0.7288  0.6674
12995TIP3    H260401   0.511   6.796  11.286 -1.0802 -0.5036 -0.7102
12996TIP3   OH260402   5.835   2.249  15.803 -0.5183 -0.2782  0.7038
12996TIP3    H160403   5.829   2.307  15.879 -0.1623 -0.5182  0.9216
12996TIP3    H260404   5.928   2.227  15.797 -0.5392 -0.2424  0.1811
12997TIP3   OH260405   3.540   3.115  11.471  0.5540  0.3097 -0.0476
12997TIP3    H160406   3.525   3.094  11.379  2.5042 -0.3738 -0.2356
12997TIP3    H260407   3.569   3.206  11.470 -1.7512  1.1312  0.1827
12998TIP3   OH260408   5.243   1.678  10.616  0.0399  0.6282  0.5424
12998TIP3    H160409   5.292   1.749  10.656  0.1604 -0.6121  2.7446
12998TIP3    H260410   5.307   1.607  10.609 -0.0468  0.7085 -1.7248
12999TIP3   OH260411   4.704   2.778   4.394  0.2381 -0.0037 -0.0758
12999TIP3    H160412   4.631   2.783   4.332 -0.2600 -0.5976  0.4562
12999TIP3    H260413   4.767   2.718   4.354 -0.0913 -0.3998 -0.0006
13000TIP3   OH260414   0.361   0.495   2.587  0.4609  0.2974 -0.2128
13000TIP3    H160415   0.275   0.471   2.623  0.5559  0.4413  0.1188
13000TIP3    H260416   0.368   0.446   2.505  0.2125  0.0029 -0.0588
13001TIP3   OH260417   0.575   0.774   5.110 -0.4915 -0.6446  0.1562
13001TIP3    H160418   0.500   0.716   5.121 -0.0136 -1.2135  0.4967
13001TIP3    H260419   0.645   0.732   5.160 -0.4339  0.7947  1.3692
13002TIP3   OH260420   3.291   6.472   4.341  0.2080  0.2138  0.1743
13002TIP3    H160421   3.208   6.476   4.387 -1.1102 -2.0073 -1.7828
13002TIP3    H260422   3.354   6.443   4.407 -0.9554  0.0305  1.2370
13003TIP3   OH260423   0.434   2.683   2.173  0.5012  0.0707 -0.4402
13003TIP3    H160424   0.415   2.762   2.223 -1.3906 -0.2943 -0.5300
13003TIP3    H260425   0.424   2.612   2.236  0.2577 -0.2318 -0.8156
13004TIP3   OH260426   4.575   4.870   2.575 -0.4559  0.4280  0.0045
13004TIP3    H160427   4.556   4.799   2.513  1.7709  0.8326 -1.2898
13004TIP3    H260428   4.644   4.921   2.532  1.8169  0.2906  3.1465
13005TIP3   OH260429   2.778   1.134  16.569 -0.1960 -0.1418 -0.1243
13005TIP3    H160430   2.844   1.097  16.628 -0.5945  2.2249  1.9722
13005TIP3    H260431   2.829   1.186  16.506  0.1004 -1.1588 -0.7624
13006TIP3   OH260432   0.209   1.340   0.027 -0.3759 -0.0237  0.3306
13006TIP3    H160433   0.228   1.265   0.084  0.2383 -0.8962 -0.9671
13006TIP3    H260434   0.155   1.398   0.081 -1.0471 -1.4906  1.3048
13007TIP3   OH260435   4.826   1.130   6.206 -0.3267  0.2832 -0.3984
13007TIP3    H160436   4.873   1.111   6.288 -2.3175 -0.6325  0.6006
13007TIP3    H260437   4.810   1.225   6.211 -2.0418 -0.0262  1.2594
13008TIP3   OH260438   3.051   5.329   4.599  0.0337 -0.3470  0.3796
13008TIP3    H160439   3.106   5.379   4.539 -0.6013  1.6515  1.3728
13008TIP3    H260440   3.108   5.313   4.675  0.5676 -2.1473 -0.3258
13009TIP3   OH260441   1.763   1.722   3.260 -0.0971 -0.2990 -0.4327
13009TIP3    H160442   1.794   1.662   3.193  0.7698  0.8311 -1.0859
13009TIP3    H260443   1.838   1.735   3.318  0.6594  2.1762 -1.8220
13010TIP3   OH260444   2.814   4.037   4.017 -0.3207  0.6331  0.5322
13010TIP3    H160445   2.774   3.960   3.977 -0.1961  0.7133  0.2550
13010TIP3    H260446   2.742   4.079   4.065 -0.1714 -0.2263  1.5642
13011TIP3   OH260447   0.892   0.815  12.881 -0.2567  0.4238 -0.3584
13011TIP3    H160448   0.981   0.823  12.916 -0.9133  1.5365  1.1414
13011TIP3    H260449   0.895   0.737  12.825  1.3296 -0.3169  0.7016
13012TIP3   OH260450   3.110   6.766  10.586  0.2808 -0.0228 -0.3456
13012TIP3    H160451   3.123   6.810  10.502  0.2800 -1.9050 -1.3777
13012TIP3    H260452   3.165   6.687  10.581  1.8028  0.7533  2.2057
13013TIP3   OH260453   2.615   0.101  13.043 -0.4771 -0.1928  0.4402
13013TIP3    H160454   2.547   0.124  13.106 -0.6959  1.4208 -0.3360
13013TIP3    H260455   2.617   0.174  12.981  1.4407 -0.5515  0.0014
13014TIP3   OH260456   5.770   3.509   3.672  0.4091 -0.0632  0.3051
13014TIP3    H160457   5.815   3.424   3.680 -1.4610 -1.1432 -0.0344
13014TIP3    H260458   5.773   3.528   3.578  0.8083  0.2615  0.3788
13015TIP3   OH260459   0.769   4.712  15.562 -0.0583 -0.2153  0.2643
13015TIP3    H160460   0.678   4.722  15.591  0.1803  0.9691  0.6729
13015TIP3    H260461   0.820   4.707  15.643  0.2576 -0.7211  0.0383
13016TIP3   OH260462   6.191   1.551   1.688 -0.2734 -0.1169  0.0371
13016TIP3    H160463   6.163   1.572   1.599  0.2487 -1.0119 -0.3561
13016TIP3    H260464   6.285   1.571   1.688 -0.2569 -0.1942  0.3584
13017TIP3   OH260465   3.315   5.798   1.882 -0.2846  0.0547  0.0311
13017TIP3    H160466   3.306   5.761   1.970  0.4317 -2.2888 -0.7819
13017TIP3    H260467   3.401   5.767   1.852 -1.6013 -1.5824 -2.4534
13018TIP3   OH260468   1.982   6.466  13.583  0.2504  0.5248 -0.0897
13018TIP3    H160469   1.949   6.550  13.613  0.1453  0.7214 -0.7477
13018TIP3    H260470   1.907   6.424  13.541  0.1955 -0.0656  0.5722
13019TIP3   OH260471   1.051   1.254  13.106  0.0556  0.4388 -0.3770
13019TIP3    H160472   0.970   1.208  13.084  1.3048 -1.8402 -0.5820
13019TIP3    H260473   1.027   1.314  13.176 -2.1183  1.0451 -1.5758
13020TIP3   OH260474   5.677   2.739   2.492 -0.1246 -0.1663 -0.4980
13020TIP3    H160475   5.641   2.828   2.499  1.4248  0.5206 -0.6848
13020TIP3    H260476   5.742   2.746   2.421  1.3795 -0.9546  0.7413
13021TIP3   OH260477   5.960   4.100   3.189  0.3866 -0.0882  0.1563
13021TIP3    H160478   6.011   4.114   3.269 -0.9117 -1.0287  1.1960
13021TIP3    H260479   5.925   4.187   3.167  0.7856  0.1871  0.5880
13022TIP3   OH260480   0.793   0.590  12.045  0.1116  0.5623 -0.0547
13022TIP3    H160481   0.848   0.603  12.122 -1.0034  0.5133  0.7561
13022TIP3    H260482   0.710   0.631  12.067 -2.0419 -3.7272  0.8504
13023TIP3   OH260483   0.193   5.480   2.175  0.3287  0.1674 -0.5236
13023TIP3    H160484   0.222   5.389   2.181 -2.5124 -0.7343  1.2945
13023TIP3    H260485   0.239   5.525   2.246  0.7188 -0.1398 -0.5767
13024TIP3   OH260486   5.079   3.877   1.164  0.2394  0.5050  0.3230
13024TIP3    H160487   5.032   3.959   1.183  1.7434  1.3441  0.5866
13024TIP3    H260488   5.102   3.842   1.251  0.1721  0.1435  0.1963
13025TIP3   OH260489   2.381   3.501  13.058 -0.1031 -0.1394 -0.4502
13025TIP3    H160490   2.336   3.421  13.082  2.1954 -1.7018 -0.9823
13025TIP3    H260491   2.318   3.571  13.074 -2.3945 -2.0931 -0.5245
13026TIP3   OH260492   4.610   1.436  11.387 -0.0690  0.5309  0.2409
13026TIP3    H160493   4.677   1.504  11.397 -0.3483  0.8618 -0.1327
13026TIP3    H260494   4.660   1.356  11.376  0.2695  0.7775 -0.0520
13027TIP3   OH260495   5.653   1.239  16.624 -0.1082  0.1772 -0.5096
13027TIP3    H160496   5.631   1.260  16.715  0.0544  0.7639 -0.5995
13027TIP3    H260497   5.735   1.286  16.607 -0.5762  0.7727 -1.2130
13028TIP3   OH260498   2.510   3.462  11.504 -0.0028  0.2331  0.8734
13028TIP3    H160499   2.471   3.539  11.461  2.0757  0.1954 -1.2927
13028TIP3    H260500   2.440   3.398  11.507 -1.0371  1.2856  0.1609
13029TIP3   OH260501   6.334   5.887  15.447 -0.0867  0.1816  0.4159
13029TIP3    H160502   6.313   5.801  15.482  0.0918  0.2826  0.7847
13029TIP3    H260503   6.254   5.916  15.403 -0.5286  0.3049  1.2685
13030TIP3   OH260504   4.879   0.311   0.422  0.0934  0.7107  0.1896
13030TIP3    H160505   4.862   0.319   0.515 -0.5745  2.9386 -0.0736
13030TIP3    H260506   4.937   0.235   0.415  0.9701  1.0884  2.5012
13031TIP3   OH260507   4.636   3.070   0.598  0.3201 -0.0625 -0.5018
13031TIP3    H160508   4.562   3.011   0.579 -0.6665  1.5728 -2.0224
13031TIP3    H260509   4.696   3.016   0.649 -1.1469 -1.9749 -0.6544
13032TIP3   OH260510   6.334   0.444  12.897 -0.5377  0.1567 -0.3282
13032TIP3    H160511   6.265   0.466  12.960 -1.1116  1.6248 -1.4245
13032TIP3    H260512   6.315   0.498  12.821  0.4611 -1.1733 -1.5766
13033TIP3   OH260513   4.014   2.353  11.992 -0.7798  0.3477  0.6442
13033TIP3    H160514   4.064   2.374  11.914  0.6462  0.4359  1.5454
13033TIP3    H260515   3.942   2.297  11.961  1.2992 -1.9153 -0.3782
13034TIP3   OH260516   1.209   3.558  14.056 -0.1885  0.0577 -0.9508
13034TIP3    H160517   1.237   3.471  14.029  0.6491 -0.4141  1.1907
13034TIP3    H260518   1.127   3.543  14.104  0.4283  0.2711  0.2310
13035TIP3   OH260519   0.256   2.819  14.941 -0.3115  0.0416  0.7750
13035TIP3    H160520   0.182   2.767  14.973  0.3999 -0.4435  1.6828
13035TIP3    H260521   0.231   2.909  14.960 -1.3458  0.0222 -0.3647
13036TIP3   OH260522   3.357   0.092   0.299 -0.1736 -0.3716  0.1895
13036TIP3    H160523   3.345   0.102   0.205  2.7197  2.3965 -0.0453
13036TIP3    H260524   3.314   0.168   0.337 -0.2314 -0.7950  0.9899
13037TIP3   OH260525   4.596   3.385  12.578 -0.1187 -0.2157  0.1469
13037TIP3    H160526   4.517   3.331  12.583 -0.1096 -0.4638 -1.5521
13037TIP3    H260527   4.587   3.434  12.496  0.9943  0.5625  0.4589
13038TIP3   OH260528   4.478   6.443  13.767  0.2174  0.0171 -0.0391
13038TIP3    H160529   4.517   6.365  13.807  2.6012  1.3175  0.3798
13038TIP3    H260530   4.384   6.435  13.785  0.4098 -2.5801  0.2173
13039TIP3   OH260531   3.926   0.245  15.134  0.2616  0.0611 -0.2054
13039TIP3    H160532   3.873   0.174  15.173  0.6273 -0.7656 -1.1595
13039TIP3    H260533   3.979   0.201  15.068  0.4881  1.2481 -0.8326
13040TIP3   OH260534   2.888   2.674  15.704 -0.3389  0.3268  0.1415
13040TIP3    H160535   2.925   2.751  15.749  0.0335  0.4862 -0.4269
13040TIP3    H260536   2.868   2.613  15.775  1.8366 -0.1319  0.4472
13041TIP3   OH260537   5.534   2.783  11.515 -0.5589  0.1235 -0.1135
13041TIP3    H160538   5.616   2.738  11.497 -1.6212 -1.8401 -0.3811
13041TIP3    H260539   5.499   2.805  11.428 -1.2836 -0.9710 -0.1235
13042TIP3   OH260540   0.894   6.536   4.568 -0.5798  0.4593 -0.1451
13042TIP3    H160541   0.850   6.617   4.543  2.0075  1.5070 -1.7625
13042TIP3    H260542   0.985   6.562   4.584  0.2253 -2.0395 -0.1472
13043TIP3   OH260543   1.163   2.206   2.358  0.3833 -0.1420 -0.9920
13043TIP3    H160544   1.201   2.125   2.393 -0.1218  0.2223  0.4334
13043TIP3    H260545   1.094   2.175   2.298 -1.3506 -0.8375  1.2204
13044TIP3   OH260546   4.316   0.463  11.551  0.3276  0.3736  0.0764
13044TIP3    H160547   4.245   0.491  11.610 -0.2150 -1.1864  0.2119
13044TIP3    H260548   4.308   0.368  11.548  0.9122  0.3435 -1.8275
13045TIP3   OH260549   5.537   5.626  15.088  0.8764  0.6319 -0.0836
13045TIP3    H160550   5.448   5.603  15.063  0.7472  0.4657  0.5313
13045TIP3    H260551   5.548   5.591  15.176  2.1590 -0.9653 -0.8292
13046TIP3   OH260552   6.269   5.886  14.844  0.0856 -0.1842 -0.0364
13046TIP3    H160553   6.217   5.880  14.763 -0.5844 -1.5007  0.4598
13046TIP3    H260554   6.227   5.824  14.904  0.3510  1.0285  1.4622
13047TIP3   OH260555   1.701   4.069   4.544 -0.1338  0.7164 -0.4857
13047TIP3    H160556   1.680   3.979   4.519 -1.7180  0.9755 -0.2197
13047TIP3    H260557   1.695   4.070   4.639 -0.6216  1.2060 -0.5162
13048TIP3   OH260558   4.473   5.429   1.029  0.5313  0.2629 -0.4720
13048TIP3    H160559   4.410   5.357   1.032 -2.1958  2.5312  0.9720
13048TIP3    H260560   4.465   5.463   0.940 -0.5171  0.7096 -0.2144
13049TIP3   OH260561   0.771   2.991  15.353  0.0910  0.5754 -0.7666
13049TIP3    H160562   0.794   2.941  15.432 -1.4203  0.9377 -0.0542
13049TIP3    H260563   0.838   2.967  15.289  2.2131  1.3267  1.0290
13050TIP3   OH260564   6.475   6.377  12.085  0.4945 -0.3470 -0.3233
13050TIP3    H160565   6.412   6.370  12.014 -0.0595  2.4929 -0.2512
13050TIP3    H260566   6.432   6.335  12.159  0.3080 -1.7305 -1.1816
13051TIP3   OH260567   2.351   4.322   1.399 -0.5480 -0.0850  0.5307
13051TIP3    H160568   2.305   4.240   1.380 -0.8260  0.2699 -0.3679
13051TIP3    H260569   2.325   4.344   1.488 -1.7466 -0.1395  0.2046
13052TIP3   OH260570   5.359   2.178   1.115 -0.2370  0.2136 -0.4076
13052TIP3    H160571   5.352   2.123   1.037  0.1937 -0.7940  0.2466
13052TIP3    H260572   5.452   2.201   1.119 -0.4204  1.0592 -0.7058
13053TIP3   OH260573   4.290   1.177  14.448  0.0377 -0.5917  0.2532
13053TIP3    H160574   4.254   1.089  14.446  2.5606 -1.7101 -2.3025
13053TIP3    H260575   4.215   1.233  14.469 -1.9699 -3.1788  0.4456
13054TIP3   OH260576   4.465   4.238  14.730 -0.4604 -0.1091  0.2453
13054TIP3    H160577   4.532   4.283  14.679 -0.8061  0.0987 -0.0232
13054TIP3    H260578   4.455   4.293  14.808  0.8275 -0.9789  1.0638
13055TIP3   OH260579   2.940   1.529  14.662 -0.0919 -1.1263 -0.1049
13055TIP3    H160580   2.890   1.607  14.639 -0.4453 -0.6888  1.9597
13055TIP3    H260581   2.879   1.457  14.651 -0.2813 -0.9191 -0.4055
13056TIP3   OH260582   1.081   2.445   2.147 -0.1811 -0.4521  0.3433
13056TIP3    H160583   1.148   2.513   2.145  1.4418 -1.9922 -0.2267
13056TIP3    H260584   1.130   2.364   2.160 -1.9543 -1.6374 -0.0485
13057TIP3   OH260585   4.415   1.818   3.324 -0.0225  0.0333  0.1664
13057TIP3    H160586   4.344   1.847   3.267 -0.7696  1.1801  1.6078
13057TIP3    H260587   4.381   1.739   3.366 -0.2667  0.2861  0.4583
13058TIP3   OH260588   5.273   6.449  16.031  0.7506 -0.3568 -0.2249
13058TIP3    H160589   5.237   6.438  16.120  0.5518  1.1242 -0.0874
13058TIP3    H260590   5.348   6.508  16.043 -0.2181  1.1635 -1.1898
13059TIP3   OH260591   4.391   1.291   5.093 -0.3276 -0.1692 -0.8417
13059TIP3    H160592   4.450   1.295   5.168  1.1428  1.9363 -2.0155
13059TIP3    H260593   4.448   1.284   5.017 -1.6150  0.7976 -1.9465
13060TIP3   OH260594   5.809   4.828  12.580  0.2478  0.5296  0.6580
13060TIP3    H160595   5.874   4.825  12.510  0.0008  0.9147  0.4048
13060TIP3    H260596   5.798   4.921  12.599 -0.5534  0.5042  0.3828
13061TIP3   OH260597   6.289   3.519   2.986 -0.1969 -0.1473 -0.3951
13061TIP3    H160598   6.270   3.428   3.011 -0.1202 -0.5588 -1.7594
13061TIP3    H260599   6.372   3.513   2.938 -1.7617  0.1184 -3.3314
13062TIP3   OH260600   2.295   1.731  14.008  0.3432 -0.0623 -0.4535
13062TIP3    H160601   2.301   1.804  14.069  0.3673  1.6432 -2.3986
13062TIP3    H260602   2.206   1.737  13.971  0.8288 -0.0922 -1.6858
13063TIP3   OH260603   2.479   2.006  15.144  0.0934  0.0266 -0.6682
13063TIP3    H160604   2.389   2.005  15.112 -0.5006  0.8779  0.8664
13063TIP3    H260605   2.515   1.921  15.119 -1.5769 -0.8915 -0.1046
13064TIP3   OH260606   4.451   5.608  13.810 -0.5436  0.0661  0.6966
13064TIP3    H160607   4.432   5.518  13.838 -0.3448 -0.2441 -0.1542
13064TIP3    H260608   4.406   5.662  13.874  2.2594 -0.5447  3.4611
13065TIP3   OH260609   6.310   5.128   1.407 -0.5070 -0.0535 -0.7873
13065TIP3    H160610   6.405   5.129   1.399 -0.4155 -2.2153 -0.3627
13065TIP3    H260611   6.289   5.212   1.449  1.3697 -0.2661  0.6977
13066TIP3   OH260612   3.696   2.864  16.529 -0.7992 -0.1208 -0.4446
13066TIP3    H160613   3.788   2.878  16.505 -0.4270 -0.8179  0.5047
13066TIP3    H260614   3.680   2.925  16.601 -1.3147  0.5125 -1.0698
13067TIP3   OH260615   6.270   4.269   1.292  0.4684  0.3409 -0.2294
13067TIP3    H160616   6.293   4.225   1.374  1.5749  0.1440 -0.6268
13067TIP3    H260617   6.300   4.209   1.223  1.4249  1.3939 -0.7747
13068TIP3   OH260618   1.598   2.536  16.914  0.1207  0.1685  0.4380
13068TIP3    H160619   1.651   2.613  16.896 -1.1020  1.1908  1.0621
13068TIP3    H260620   1.560   2.553  17.000 -0.1856 -1.1266  0.5766
13069TIP3   OH260621   4.360   5.236  12.473 -0.4064 -0.0216 -0.5395
13069TIP3    H160622   4.291   5.283  12.427 -0.3796  0.2438 -0.3093
13069TIP3    H260623   4.433   5.234  12.411 -0.2738  0.5770 -0.4143
13070TIP3   OH260624   3.656   5.145  13.495  0.3893 -0.4237 -0.0436
13070TIP3    H160625   3.735   5.190  13.466  0.5128 -0.8907 -0.4558
13070TIP3    H260626   3.629   5.191  13.575  1.9041 -1.1759  0.9299
13071TIP3   OH260627   4.565   2.670   5.209  0.3115  0.2785  0.0381
13071TIP3    H160628   4.659   2.652   5.212  0.0790 -0.9431  0.9803
13071TIP3    H260629   4.524   2.584   5.211 -0.8423  0.8199  1.5744
13072TIP3   OH260630   6.368   6.435   2.238 -0.1250  0.4136  0.7211
13072TIP3    H160631   6.444   6.493   2.238  2.1196 -2.2819  2.1611
13072TIP3    H260632   6.321   6.456   2.157  1.9336  2.4624 -0.0364
13073TIP3   OH260633   6.033   5.544  12.581  0.6711  0.2514 -0.0726
13073TIP3    H160634   6.046   5.605  12.508  0.8671  0.4021  0.0873
13073TIP3    H260635   5.980   5.592  12.644 -1.1691 -0.5197 -0.9290
13074TIP3   OH260636   3.394   1.373  12.946 -0.2748  0.0069 -0.2238
13074TIP3    H160637   3.357   1.335  13.026 -0.9540 -1.3695 -1.1428
13074TIP3    H260638   3.408   1.465  12.967  0.4223 -0.5092  1.7583
13075TIP3   OH260639   0.193   5.667  15.767 -0.1530  0.4338 -0.1220
13075TIP3    H160640   0.145   5.601  15.717 -1.4877  1.6409 -0.4998
13075TIP3    H260641   0.126   5.712  15.819  0.7751  1.2158  0.4529
13076TIP3   OH260642   1.967   4.370  11.120  0.2921 -0.6119 -0.1957
13076TIP3    H160643   1.999   4.458  11.104  0.6981 -0.6564  0.3328
13076TIP3    H260644   2.047   4.316  11.125  0.0541 -0.9926 -0.4308
13077TIP3   OH260645   2.540   3.802   2.840  0.0582  0.1614 -0.9709
13077TIP3    H160646   2.525   3.891   2.808  1.5061  0.2360 -1.5194
13077TIP3    H260647   2.506   3.745   2.771 -0.7680  0.2796 -0.6689
13078TIP3   OH260648   2.102   1.750  11.218 -0.0508 -0.7490 -0.7869
13078TIP3    H160649   2.067   1.737  11.130  0.9252  1.4676 -1.5728
13078TIP3    H260650   2.025   1.754  11.274 -0.9254  0.8934 -2.0104
13079TIP3   OH260651   1.457   0.789   2.861 -0.5240 -0.5732 -0.1469
13079TIP3    H160652   1.508   0.814   2.938 -1.6169 -1.3759  0.8801
13079TIP3    H260653   1.522   0.783   2.791  0.3452  1.1665  0.4507
13080TIP3   OH260654   4.879   0.095  12.749 -0.0852  0.3523  0.0671
13080TIP3    H160655   4.809   0.117  12.811  1.5816  2.7752  1.2301
13080TIP3    H260656   4.944   0.048  12.802  0.0858 -0.1040 -0.5377
13081TIP3   OH260657   6.429   0.262  12.637  0.3360 -0.0735 -0.1783
13081TIP3    H160658   6.517   0.225  12.635 -0.0409 -1.0137 -0.4750
13081TIP3    H260659   6.399   0.256  12.546 -0.4722 -0.9067  0.1273
13082TIP3   OH260660   4.381   4.494   3.604 -0.5298 -0.7135 -0.2827
13082TIP3    H160661   4.472   4.503   3.631 -1.1285 -0.9064  2.0618
13082TIP3    H260662   4.381   4.510   3.510  1.4353  2.8040  0.1659
13083TIP3   OH260663   4.750   5.515  13.134 -0.6250  0.4241 -0.1002
13083TIP3    H160664   4.840   5.482  13.139 -0.6799  0.2449 -0.2578
13083TIP3    H260665   4.746   5.584  13.200 -0.2521  0.7238 -0.3817
13084TIP3   OH260666   5.339   2.149   0.449  0.3635  0.2524 -0.9625
13084TIP3    H160667   5.384   2.093   0.386  0.5864  1.0613 -1.5539
13084TIP3    H260668   5.260   2.178   0.403  1.5672  2.5732 -1.7707
13085TIP3   OH260669   4.107   0.329   5.481  0.0791 -0.3849 -0.1987
13085TIP3    H160670   4.067   0.390   5.419 -0.6555 -0.4872  0.1522
13085TIP3    H260671   4.066   0.350   5.565  0.3797 -0.8561  0.0720
13086TIP3   OH260672   4.780   1.496   0.846  0.4870  0.8387  0.0598
13086TIP3    H160673   4.823   1.414   0.820 -0.6724  0.3399 -0.3779
13086TIP3    H260674   4.828   1.564   0.799 -0.2790  0.1390 -1.8608
13087TIP3   OH260675   0.957   6.668  12.781  0.5113  0.1694  0.1454
13087TIP3    H160676   1.008   6.644  12.704  0.3736 -0.1631  0.1569
13087TIP3    H260677   0.975   6.599  12.844 -1.7036 -1.2364 -0.6245
13088TIP3   OH260678   1.948   6.199  14.908  0.1552 -0.5671  0.5729
13088TIP3    H160679   1.951   6.221  15.001  2.1195 -3.3899  1.3029
13088TIP3    H260680   1.883   6.129  14.902  1.1701 -1.5066  0.1375
13089TIP3   OH260681   3.928   1.152  14.945 -0.6158  0.5095 -0.1631
13089TIP3    H160682   3.851   1.145  14.889 -0.7295 -0.1989  0.0716
13089TIP3    H260683   3.999   1.114  14.893 -0.2534  1.8215 -0.6678
13090TIP3   OH260684   0.691   2.517  10.910 -0.5022 -0.1466 -0.3132
13090TIP3    H160685   0.729   2.432  10.889  0.0827  0.2007 -0.6836
13090TIP3    H260686   0.742   2.548  10.985  0.6132  0.7563 -1.4218
13091TIP3   OH260687   5.428   4.227   4.254  0.0527  0.4289  0.1660
13091TIP3    H160688   5.381   4.301   4.215 -1.5796 -0.6734 -0.0577
13091TIP3    H260689   5.383   4.211   4.337  0.3284 -0.3576  0.1730
13092TIP3   OH260690   4.035   1.391   5.697 -0.7710 -0.2409 -0.6271
13092TIP3    H160691   3.985   1.473   5.689 -0.5434 -0.0838 -0.4404
13092TIP3    H260692   4.083   1.400   5.779  1.2616  0.5644 -1.8148
13093TIP3   OH260693   2.807   6.163  17.212  0.3638 -0.3912 -0.0451
13093TIP3    H160694   2.790   6.227  17.143  0.1308 -0.0072  0.3558
13093TIP3    H260695   2.720   6.142  17.246  0.5671  0.6614  1.2154
13094TIP3   OH260696   1.163   5.779  12.344  0.5222  0.0146 -0.0268
13094TIP3    H160697   1.073   5.753  12.327  1.0031 -0.1285 -2.9096
13094TIP3    H260698   1.191   5.723  12.417 -0.8239 -2.1106 -1.0313
13095TIP3   OH260699   3.021   2.110  15.946 -0.2236 -0.3017  0.0134
13095TIP3    H160700   3.027   2.147  16.034 -1.5637  1.3583 -0.5276
13095TIP3    H260701   3.027   2.186  15.888  0.0457 -1.3009 -1.3105
13096TIP3   OH260702   3.374   3.863  16.561  0.4616 -0.3638 -0.3147
13096TIP3    H160703   3.422   3.907  16.492 -1.0182 -1.3585 -2.0602
13096TIP3    H260704   3.417   3.777  16.569 -0.1003 -0.6977 -0.8444
13097TIP3   OH260705   2.477   3.671  17.117  0.6771  0.0933  0.5681
13097TIP3    H160706   2.471   3.731  17.043  0.6822 -0.5515  0.0310
13097TIP3    H260707   2.401   3.692  17.171  0.4855  0.3541  0.2028
13098TIP3   OH260708   4.446   1.247  12.111  0.0921 -0.0293  0.4682
13098TIP3    H160709   4.365   1.251  12.059 -1.1179 -1.2541  2.1268
13098TIP3    H260710   4.437   1.167  12.163  1.8506  0.4172  1.5470
13099TIP3   OH260711   3.883   3.229   1.541 -0.2866  0.3848 -0.6386
13099TIP3    H160712   3.936   3.309   1.536 -1.1571  0.9822 -0.4981
13099TIP3    H260713   3.947   3.158   1.541  0.5057  1.0821 -0.6894
13100TIP3   OH260714   3.554   3.257   5.587  0.2984 -0.7834 -0.7142
13100TIP3    H160715   3.631   3.214   5.624  1.9008  1.3681 -1.3359
13100TIP3    H260716   3.576   3.350   5.587 -3.2075  0.2112  1.1078
13101TIP3   OH260717   4.488   2.753  12.310 -0.0672  0.2330  0.2516
13101TIP3    H160718   4.583   2.754  12.306 -0.0930  0.2841 -1.2271
13101TIP3    H260719   4.466   2.780  12.399  1.3121 -1.6614  1.2073
13102TIP3   OH260720   2.643   5.891  16.209 -0.2546  0.2748 -0.3698
13102TIP3    H160721   2.602   5.806  16.189  3.6474 -1.7367 -0.7911
13102TIP3    H260722   2.652   5.892  16.304  0.0238  0.0490 -0.3932
13103TIP3   OH260723   0.395   6.080   0.652  0.3616  0.0182  0.4914
13103TIP3    H160724   0.439   5.997   0.665 -0.6015 -0.3421  1.5932
13103TIP3    H260725   0.443   6.122   0.581  0.2066 -1.9415 -0.8494
13104TIP3   OH260726   2.090   6.474   3.833 -0.0533  0.6626 -0.4247
13104TIP3    H160727   2.159   6.473   3.899  0.4178  2.1960 -0.8619
13104TIP3    H260728   2.011   6.449   3.881  0.4567  0.7931  0.5055
13105TIP3   OH260729   5.062   1.678   2.287 -0.2667  0.5919  0.5383
13105TIP3    H160730   5.056   1.673   2.192  1.4565  1.4707  0.3544
13105TIP3    H260731   4.993   1.620   2.318 -0.1738 -0.5443 -1.2504
13106TIP3   OH260732   5.600   6.132  11.379 -0.0326  0.7220 -0.2931
13106TIP3    H160733   5.611   6.090  11.465  3.6229 -0.3468 -1.1465
13106TIP3    H260734   5.527   6.084  11.339 -0.6022  0.0134  1.4820
13107TIP3   OH260735   3.568   0.801   6.005 -0.3800 -0.4000  0.5014
13107TIP3    H160736   3.506   0.870   5.981  0.0439  0.1617  0.9973
13107TIP3    H260737   3.514   0.737   6.052 -0.7302 -0.2838  0.2668
13108TIP3   OH260738   0.120   1.334   1.363 -0.4636  0.6528  0.0844
13108TIP3    H160739   0.185   1.389   1.320 -0.1779  1.9561  2.0271
13108TIP3    H260740   0.135   1.348   1.457 -2.0847 -0.7624  0.6178
13109TIP3   OH260741   3.124   2.250  14.428 -0.2818 -0.3329 -0.2887
13109TIP3    H160742   3.196   2.272  14.368 -0.5050  0.1599 -0.3802
13109TIP3    H260743   3.047   2.291  14.389 -1.2221 -3.1415 -1.7209
13110TIP3   OH260744   6.635   1.981  16.813  0.3583 -0.1501  0.1641
13110TIP3    H160745   6.606   1.891  16.827  1.0992 -0.3365  0.5606
13110TIP3    H260746   6.656   2.013  16.901 -0.4321  0.6045  0.0966
13111TIP3   OH260747   2.774   4.810  11.991  0.7782 -0.4981  0.0340
13111TIP3    H160748   2.720   4.868  11.936  0.7558  1.0182  1.5664
13111TIP3    H260749   2.710   4.755  12.037  0.6939 -0.5736 -0.1726
13112TIP3   OH260750   5.915   5.341  12.873  0.2308 -0.0018  0.3960
13112TIP3    H160751   5.844   5.398  12.901  0.8020  0.1562  1.5498
13112TIP3    H260752   5.982   5.349  12.941  0.8413 -1.0926 -0.0462
13113TIP3   OH260753   1.081   1.646  12.604  0.1175  0.1216  0.5262
13113TIP3    H160754   1.096   1.707  12.531  3.4559 -0.0071  0.9556
13113TIP3    H260755   1.047   1.567  12.563  0.1503  0.6959 -0.6436
13114TIP3   OH260756   0.992   1.581   5.795 -0.7621 -0.5979  0.0452
13114TIP3    H160757   0.915   1.568   5.739 -1.5342 -0.6815  1.0890
13114TIP3    H260758   0.956   1.581   5.884  0.4505 -0.5886  0.5439
13115TIP3   OH260759   5.014   5.123   2.066  0.3669 -0.1158  0.0621
13115TIP3    H160760   5.098   5.103   2.107 -0.5059 -0.5846  1.7124
13115TIP3    H260761   5.000   5.216   2.084  0.5774 -0.0191 -0.2819
13116TIP3   OH260762   4.300   5.530   4.668 -0.7714 -0.6823  0.2797
13116TIP3    H160763   4.321   5.458   4.609  0.1017 -0.0826 -0.1539
13116TIP3    H260764   4.384   5.572   4.686 -1.0095 -0.8661  1.9819
13117TIP3   OH260765   2.669   6.130  12.544 -0.0328  0.3333  1.0000
13117TIP3    H160766   2.659   6.158  12.453 -2.2388 -1.4459  0.6065
13117TIP3    H260767   2.592   6.166  12.589 -0.1003 -0.5935  1.6498
13118TIP3   OH260768   4.451   4.797   4.620 -1.1240  0.5382  0.6628
13118TIP3    H160769   4.480   4.714   4.657 -2.4690  0.5830  1.8968
13118TIP3    H260770   4.407   4.842   4.692  0.1420  2.6362  0.2186
13119TIP3   OH260771   5.409   6.328   4.520  0.2607 -0.3206 -0.4772
13119TIP3    H160772   5.498   6.300   4.498  0.5813  1.1257 -1.1644
13119TIP3    H260773   5.422   6.402   4.580 -0.5232 -0.8946  0.4348
13120TIP3   OH260774   4.109   0.579   1.022  0.0698  0.0802 -0.5948
13120TIP3    H160775   4.041   0.601   0.959 -1.4297  0.0656  0.9611
13120TIP3    H260776   4.157   0.660   1.035 -2.1167  1.1644  1.1748
13121TIP3   OH260777   0.086   2.275  11.746  0.0510 -0.3559  0.2458
13121TIP3    H160778   0.097   2.365  11.713 -0.3917 -0.8309 -1.2978
13121TIP3    H260779   0.045   2.286  11.832  1.7468  0.9727  0.9568
13122TIP3   OH260780   1.601   2.468  13.428  0.2253 -0.3742 -0.3483
13122TIP3    H160781   1.519   2.505  13.461  0.0826 -0.0766 -1.0143
13122TIP3    H260782   1.608   2.382  13.470 -1.5171 -1.3462 -1.8847
13123TIP3   OH260783   1.933   1.854   1.435 -0.2450  0.0349  0.3553
13123TIP3    H160784   1.905   1.779   1.487  1.9463 -0.7498  0.4924
13123TIP3    H260785   1.954   1.817   1.349  0.9653  0.4357  0.4598
13124TIP3   OH260786   5.061   0.682  14.674 -0.1593  0.4806  0.4915
13124TIP3    H160787   5.115   0.722  14.742  2.4419 -0.1206 -1.0922
13124TIP3    H260788   5.055   0.590  14.699  1.7287  0.0256 -0.5670
13125TIP3   OH260789   1.123   1.261   0.955  0.3269 -0.4104 -0.3474
13125TIP3    H160790   1.138   1.309   0.874  1.6947 -0.5190 -0.1761
13125TIP3    H260791   1.065   1.317   1.006 -0.0350 -0.0542 -1.1387
13126TIP3   OH260792   0.352   1.644   1.356 -0.6020  0.5370  0.4183
13126TIP3    H160793   0.332   1.597   1.436  1.5733 -0.2398  0.5771
13126TIP3    H260794   0.352   1.576   1.288  1.2254  0.4909  0.4225
13127TIP3   OH260795   2.731   4.865   2.661  0.3293 -0.6427  0.1381
13127TIP3    H160796   2.703   4.946   2.705  1.8217 -0.0039 -0.0368
13127TIP3    H260797   2.768   4.812   2.731 -0.9150 -1.3369  0.3051
13128TIP3   OH260798   4.285   6.663   0.086 -0.1086 -0.7445 -0.8709
13128TIP3    H160799   4.212   6.642   0.144  0.2161 -0.0231 -0.1815
13128TIP3    H260800   4.254   6.739   0.036  0.5333  0.2070  0.1488
13129TIP3   OH260801   1.361   0.654   5.272  0.0884  0.7091 -0.4544
13129TIP3    H160802   1.405   0.736   5.248 -0.4716  1.8055  1.9827
13129TIP3    H260803   1.297   0.640   5.202  0.2188  2.3382 -0.9430
13130TIP3   OH260804   2.954   0.077  14.774  0.2151 -0.0076 -0.2644
13130TIP3    H160805   2.940  -0.012  14.743 -0.5063  0.1312 -0.3522
13130TIP3    H260806   3.047   0.080  14.796  0.6362 -0.2884 -1.8393
13131TIP3   OH260807   1.016   3.531   2.849  0.2001  0.3548 -0.4704
13131TIP3    H160808   0.996   3.438   2.849 -0.4615  0.4255 -2.8824
13131TIP3    H260809   1.111   3.535   2.847  0.2635 -0.4186 -2.8115
13132TIP3   OH260810   4.976   0.833   2.611 -0.3171  0.1458 -0.0424
13132TIP3    H160811   4.898   0.856   2.662  0.7353 -0.0830  1.7630
13132TIP3    H260812   5.019   0.917   2.594 -0.4825  0.1930 -0.2244
13133TIP3   OH260813   2.416   1.737  14.719  0.1386  0.1676  0.4493
13133TIP3    H160814   2.489   1.793  14.744  0.2568  0.3120 -0.1952
13133TIP3    H260815   2.442   1.649  14.747 -0.1037  0.4385  1.5742
13134TIP3   OH260816   4.554   5.477   3.941 -0.0433 -0.0735 -0.1020
13134TIP3    H160817   4.599   5.552   3.902 -0.4176 -0.5327 -1.4643
13134TIP3    H260818   4.540   5.502   4.032  0.3688  1.2671 -0.3891
13135TIP3   OH260819   3.248   5.407   1.329  0.0199 -0.0175  0.0196
13135TIP3    H160820   3.249   5.398   1.424 -0.3831  1.3689  0.1842
13135TIP3    H260821   3.164   5.450   1.310  0.4179  0.3846 -0.8864
13136TIP3   OH260822   2.628   6.298  14.444 -0.6070 -0.4696 -0.4499
13136TIP3    H160823   2.719   6.276  14.465 -0.9964 -2.9482 -0.9566
13136TIP3    H260824   2.577   6.226  14.481 -2.4888  1.2848  0.5554
13137TIP3   OH260825   0.009   2.846  15.293 -0.2903  0.3423 -0.3655
13137TIP3    H160826   0.006   2.941  15.301 -0.1409  0.5962 -2.5621
13137TIP3    H260827  -0.031   2.828  15.208 -0.6831 -1.6015  0.1827
13138TIP3   OH260828   6.238   6.587  16.019  0.0314 -0.7442  0.3874
13138TIP3    H160829   6.315   6.626  15.977 -2.0619  1.6916 -1.5614
13138TIP3    H260830   6.206   6.523  15.956 -1.8308  1.2825 -0.8365
13139TIP3   OH260831   2.133   6.543  12.040 -0.4490 -0.0274 -0.0043
13139TIP3    H160832   2.081   6.622  12.022 -0.2185 -0.0115 -0.6200
13139TIP3    H260833   2.214   6.576  12.078 -0.1322  0.0703 -0.7598
13140TIP3   OH260834   5.600   1.093  13.600 -0.3029  0.0935 -0.3681
13140TIP3    H160835   5.689   1.106  13.568  0.0342 -0.1000  0.4427
13140TIP3    H260836   5.587   0.998  13.596 -0.1564  0.0373  0.2851
13141TIP3   OH260837   5.966   4.458  14.973  0.1940  0.1312 -0.0707
13141TIP3    H160838   6.039   4.467  15.034  0.7998 -2.1522 -0.3656
13141TIP3    H260839   5.892   4.430  15.027  0.0874  0.4337 -0.0592
13142TIP3   OH260840   1.255   3.375   4.445  0.3992 -0.0648 -0.6418
13142TIP3    H160841   1.162   3.352   4.440  0.1733  0.8577 -0.8886
13142TIP3    H260842   1.260   3.435   4.519  0.9295 -0.6926 -0.1671
13143TIP3   OH260843   4.746   5.334   6.238 -0.1912  0.3318  0.9809
13143TIP3    H160844   4.700   5.345   6.154  1.5029 -2.2762 -0.4329
13143TIP3    H260845   4.773   5.423   6.262 -0.8221  1.1896 -1.2031
13144TIP3   OH260846   0.754   4.649  16.918 -0.1072  0.0205  0.0398
13144TIP3    H160847   0.781   4.588  16.988 -0.7977 -0.9036 -0.4796
13144TIP3    H260848   0.763   4.735  16.958  0.8325 -0.4082  0.8237
13145TIP3   OH260849   5.257   1.461  16.504 -0.4148  0.0197 -0.2052
13145TIP3    H160850   5.172   1.418  16.493 -1.1983  1.3233  0.5302
13145TIP3    H260851   5.270   1.464  16.599 -0.0829  0.8272 -0.2687
13146TIP3   OH260852   4.292   0.875   3.595 -0.2285 -0.7683  0.2545
13146TIP3    H160853   4.388   0.868   3.599  0.0367  1.0281 -1.4763
13146TIP3    H260854   4.270   0.943   3.659 -0.2535 -0.6462  0.1180
13147TIP3   OH260855   5.527   5.711   0.029  0.1368  0.2843 -0.1112
13147TIP3    H160856   5.450   5.662   0.056  0.6403 -1.5752 -1.8818
13147TIP3    H260857   5.492   5.791  -0.010 -0.9821 -0.8598 -1.5530
13148TIP3   OH260858   6.182   4.239  15.198 -0.4092  0.1444 -0.1827
13148TIP3    H160859   6.198   4.329  15.172  2.5691 -0.7528 -1.9325
13148TIP3    H260860   6.248   4.221  15.266 -1.2858 -0.5930  0.5109
13149TIP3   OH260861   5.690   2.246   3.087 -0.4938 -0.2975  0.9052
13149TIP3    H160862   5.778   2.244   3.124  0.3298 -0.7066 -0.9538
13149TIP3    H260863   5.695   2.311   3.017 -1.7047 -0.2402  0.8514
13150TIP3   OH260864   0.563   2.390   4.881 -0.0825 -0.2228 -0.5311
13150TIP3    H160865   0.507   2.371   4.805  0.1223 -0.1042 -0.7155
13150TIP3    H260866   0.564   2.486   4.886  0.6928 -0.1961 -0.9833
13151TIP3   OH260867   3.233   0.191   0.732 -0.5614 -0.1563 -0.4672
13151TIP3    H160868   3.164   0.215   0.794  0.6310 -1.5041  1.4957
13151TIP3    H260869   3.256   0.102   0.756  2.7348  0.6680 -0.1892
13152TIP3   OH260870   5.138   3.573   0.633  0.0273  0.2616  0.5991
13152TIP3    H160871   5.231   3.566   0.610 -0.2070 -0.1246 -0.3077
13152TIP3    H260872   5.131   3.533   0.720  0.4681 -1.1909  0.0045
13153TIP3   OH260873   6.329   6.546   0.174  0.3561  0.0079  0.1571
13153TIP3    H160874   6.318   6.521   0.266  0.0525  0.9611  0.3932
13153TIP3    H260875   6.247   6.521   0.132 -0.3376  1.4675  0.5999
13154TIP3   OH260876   1.213   5.033  15.388  0.2179  0.0107 -0.5200
13154TIP3    H160877   1.158   5.104  15.422  1.2763  1.0178 -0.8598
13154TIP3    H260878   1.261   5.002  15.464 -1.4390 -1.5031 -0.0259
13155TIP3   OH260879   4.911   4.435   4.364  0.1599  0.4702  0.1653
13155TIP3    H160880   4.924   4.506   4.302 -0.7714  0.3655 -0.1717
13155TIP3    H260881   4.893   4.480   4.447  0.4258  0.6180  0.1443
13156TIP3   OH260882   3.293   2.769   5.480 -0.0507 -0.2874  0.3461
13156TIP3    H160883   3.329   2.760   5.392  0.2063  0.5244  0.3588
13156TIP3    H260884   3.350   2.715   5.535 -0.8952 -1.7183 -0.1462
13157TIP3   OH260885   1.663   2.703  10.920  0.2305 -0.0997 -0.4565
13157TIP3    H160886   1.592   2.746  10.872  0.9310  0.3697 -1.0777
13157TIP3    H260887   1.634   2.612  10.929 -0.1613 -0.0595 -1.2636
13158TIP3   OH260888   0.487   2.906  15.144  0.0296  0.3127  0.0109
13158TIP3    H160889   0.473   2.836  15.208  0.5013  0.2724  0.0750
13158TIP3    H260890   0.422   2.890  15.076  0.4134 -0.4530 -0.1941
13159TIP3   OH260891   5.420   6.755  11.144  0.2178  0.3464 -0.2131
13159TIP3    H160892   5.470   6.674  11.132 -0.2316  0.2323 -1.5105
13159TIP3    H260893   5.364   6.739  11.219  0.0498 -0.5928 -0.5348
13160TIP3   OH260894   3.054   2.867  12.459  0.2615  0.6865  0.1919
13160TIP3    H160895   3.005   2.948  12.451 -0.3645  0.2580 -0.3590
13160TIP3    H260896   3.129   2.890  12.515 -0.4421  1.3874  0.8693
13161TIP3   OH260897   4.406   2.648   5.539 -0.2372  0.3797 -0.2930
13161TIP3    H160898   4.345   2.685   5.475 -2.2107 -0.1605  1.1976
13161TIP3    H260899   4.426   2.561   5.504 -0.8724  0.2927 -0.4564
13162TIP3   OH260900   4.036   0.375  14.698  0.0867 -0.3126  0.4035
13162TIP3    H160901   3.970   0.361  14.766  0.3963  1.8515  1.2139
13162TIP3    H260902   4.088   0.449  14.729  2.0859 -1.0925 -0.8381
13163TIP3   OH260903   0.504   4.378   1.542 -0.4757  0.6952  0.3613
13163TIP3    H160904   0.476   4.339   1.624 -1.4918  1.4367  0.3956
13163TIP3    H260905   0.598   4.391   1.552 -0.5853  0.7693  1.4104
13164TIP3   OH260906   1.022   1.362  15.545 -0.8113  0.4334  0.6565
13164TIP3    H160907   1.112   1.384  15.519 -0.4510  1.0422  2.3106
13164TIP3    H260908   0.970   1.379  15.466  0.5399 -0.1962 -0.4229
13165TIP3   OH260909   1.775   1.921   0.192  0.3032  0.0743 -0.0381
13165TIP3    H160910   1.827   1.988   0.236  0.7195 -0.4178  0.2421
13165TIP3    H260911   1.773   1.948   0.101  0.8831  0.2119 -0.0171
13166TIP3   OH260912   1.350   4.785  12.139 -0.1316  0.0892 -0.1090
13166TIP3    H160913   1.401   4.844  12.084 -2.3319 -0.0859 -2.5438
13166TIP3    H260914   1.292   4.843  12.189 -0.9602  0.1092 -1.0689
13167TIP3   OH260915   4.031   3.201  13.836  0.0033  0.0436  0.4911
13167TIP3    H160916   4.120   3.196  13.871 -0.3741 -1.5597  1.3324
13167TIP3    H260917   3.975   3.202  13.913 -0.7463 -0.2461 -0.0376
13168TIP3   OH260918   5.355   3.300   1.678  0.1541  0.2900 -0.0860
13168TIP3    H160919   5.310   3.343   1.605 -1.0896 -0.0747  0.4361
13168TIP3    H260920   5.319   3.212   1.680 -0.4327  0.5288  1.4470
13169TIP3   OH260921   3.878   5.000  15.651  0.1909 -0.3001  0.1070
13169TIP3    H160922   3.877   4.983  15.557  0.0050  0.0371  0.0457
13169TIP3    H260923   3.903   5.092  15.658  1.9886 -0.7704  0.4622
13170TIP3   OH260924   3.509   6.419  15.015 -0.2235  0.1221  0.3783
13170TIP3    H160925   3.544   6.489  14.961 -1.9080  0.8292  0.1410
13170TIP3    H260926   3.428   6.393  14.972 -0.2389 -1.1469  1.1185
13171TIP3   OH260927   4.154   3.429  16.893  0.4326  0.8004 -0.7238
13171TIP3    H160928   4.139   3.522  16.878  1.4525  0.8260 -1.7263
13171TIP3    H260929   4.133   3.415  16.985 -2.3392  1.4713 -1.1704
13172TIP3   OH260930   1.188   2.949  11.722  0.1239  0.1186  0.7756
13172TIP3    H160931   1.231   2.916  11.801  0.5387 -1.7227 -0.1765
13172TIP3    H260932   1.204   3.043  11.724  3.1477 -0.2886  1.1375
13173TIP3   OH260933   0.041   5.148  11.711 -0.5322  0.8210  0.0560
13173TIP3    H160934   0.091   5.213  11.662 -0.0953  0.2993 -0.1965
13173TIP3    H260935   0.034   5.073  11.652  1.3629 -0.4418  1.3223
13174TIP3   OH260936   0.032   5.871  13.812  0.0320 -0.4813  0.3156
13174TIP3    H160937  -0.057   5.859  13.844  0.0072 -1.7488 -0.1825
13174TIP3    H260938   0.086   5.817  13.870  0.4300 -0.0540  0.3523
13175TIP3   OH260939   5.187   2.624   6.593 -0.5680  0.2251 -0.1666
13175TIP3    H160940   5.141   2.660   6.517 -1.1387 -0.8059 -0.3308
13175TIP3    H260941   5.127   2.559   6.629  0.3706 -0.4630  0.1963
13176TIP3   OH260942   4.021   2.100  17.332 -0.2011  0.1049  0.2054
13176TIP3    H160943   3.991   2.038  17.399 -0.1336 -0.7208 -0.5119
13176TIP3    H260944   3.985   2.184  17.360 -0.1557 -0.2176  1.2890
13177TIP3   OH260945   5.458   3.016   4.372 -0.2367 -0.4031 -0.5912
13177TIP3    H160946   5.402   2.942   4.396  1.0406 -0.8912  1.1528
13177TIP3    H260947   5.505   3.037   4.453  1.9197  0.1301 -1.8985
13178TIP3   OH260948   2.517   6.331   3.841 -0.0564 -0.3332  0.3763
13178TIP3    H160949   2.508   6.270   3.767 -4.0642  1.0282 -0.4702
13178TIP3    H260950   2.526   6.417   3.800 -0.9322  0.3085  1.4914
13179TIP3   OH260951   2.205   4.915   0.799  0.6184  0.0314  0.3580
13179TIP3    H160952   2.141   4.982   0.823  1.1827  0.4736  0.6633
13179TIP3    H260953   2.153   4.840   0.770 -0.0196  0.8528 -0.7002
13180TIP3   OH260954   3.710   3.755   4.468  0.5140 -0.2689  0.1875
13180TIP3    H160955   3.714   3.659   4.466 -0.2147 -0.3054  0.0098
13180TIP3    H260956   3.784   3.783   4.415 -0.5923 -0.7843 -1.7283
13181TIP3   OH260957   6.237   5.565   2.660  0.6038  0.0323  0.3660
13181TIP3    H160958   6.308   5.507   2.686  0.9966  1.1846  2.0171
13181TIP3    H260959   6.190   5.584   2.741 -1.5798 -0.6194 -0.6571
13182TIP3   OH260960   0.447   4.284  15.870  0.6043  0.1734 -0.0015
13182TIP3    H160961   0.504   4.207  15.871  0.9498  0.4277  0.5632
13182TIP3    H260962   0.375   4.261  15.928  1.3527  0.7322  1.2023
13183TIP3   OH260963   5.720   6.448   2.269  0.4792  0.2038 -0.1272
13183TIP3    H160964   5.770   6.460   2.350 -0.0191  0.5831  0.1304
13183TIP3    H260965   5.672   6.530   2.258  0.1481 -0.0427 -0.5351
13184TIP3   OH260966   3.059   3.466  12.705  0.0764 -0.7153  0.0810
13184TIP3    H160967   3.101   3.396  12.655 -1.0615 -0.6514 -0.9996
13184TIP3    H260968   3.131   3.525  12.727  0.6181 -0.7410 -1.5051
13185TIP3   OH260969   1.163   1.792  14.651  0.0010  0.3404 -0.5495
13185TIP3    H160970   1.099   1.721  14.651 -0.1968  0.4968 -1.5308
13185TIP3    H260971   1.246   1.750  14.629  0.3685  0.0483  1.2852
13186TIP3   OH260972   1.081   0.964   1.729 -0.0385  0.3913 -0.1393
13186TIP3    H160973   1.105   1.056   1.739 -0.8467  0.5958 -0.0074
13186TIP3    H260974   1.049   0.938   1.816 -0.6822  0.2489 -0.4181
13187TIP3   OH260975   4.159   3.646  12.884 -0.1261 -0.1432  0.1919
13187TIP3    H160976   4.236   3.702  12.890  0.3894 -0.4239 -2.5342
13187TIP3    H260977   4.166   3.605  12.798 -4.5470  1.6973 -1.3440
13188TIP3   OH260978   5.518   2.282  11.794  0.6506  0.6372  0.4386
13188TIP3    H160979   5.461   2.339  11.846 -0.6558  0.1539 -0.4137
13188TIP3    H260980   5.534   2.331  11.713  0.9736  0.5277  0.4335
13189TIP3   OH260981   6.500   3.529   4.767  0.4819 -0.0594  0.6764
13189TIP3    H160982   6.469   3.594   4.704  1.5757  0.2653  0.4468
13189TIP3    H260983   6.595   3.526   4.753  0.7059 -0.2168  2.1025
13190TIP3   OH260984   0.908   2.449  16.758 -0.1827 -0.3436  0.9180
13190TIP3    H160985   0.975   2.444  16.827 -0.4059 -2.0973  1.0504
13190TIP3    H260986   0.900   2.359  16.726  0.1236  0.4499 -1.6433
13191TIP3   OH260987   2.595   1.243  12.787  0.0945  0.4537  0.8683
13191TIP3    H160988   2.681   1.278  12.765  0.0720  0.1996  0.3484
13191TIP3    H260989   2.588   1.252  12.882  1.0628 -0.3279  1.0352
13192TIP3   OH260990   1.235   5.960  12.566  0.1991  0.2206  0.8759
13192TIP3    H160991   1.323   5.977  12.531 -0.2343  0.5067 -0.1041
13192TIP3    H260992   1.238   5.868  12.593  0.0242 -0.5890 -1.6300
13193TIP3   OH260993   0.893   4.850   4.971  0.1255 -0.0414 -0.1516
13193TIP3    H160994   0.858   4.796   5.042  0.5787  1.1492  1.0218
13193TIP3    H260995   0.818   4.866   4.914 -0.2676 -0.9803  0.0828
13194TIP3   OH260996   5.542   1.581   3.858 -0.0382  0.5362  0.2307
13194TIP3    H160997   5.539   1.509   3.795  2.1275  0.8689 -0.3171
13194TIP3    H260998   5.462   1.571   3.909 -1.3282 -0.4110 -1.8348
13195TIP3   OH260999   0.254   3.972   0.789  0.1028  0.2287  0.0250
13195TIP3    H161000   0.193   3.899   0.799  0.4873 -0.1528 -0.3954
13195TIP3    H261001   0.314   3.964   0.862 -1.2265  1.4883  1.3355
13196TIP3   OH261002   2.057   3.088  16.899  0.2045 -0.0113 -0.6429
13196TIP3    H161003   2.104   3.162  16.861  0.6496 -0.4093 -0.8802
13196TIP3    H261004   2.110   3.063  16.975  0.7544 -0.8939 -1.3070
13197TIP3   OH261005   2.807   2.442  11.855 -0.7886 -0.3257  0.2741
13197TIP3    H161006   2.797   2.431  11.950  0.3739  0.7174  0.5523
13197TIP3    H261007   2.832   2.534  11.844  3.5729 -1.3620 -0.5741
13198TIP3   OH261008   0.012   3.708  12.425 -0.4971  0.9308  0.3439
13198TIP3    H161009  -0.025   3.790  12.458 -1.1548  0.6942  0.2235
13198TIP3    H261010   0.038   3.728  12.335  1.1381  1.5277  0.9293
13199TIP3   OH261011   4.443   4.390   0.831  0.1726  0.1580  0.4644
13199TIP3    H161012   4.426   4.296   0.823  0.3313  0.2155 -0.6552
13199TIP3    H261013   4.393   4.417   0.908  1.2745 -1.1137  1.6995
13200TIP3   OH261014   0.968   4.526  16.495  0.0969  0.5410 -0.0403
13200TIP3    H161015   0.951   4.557  16.406 -2.9393 -1.4546 -0.2919
13200TIP3    H261016   0.983   4.432  16.486 -1.1926  0.1190  1.6019
13201TIP3   OH261017   3.390   0.669   2.521 -0.5486 -0.2347  0.6315
13201TIP3    H161018   3.412   0.600   2.458 -1.9053  0.6310 -0.8669
13201TIP3    H261019   3.368   0.622   2.602 -1.2840 -1.5764 -0.3056
13202TIP3   OH261020   1.081   3.156   5.850 -0.5142 -0.3624 -0.1322
13202TIP3    H161021   1.079   3.130   5.942  0.7979 -0.4630 -0.1140
13202TIP3    H261022   1.173   3.151   5.826 -0.5178  1.8454 -0.8196
13203TIP3   OH261023   2.421   3.114   0.115  0.0363  0.1397 -0.0588
13203TIP3    H161024   2.503   3.066   0.128 -0.1166 -0.5579 -1.4283
13203TIP3    H261025   2.437   3.200   0.154  2.1400  0.6976 -1.9202
13204TIP3   OH261026   3.047   0.113  12.682  0.5001 -0.1156 -0.6946
13204TIP3    H161027   2.958   0.079  12.697  1.0070 -1.2354 -0.0230
13204TIP3    H261028   3.072   0.077  12.597  1.4523 -2.5368  0.4896
13205TIP3   OH261029   4.186   1.006   3.357  0.5075  0.2883 -0.2323
13205TIP3    H161030   4.249   0.993   3.428  0.4684 -1.0532 -0.4230
13205TIP3    H261031   4.204   0.935   3.295 -1.7490 -0.6742  0.1362
13206TIP3   OH261032   5.619   2.865   4.195 -0.2030  0.2989  0.0830
13206TIP3    H161033   5.540   2.847   4.144  1.1949  0.0517 -2.1221
13206TIP3    H261034   5.587   2.886   4.283 -2.5751 -2.0091 -0.1307
13207TIP3   OH261035   3.859   2.559  16.947  0.2739 -0.3673  0.5120
13207TIP3    H161036   3.779   2.584  16.901  2.2804  1.1536 -2.4718
13207TIP3    H261037   3.841   2.471  16.980 -2.1220 -0.6885 -1.3426
13208TIP3   OH261038   1.429   1.148  17.249  0.3633  0.4169 -0.2197
13208TIP3    H161039   1.375   1.226  17.239 -1.1224 -0.6571 -1.0779
13208TIP3    H261040   1.374   1.087  17.299 -0.1749 -1.4448 -2.8208
13209TIP3   OH261041   6.112   6.035   2.542 -0.1619 -0.5623 -0.5828
13209TIP3    H161042   6.138   5.944   2.525 -0.0355 -0.4400 -1.0431
13209TIP3    H261043   6.072   6.064   2.461  1.6513  0.4587 -1.1611
13210TIP3   OH261044   4.802   5.948   3.793  0.2011 -0.3608 -0.5103
13210TIP3    H161045   4.789   5.937   3.888 -1.5897 -0.2393 -0.7003
13210TIP3    H261046   4.862   6.022   3.786 -0.3940  0.2561  0.5321
13211TIP3   OH261047   3.826   4.006   6.257  0.3110 -0.2736  0.4961
13211TIP3    H161048   3.914   4.026   6.289  0.6608 -0.0200 -0.5942
13211TIP3    H261049   3.775   3.990   6.336  1.5117 -1.1921  1.1241
13212TIP3   OH261050   5.698   5.106  11.242 -0.2063 -0.4582  0.0183
13212TIP3    H161051   5.654   5.101  11.157  2.6289 -1.1671 -1.5485
13212TIP3    H261052   5.691   5.018  11.279 -0.6975 -0.3829  0.1029
13213TIP3   OH261053   3.958   2.609   0.236  0.2113 -0.2187  0.2140
13213TIP3    H161054   4.016   2.635   0.308  1.0194 -0.3621 -0.3767
13213TIP3    H261055   3.881   2.666   0.246  1.3072  1.3844 -0.1727
13214TIP3   OH261056   2.680   6.542  15.243 -0.5434 -0.5515 -0.2014
13214TIP3    H161057   2.748   6.603  15.213 -2.1225  2.0843  1.2857
13214TIP3    H261058   2.729   6.469  15.280  1.4506  0.3025 -0.9873
13215TIP3   OH261059   4.788   4.900   1.589  0.4461 -0.2430  0.0162
13215TIP3    H161060   4.847   4.962   1.545  2.0286 -0.3301  1.9113
13215TIP3    H261061   4.700   4.933   1.569  1.0957  0.3434 -2.2240
13216TIP3   OH261062   2.994   0.493  15.266  0.5072  0.2862 -0.0286
13216TIP3    H161063   3.051   0.559  15.227 -1.3719  1.4190 -0.9588
13216TIP3    H261064   2.941   0.460  15.194 -0.5925 -0.1643  0.9385
13217TIP3   OH261065   4.598   2.422  12.295 -0.0667 -0.0811  0.4023
13217TIP3    H161066   4.608   2.479  12.219 -0.9685 -0.1822  0.2033
13217TIP3    H261067   4.640   2.470  12.367 -1.4701  1.2067  0.4179
13218TIP3   OH261068   1.547   4.277   0.071 -0.4352  0.6793 -0.6937
13218TIP3    H161069   1.505   4.222   0.005  0.3148 -1.3307  0.4032
13218TIP3    H261070   1.619   4.319   0.025  1.6319 -2.5762 -0.8006
13219TIP3   OH261071   5.567   4.200  14.430  0.3649  0.6014  0.9850
13219TIP3    H161072   5.587   4.121  14.481 -1.0758  0.2965  1.1116
13219TIP3    H261073   5.484   4.231  14.465 -2.1304 -1.0707 -2.7591
13220TIP3   OH261074   3.506   6.528  12.037  0.2936  0.3387 -0.3517
13220TIP3    H161075   3.449   6.478  11.978 -1.9469  0.2269  1.7749
13220TIP3    H261076   3.590   6.481  12.033 -0.6336 -1.3661 -1.2632
13221TIP3   OH261077   4.952   2.048  12.276  0.0469  0.1677 -0.0344
13221TIP3    H161078   4.890   2.102  12.327 -0.0657  0.1029 -0.1022
13221TIP3    H261079   4.955   1.965  12.323 -0.1385  0.0707 -0.1908
13222TIP3   OH261080   4.930   5.235   1.235  0.0824 -0.6392  0.1397
13222TIP3    H161081   5.024   5.242   1.218  0.0070  1.3495  0.2424
13222TIP3    H261082   4.889   5.288   1.167 -1.1722 -3.1425 -1.1830
13223TIP3   OH261083   3.969   5.168  15.112  0.3673 -0.0244 -0.1314
13223TIP3    H161084   3.933   5.156  15.024  0.3688 -1.2158  0.0111
13223TIP3    H261085   4.010   5.084  15.132 -0.0818  0.0577  1.2151
13224TIP3   OH261086   3.839   2.896  11.932 -0.2848  0.0076 -0.0516
13224TIP3    H161087   3.800   2.983  11.926 -0.4648 -0.0391  0.3538
13224TIP3    H261088   3.795   2.856  12.007  2.6002  1.0207  2.3603
13225TIP3   OH261089   1.323   2.889  15.765  0.1001  0.1311 -0.1451
13225TIP3    H161090   1.409   2.928  15.783  0.4166 -0.7561  0.3014
13225TIP3    H261091   1.287   2.943  15.694  1.2562  0.1672 -0.7272
13226TIP3   OH261092   4.175   1.816   0.569  0.1195 -0.2837  0.0653
13226TIP3    H161093   4.154   1.818   0.476  0.6839  0.3036 -0.0569
13226TIP3    H261094   4.155   1.726   0.596  0.9217 -0.7607 -0.8569
13227TIP3   OH261095   2.241   4.540  13.913  0.1641  0.1526 -0.2061
13227TIP3    H161096   2.173   4.597  13.878  1.3635  1.2333 -0.8393
13227TIP3    H261097   2.283   4.501  13.836  0.6745 -0.0218  0.1531
13228TIP3   OH261098   6.653   2.287  13.514  0.3872  0.2105 -0.3596
13228TIP3    H161099   6.724   2.282  13.450  1.2661 -0.9691  0.6663
13228TIP3    H261100   6.696   2.280  13.599 -1.0021 -1.6026  0.2588
13229TIP3   OH261101   6.316   5.491   3.753  0.2608  0.5759  0.5570
13229TIP3    H161102   6.398   5.536   3.736  0.5183  0.6927  1.9728
13229TIP3    H261103   6.337   5.398   3.743 -0.1047  0.6797 -1.6723
13230TIP3   OH261104   4.732   3.572  12.016 -0.2544 -0.8024 -0.6800
13230TIP3    H161105   4.814   3.599  12.058 -0.3829  0.2454 -1.0779
13230TIP3    H261106   4.757   3.499  11.960  0.6898  0.3090 -1.7822
13231TIP3   OH261107   1.204   0.856  11.455  0.2485  0.3225  0.0235
13231TIP3    H161108   1.142   0.929  11.466 -2.3732 -1.4149 -1.8279
13231TIP3    H261109   1.159   0.781  11.494  1.9626 -0.7186  0.0706
13232TIP3   OH261110   6.181   3.335   0.533  0.1096 -0.5307  0.3457
13232TIP3    H161111   6.241   3.287   0.475  1.0049  1.0536 -0.1002
13232TIP3    H261112   6.121   3.268   0.566  0.5818 -1.7451 -1.1441
13233TIP3   OH261113   4.170   2.234  11.501 -0.7984  0.4661 -0.7035
13233TIP3    H161114   4.155   2.193  11.415 -0.1276 -0.0981 -0.5667
13233TIP3    H261115   4.259   2.270  11.494 -0.1069 -0.9376  0.2447
13234TIP3   OH261116   2.447   2.966  13.108  0.4581  0.2685 -0.1677
13234TIP3    H161117   2.447   2.887  13.054 -1.7379 -0.1014  0.2834
13234TIP3    H261118   2.423   3.037  13.048  1.8674  0.5451 -0.4498
13235TIP3   OH261119   5.052   5.225  12.457 -0.0210 -0.1605 -0.4299
13235TIP3    H161120   5.086   5.258  12.539 -0.6423 -0.2898 -0.1150
13235TIP3    H261121   5.059   5.298  12.396 -0.7925  0.3571  0.0912
13236TIP3   OH261122   5.946   1.126   5.812  0.1096 -0.0352  0.2633
13236TIP3    H161123   5.988   1.207   5.784  0.2050 -0.0896  0.2510
13236TIP3    H261124   5.932   1.138   5.906 -1.5460  0.7594 -0.0366
13237TIP3   OH261125   6.041   2.717   6.503 -0.1170 -0.8118 -0.2795
13237TIP3    H161126   6.051   2.776   6.578  0.4744 -1.5915  0.2755
13237TIP3    H261127   5.964   2.664   6.524  1.5350 -2.8572  1.1169
13238TIP3   OH261128   3.357   6.055  15.623 -0.2166  0.2724  0.3130
13238TIP3    H161129   3.449   6.079  15.632 -0.1255  0.6279 -1.3561
13238TIP3    H261130   3.352   6.007  15.541 -1.4677 -0.0675  0.5646
13239TIP3   OH261131   3.200   5.204  15.370 -0.4018  0.1116 -0.0858
13239TIP3    H161132   3.178   5.296  15.384 -3.1041 -0.7113  1.9063
13239TIP3    H261133   3.142   5.176  15.300 -0.5776 -0.4051  0.2668
13240TIP3   OH261134   0.194   4.207  13.188 -0.2504 -0.6780  0.0258
13240TIP3    H161135   0.118   4.265  13.193  2.6051  3.3752  1.2228
13240TIP3    H261136   0.214   4.186  13.279  0.1878 -1.5989 -0.2702
13241TIP3   OH261137   0.722   3.723  13.818  0.2621 -0.5051 -0.2791
13241TIP3    H161138   0.707   3.814  13.797 -0.1875 -0.0627  1.7189
13241TIP3    H261139   0.668   3.674  13.757  2.1414  0.3920 -2.8541
13242TIP3   OH261140   3.669   1.420   5.959 -0.2666 -0.0120  0.2921
13242TIP3    H161141   3.653   1.338   5.914 -0.7067  0.2656 -0.0624
13242TIP3    H261142   3.701   1.394   6.046 -0.5506 -0.5509  0.2365
13243TIP3   OH261143   0.073   0.292  15.494 -0.3953 -0.3051  0.0199
13243TIP3    H161144   0.001   0.279  15.432 -0.6564 -1.1397  0.4850
13243TIP3    H261145   0.123   0.365  15.457 -0.6101 -0.7005 -1.1186
13244TIP3   OH261146   0.716   6.038  14.010  0.0043 -0.3757 -0.1156
13244TIP3    H161147   0.713   5.942  14.006  0.1242 -0.3516 -1.5125
13244TIP3    H261148   0.770   6.063  13.935  2.3780  0.6945  1.8022
13245TIP3   OH261149   0.048   4.435   0.210 -0.1891  0.6661  0.3406
13245TIP3    H161150   0.121   4.484   0.172  0.0210  0.2406  0.1843
13245TIP3    H261151   0.061   4.442   0.304 -0.1115  0.8411  0.3164
13246TIP3   OH261152   0.273   2.061   6.431 -0.4923 -0.1986 -0.0891
13246TIP3    H161153   0.190   2.049   6.477  0.0390 -2.0735  0.4727
13246TIP3    H261154   0.283   1.983   6.378  0.6614  0.2451 -0.5712
13247TIP3   OH261155   2.238   3.200  13.326 -0.0480 -0.1220 -0.2613
13247TIP3    H161156   2.248   3.116  13.372 -0.1209  0.9487  1.8532
13247TIP3    H261157   2.254   3.266  13.394 -2.4780  1.5898 -1.2259
13248TIP3   OH261158   6.579   6.188   1.702  0.6663  0.3129 -0.4987
13248TIP3    H161159   6.528   6.164   1.625  2.5395 -2.2335 -1.0703
13248TIP3    H261160   6.644   6.251   1.670  0.8997 -0.0971 -0.8368
13249TIP3   OH261161   3.397   1.607  15.638 -0.4841  0.4068 -0.3261
13249TIP3    H161162   3.411   1.687  15.587 -2.5620  1.1634  0.1849
13249TIP3    H261163   3.301   1.601  15.646 -0.2796 -0.3035  2.4822
13250TIP3   OH261164   3.216   6.359  14.132  0.7671 -0.2978  0.1637
13250TIP3    H161165   3.255   6.275  14.111  1.2871  0.4451 -2.0653
13250TIP3    H261166   3.172   6.387  14.052 -0.7465  0.8470  1.3283
13251TIP3   OH261167   4.838   6.190   2.210  0.1400  0.0671 -0.2317
13251TIP3    H161168   4.753   6.165   2.173 -0.1984  1.2273 -0.2817
13251TIP3    H261169   4.874   6.109   2.245 -0.9343 -0.4662 -0.3237
13252TIP3   OH261170   2.412   5.899  14.470 -0.2587  0.2181  0.2292
13252TIP3    H161171   2.433   5.913  14.378  3.0341 -0.6246  0.7427
13252TIP3    H261172   2.469   5.959  14.518 -0.6718 -0.5671  1.7746
13253TIP3   OH261173   5.384   4.355   5.551 -0.1537 -1.0707  0.2549
13253TIP3    H161174   5.355   4.418   5.618 -0.4607  0.6857 -1.4344
13253TIP3    H261175   5.478   4.368   5.544 -0.3023 -0.3405 -0.5114
13254TIP3   OH261176   0.684   4.110   5.540  0.3192 -0.6795 -0.1505
13254TIP3    H161177   0.592   4.124   5.559  0.2918 -0.5484 -0.3697
13254TIP3    H261178   0.725   4.097   5.625  0.0090 -1.2907 -0.0954
13255TIP3   OH261179   6.629   6.138  16.249  0.3246 -0.8795  0.0520
13255TIP3    H161180   6.596   6.194  16.178  0.0671 -1.3913 -0.2323
13255TIP3    H261181   6.712   6.103  16.215  1.5268  0.8917  1.0000
13256TIP3   OH261182   6.176   2.389   6.372  0.4461 -0.6792 -0.5947
13256TIP3    H161183   6.253   2.434   6.406  2.7791 -3.3072 -2.0370
13256TIP3    H261184   6.130   2.357   6.450  0.7707  0.9034  0.2863
13257TIP3   OH261185   4.636   0.048  12.588  0.1906 -0.1392  0.0310
13257TIP3    H161186   4.643  -0.030  12.642 -0.3371 -0.5643 -0.5137
13257TIP3    H261187   4.717   0.097  12.607  0.0480 -0.3138  1.1358
13258TIP3   OH261188   0.109   4.078   3.991  0.3228 -0.1924  0.1721
13258TIP3    H161189   0.047   4.072   4.064 -0.1201  0.4161 -0.1583
13258TIP3    H261190   0.109   3.990   3.953 -1.3040  0.1313 -0.6230
13259TIP3   OH261191   6.656   3.682  17.149 -0.2563  0.4144  0.0206
13259TIP3    H161192   6.618   3.656  17.065  0.5622 -2.4153  0.4260
13259TIP3    H261193   6.741   3.720  17.126  0.3798 -1.2072 -0.4349
13260TIP3   OH261194   4.650   4.773  14.010  0.6840 -0.2336 -0.0565
13260TIP3    H161195   4.736   4.806  13.983  0.7852 -0.9283 -0.5895
13260TIP3    H261196   4.611   4.740  13.930 -0.5352  1.0358 -0.0294
13261TIP3   OH261197   2.691   6.153   4.415 -0.0750 -0.8536 -0.9057
13261TIP3    H161198   2.785   6.164   4.423 -0.4193  1.6315  0.9297
13261TIP3    H261199   2.662   6.228   4.363 -1.0565 -1.6385 -1.5386
13262TIP3   OH261200   0.838   4.552  11.471  0.2739  0.1461 -0.0895
13262TIP3    H161201   0.835   4.643  11.502  0.7142  1.2800 -3.0351
13262TIP3    H261202   0.812   4.557  11.379 -1.0626 -2.9607 -0.0194
13263TIP3   OH261203   0.526   4.716   0.112 -0.1376  0.0071  0.2783
13263TIP3    H161204   0.547   4.691   0.022 -0.8396  2.1243 -0.5421
13263TIP3    H261205   0.435   4.690   0.124 -0.1201 -0.0494  0.2878
13264TIP3   OH261206   6.748   0.259  11.700  0.3574 -0.5394 -0.2360
13264TIP3    H161207   6.723   0.283  11.789  0.3269  1.0940 -0.6475
13264TIP3    H261208   6.667   0.227  11.660  0.2591 -0.8017  0.1729
13265TIP3   OH261209   1.223   0.578   2.845  0.4130  0.1823 -0.1361
13265TIP3    H161210   1.297   0.560   2.787 -0.9408  0.7383 -2.1567
13265TIP3    H261211   1.215   0.674   2.846  0.8841  0.2372  1.6585
13266TIP3   OH261212   0.255   5.106   1.571  0.1192 -0.1865 -0.4325
13266TIP3    H161213   0.294   5.080   1.654  0.5243 -1.7120 -1.0746
13266TIP3    H261214   0.209   5.188   1.591  0.1340 -0.5676  1.3005
13267TIP3   OH261215   6.546   5.401   1.212 -0.0306  0.6495 -0.1439
13267TIP3    H161216   6.565   5.318   1.256  0.1216 -0.0712 -1.4881
13267TIP3    H261217   6.460   5.428   1.245 -1.0264 -1.1121 -1.1745
13268TIP3   OH261218   1.359   0.112  15.012  0.1394 -0.6587 -0.2847
13268TIP3    H161219   1.266   0.131  15.024 -0.0125 -0.1428 -1.9628
13268TIP3    H261220   1.403   0.162  15.080 -0.7806 -0.5717  0.2607
13269TIP3   OH261221   3.825   3.726   5.089 -0.0462  0.1142  0.4084
13269TIP3    H161222   3.778   3.644   5.071 -0.0299  0.3418 -0.6824
13269TIP3    H261223   3.756   3.790   5.105 -0.0735  0.0755  0.4482
13270TIP3   OH261224   3.087   5.434  14.643  0.1321 -0.3367  0.1447
13270TIP3    H161225   3.117   5.477  14.723 -0.9843  0.4916  0.1274
13270TIP3    H261226   3.131   5.349  14.644  2.7671  0.9318 -0.0773
13271TIP3   OH261227   1.502   1.589  11.806 -0.1343 -0.4624  0.7085
13271TIP3    H161228   1.415   1.548  11.804  0.0031 -0.7313 -0.0238
13271TIP3    H261229   1.551   1.536  11.869 -0.3152 -0.7044  0.6499
13272TIP3   OH261230   6.554   1.817   4.831 -0.4721 -0.6114 -0.6907
13272TIP3    H161231   6.597   1.871   4.898 -0.1872 -1.1997 -0.3902
13272TIP3    H261232   6.577   1.727   4.855 -0.3876 -0.8276 -1.5689
13273TIP3   OH261233   5.396   5.220   6.070 -0.0080 -0.8256 -0.6049
13273TIP3    H161234   5.335   5.288   6.098  0.4586 -1.2623  1.7528
13273TIP3    H261235   5.470   5.267   6.033  0.0570 -0.0369  0.4788
13274TIP3   OH261236   5.078   1.992   1.583 -0.1393 -0.7254 -0.3302
13274TIP3    H161237   5.118   1.917   1.626  0.3506 -0.6487 -0.6385
13274TIP3    H261238   5.015   2.026   1.647  1.5493  0.2243  0.9132
13275TIP3   OH261239   2.050   5.918   5.168  0.3865 -0.0933  0.2839
13275TIP3    H161240   1.982   5.971   5.126 -0.1829 -0.0115  1.2664
13275TIP3    H261241   2.129   5.933   5.115 -0.6696 -1.3461 -1.7618
13276TIP3   OH261242   4.574   4.813   5.515  0.1538  0.4492  0.0536
13276TIP3    H161243   4.603   4.746   5.577 -0.9747  1.7916  2.1410
13276TIP3    H261244   4.488   4.782   5.486 -0.5161  1.1352  1.2775
13277TIP3   OH261245   2.439   6.299  11.335  0.1660 -0.2123 -0.3931
13277TIP3    H161246   2.523   6.328  11.298 -0.5859  2.5012 -0.1971
13277TIP3    H261247   2.374   6.356  11.293 -1.3478 -0.8671  0.9766
13278TIP3   OH261248   6.538   4.996  15.225  0.3782  0.3990  0.0816
13278TIP3    H161249   6.497   5.082  15.221  1.3584  1.0647  2.2838
13278TIP3    H261250   6.544   4.977  15.319  3.2146 -0.5465 -0.2010
13279TIP3   OH261251   3.953   0.475   5.289 -0.4203 -0.6811  0.5612
13279TIP3    H161252   3.984   0.549   5.341 -0.1245 -0.0379 -0.5047
13279TIP3    H261253   3.982   0.494   5.200 -1.6196 -1.3680 -0.0001
13280TIP3   OH261254   4.714   5.978   1.291  0.0394  0.0836 -0.7441
13280TIP3    H161255   4.689   5.886   1.281 -2.5466  0.5819  0.4210
13280TIP3    H261256   4.759   5.982   1.375 -1.3527  0.1194  0.0215
13281TIP3   OH261257   3.473   6.567   1.352  0.4753 -0.3593 -0.2216
13281TIP3    H161258   3.406   6.633   1.332 -2.6958 -2.5851  1.9560
13281TIP3    H261259   3.493   6.526   1.268 -3.0586 -1.3333 -0.7638
13282TIP3   OH261260   2.451   2.930   4.158  0.3352 -0.3756  0.2641
13282TIP3    H161261   2.370   2.951   4.112 -0.0216  0.3695  1.2097
13282TIP3    H261262   2.495   3.014   4.169  0.8172 -0.6603  0.5501
13283TIP3   OH261263   3.456   5.621   2.999  0.8360 -0.1715  0.1171
13283TIP3    H161264   3.470   5.569   2.920  2.0552 -0.0139  0.2194
13283TIP3    H261265   3.541   5.661   3.017  0.6637 -0.4903  1.7223
13284TIP3   OH261266   4.791   3.952   3.774 -0.1155 -0.4796  0.6324
13284TIP3    H161267   4.751   3.908   3.699  0.1072  0.9172 -0.3583
13284TIP3    H261268   4.776   3.893   3.848 -0.4830 -1.8288 -0.4749
13285TIP3   OH261269   0.054   6.152  12.916  0.0265  0.3973  0.1419
13285TIP3    H161270  -0.005   6.077  12.920  1.0000 -0.3330  1.9386
13285TIP3    H261271   0.007   6.217  12.864 -1.1510 -1.1786 -0.8434
13286TIP3   OH261272   2.855   4.452   4.285  0.0523  0.2240 -0.1779
13286TIP3    H161273   2.876   4.493   4.369 -0.3520 -1.1885  0.6323
13286TIP3    H261274   2.937   4.458   4.235  0.5062  0.4366  0.5694
13287TIP3   OH261275   6.701   2.715  15.514 -0.1043 -0.1539 -0.1226
13287TIP3    H161276   6.721   2.758  15.431 -0.5491 -0.4277 -0.3785
13287TIP3    H261277   6.647   2.778  15.562  0.6882  0.2635  0.2340
13288TIP3   OH261278   3.086   1.799  10.688  0.1246 -0.0139  0.2690
13288TIP3    H161279   3.060   1.759  10.771  4.2437 -0.9456  1.3176
13288TIP3    H261280   3.037   1.882  10.686 -0.7777 -0.3542  3.1684
13289TIP3   OH261281   5.472   0.420  16.885  0.1287 -0.0027  0.4751
13289TIP3    H161282   5.384   0.399  16.917 -0.3181 -1.7955 -1.6236
13289TIP3    H261283   5.525   0.343  16.909  0.7112  0.3299  0.2809
13290TIP3   OH261284   5.375   4.123   0.977 -0.3604 -0.6198 -0.1894
13290TIP3    H161285   5.297   4.078   0.945 -1.2217  0.5734  0.1719
13290TIP3    H261286   5.436   4.119   0.904 -1.3243 -0.2423 -1.0467
13291TIP3   OH261287   1.886   2.409  12.657 -0.3793 -0.6963  0.1479
13291TIP3    H161288   1.893   2.339  12.722 -1.3781 -2.1059 -1.1782
13291TIP3    H261289   1.809   2.458  12.683  0.5394  0.1807  1.2990
13292TIP3   OH261290   6.451   4.620   5.595  0.1096 -0.1308  0.3855
13292TIP3    H161291   6.473   4.711   5.616  0.4267 -0.2278  0.4823
13292TIP3    H261292   6.372   4.626   5.541 -0.7825  0.1222  1.6770
13293TIP3   OH261293   3.773   2.777  12.923  0.1180  0.1859 -0.9873
13293TIP3    H161294   3.718   2.854  12.938 -0.8083 -0.6838  0.2829
13293TIP3    H261295   3.721   2.720  12.867 -1.0760 -1.3321  1.4500
13294TIP3   OH261296   1.275   0.945   4.039  0.4458 -0.3029  0.1885
13294TIP3    H161297   1.219   0.960   4.115  0.8393 -0.2572  0.4724
13294TIP3    H261298   1.363   0.944   4.074  0.6981  0.5927 -0.3985
13295TIP3   OH261299   3.547   6.662  12.695 -0.6461  0.3715 -0.1389
13295TIP3    H161300   3.511   6.578  12.722  1.3413 -0.1611  1.0669
13295TIP3    H261301   3.601   6.690  12.769  1.4881  1.0153 -1.8251
13296TIP3   OH261302   1.002   3.907   4.390 -0.0310  0.0103  0.2541
13296TIP3    H161303   1.039   3.995   4.393  0.0939  0.0122 -0.7787
13296TIP3    H261304   0.908   3.920   4.404 -0.0904  0.3844 -0.4196
13297TIP3   OH261305   0.718   0.788  10.495  0.1605 -0.1697 -0.6689
13297TIP3    H161306   0.625   0.808  10.495  0.1453 -0.1576  0.7634
13297TIP3    H261307   0.724   0.697  10.467 -0.2037  0.0983 -1.6377
13298TIP3   OH261308   5.867   5.683  13.190 -0.0078  0.3476 -0.2525
13298TIP3    H161309   5.957   5.662  13.215 -0.1252  1.4668  1.2535
13298TIP3    H261310   5.873   5.769  13.150 -0.1353 -0.5399 -2.3483
13299TIP3   OH261311   5.143   5.842  12.857 -0.3388 -1.2156 -0.2037
13299TIP3    H161312   5.059   5.884  12.876 -0.6789  0.2321 -4.0600
13299TIP3    H261313   5.131   5.803  12.771  2.4549 -2.4834 -0.1111
13300TIP3   OH261314   6.732   4.938   3.821  0.6891  0.5456  0.2021
13300TIP3    H161315   6.693   4.862   3.777  0.8857  0.1939  0.6292
13300TIP3    H261316   6.682   4.946   3.903  1.0805  0.4921  0.4490
13301TIP3   OH261317   2.040   5.506   5.752 -0.7573 -0.5235 -0.3990
13301TIP3    H161318   2.098   5.447   5.704  0.1934 -0.7592  0.9933
13301TIP3    H261319   1.990   5.448   5.811 -0.0033 -0.0043  0.7936
13302TIP3   OH261320   1.607   2.549  13.725 -0.3729  0.8118  0.1045
13302TIP3    H161321   1.637   2.461  13.750 -2.6080  0.2863  1.3362
13302TIP3    H261322   1.516   2.535  13.696 -1.1331  2.8050  1.2989
13303TIP3   OH261323   0.671   1.515   0.636 -0.0402 -0.1259  0.1901
13303TIP3    H161324   0.733   1.462   0.685  0.4250  1.2714  1.1629
13303TIP3    H261325   0.722   1.547   0.561 -0.0946 -0.3909  0.0378
13304TIP3   OH261326   2.088   6.324   0.897  0.2957  0.5525 -0.2517
13304TIP3    H161327   2.075   6.330   0.802 -0.1248 -1.2051 -0.3337
13304TIP3    H261328   2.030   6.254   0.925  0.5629  0.9167  1.2947
13305TIP3   OH261329   1.723   1.971  14.982 -0.2413 -0.0423  0.3658
13305TIP3    H161330   1.658   1.949  15.048  0.8347 -0.7774  1.2042
13305TIP3    H261331   1.674   1.969  14.899 -0.6762 -3.9985  0.5205
13306TIP3   OH261332   4.806   1.935   3.158  0.1089  0.0959 -0.1808
13306TIP3    H161333   4.853   1.935   3.241  0.8449  1.9364 -0.5499
13306TIP3    H261334   4.730   1.991   3.173  0.4190  0.7068 -0.8064
13307TIP3   OH261335   0.894   6.160   0.712  0.0438 -0.1740  0.2034
13307TIP3    H161336   0.981   6.170   0.673 -0.2535  1.4774 -0.1075
13307TIP3    H261337   0.906   6.183   0.804 -1.0327  6.6183 -0.8717
13308TIP3   OH261338   1.278   0.100   6.216  0.6022  0.1334  0.4626
13308TIP3    H161339   1.195   0.108   6.169 -0.7045  2.0009  2.8711
13308TIP3    H261340   1.271   0.018   6.264  1.2161 -0.9011 -1.1264
13309TIP3   OH261341   6.290   0.843   0.176 -0.0632  0.2739 -0.0924
13309TIP3    H161342   6.331   0.772   0.127  0.8226  1.8058 -1.6695
13309TIP3    H261343   6.359   0.908   0.188 -1.0748  1.2757  0.5357
13310TIP3   OH261344   0.271   3.721  14.980 -0.8258  0.0603  0.5231
13310TIP3    H161345   0.233   3.648  15.030 -1.4692 -0.0487 -0.1156
13310TIP3    H261346   0.318   3.679  14.908  1.2238  0.1398  1.7087
13311TIP3   OH261347   5.004   4.329  12.091 -0.3205  0.5092  0.1454
13311TIP3    H161348   5.047   4.398  12.140 -2.2615  1.9441 -0.0371
13311TIP3    H261349   4.953   4.375  12.024  0.4987 -1.2623 -1.8152
13312TIP3   OH261350   3.203   2.316  15.318  0.5131  0.2941 -0.5745
13312TIP3    H161351   3.293   2.283  15.315  0.1710 -1.3080  2.2802
13312TIP3    H261352   3.208   2.392  15.375 -0.1805 -1.3271  1.8246
13313TIP3   OH261353   0.724   2.613  11.949 -0.8206  0.3082  0.6863
13313TIP3    H161354   0.768   2.688  11.989 -0.4644  0.1324  0.6275
13313TIP3    H261355   0.759   2.610  11.859  0.5510 -1.0024  1.2177
13314TIP3   OH261356   2.545   4.936  12.448  0.3969 -0.2963  0.6838
13314TIP3    H161357   2.624   4.883  12.461  1.2323  0.9190  0.7467
13314TIP3    H261358   2.535   4.942  12.353  0.1333 -0.8106  0.6802
13315TIP3   OH261359   5.566   3.959  11.589 -0.5619  0.0578 -0.5309
13315TIP3    H161360   5.486   3.915  11.559 -0.5258 -0.2579 -0.1790
13315TIP3    H261361   5.633   3.934  11.526 -0.0504 -2.1053  0.7655
13316TIP3   OH261362   5.546   5.731  13.433 -0.5050 -0.0433  0.2034
13316TIP3    H161363   5.516   5.819  13.410  1.6081  0.5309 -0.5982
13316TIP3    H261364   5.631   5.745  13.475 -0.7592 -1.6379  1.3414
13317TIP3   OH261365   1.984   1.831   5.692  0.1605  0.0848  0.3816
13317TIP3    H161366   1.998   1.925   5.683  0.5710  0.1379  1.4360
13317TIP3    H261367   1.897   1.823   5.730 -0.6524 -0.0580 -1.3772
13318TIP3   OH261368   0.334   1.723   0.068  1.0302  0.0006 -0.2225
13318TIP3    H161369   0.312   1.813   0.045  0.5784  0.4489  1.7884
13318TIP3    H261370   0.249   1.684   0.091  1.4274 -0.4330  0.5298
13319TIP3   OH261371   2.415   3.004   5.664 -0.5906 -0.2128 -0.2204
13319TIP3    H161372   2.364   2.946   5.721 -1.1741  0.9559  0.4687
13319TIP3    H261373   2.503   3.003   5.702 -0.4306 -1.1145 -0.5795
13320TIP3   OH261374   0.863   0.819   4.217 -0.3907 -0.5140 -0.2501
13320TIP3    H161375   0.779   0.855   4.187 -0.6958 -1.4122 -0.5058
13320TIP3    H261376   0.843   0.782   4.303 -0.0322  0.1015  0.0996
13321TIP3   OH261377   3.649   2.534   0.145  0.4330  0.4716  0.2738
13321TIP3    H161378   3.674   2.543   0.237  0.0912  3.4451  0.1837
13321TIP3    H261379   3.564   2.490   0.147  1.2929 -1.2392  1.1984
13322TIP3   OH261380   3.314   0.596  17.257 -0.0741  0.2740 -0.6760
13322TIP3    H161381   3.225   0.584  17.224  0.1721  1.6832 -1.9631
13322TIP3    H261382   3.370   0.552  17.193  0.2393  0.5104 -0.5696
13323TIP3   OH261383   5.152   5.437   3.094  0.4993  0.1533 -0.0343
13323TIP3    H161384   5.091   5.382   3.045 -0.4348  0.7149  0.4619
13323TIP3    H261385   5.134   5.416   3.186  2.3413 -1.0089  0.1163
13324TIP3   OH261386   6.068   6.440   4.980 -0.7613  0.2190  0.2151
13324TIP3    H161387   6.146   6.393   4.950 -1.7161 -1.2744 -0.0916
13324TIP3    H261388   6.094   6.532   4.984 -0.0426  0.3535 -3.6395
13325TIP3   OH261389   1.396   5.429  15.003 -0.6694 -0.1316 -0.0861
13325TIP3    H161390   1.392   5.391  15.090  1.9448 -1.2037 -0.3398
13325TIP3    H261391   1.335   5.378  14.951 -0.2621 -1.2621  0.5264
13326TIP3   OH261392   1.715   3.988  12.433  0.1147  0.1372  0.2350
13326TIP3    H161393   1.623   3.997  12.408 -0.1520 -2.1224  0.1997
13326TIP3    H261394   1.763   4.012  12.354 -0.4871  0.1485 -0.1354
13327TIP3   OH261395   1.599   2.693   5.022 -0.1723 -0.1957 -0.5640
13327TIP3    H161396   1.534   2.721   5.087 -0.5568 -0.0001 -1.0183
13327TIP3    H261397   1.612   2.600   5.039  1.1054  0.2343  0.9593
13328TIP3   OH261398   0.057   6.538  15.931  0.3475 -0.6696  0.1604
13328TIP3    H161399   0.136   6.519  15.881 -0.9686 -0.4461 -2.1447
13328TIP3    H261400  -0.009   6.478  15.895 -1.3509  1.3567 -0.3006
13329TIP3   OH261401   5.418   4.879  14.662 -0.2197  0.5218  0.3979
13329TIP3    H161402   5.416   4.800  14.609  0.9173 -0.8271  2.2510
13329TIP3    H261403   5.427   4.848  14.752 -1.7285  2.7174  1.4046
13330TIP3   OH261404   4.751   5.693  16.854 -0.7236  0.3454 -0.8989
13330TIP3    H161405   4.657   5.704  16.869 -0.5312  2.6194 -0.9597
13330TIP3    H261406   4.757   5.656  16.766 -1.5568  0.1625 -0.8910
13331TIP3   OH261407   2.506   5.307   3.269 -0.2859 -0.4849 -0.1980
13331TIP3    H161408   2.457   5.355   3.335  0.4492  0.1867 -0.1335
13331TIP3    H261409   2.456   5.320   3.188  0.7737  1.8182 -0.5452
13332TIP3   OH261410   3.086   6.670   0.546  0.1920  0.4956  0.2682
13332TIP3    H161411   3.167   6.632   0.512 -0.8291 -1.5428 -0.0390
13332TIP3    H261412   3.043   6.706   0.468 -0.6564 -1.3255 -0.1625
13333TIP3   OH261413   2.383   5.623  15.538 -0.1567 -0.6770  0.2608
13333TIP3    H161414   2.414   5.535  15.520 -1.1496 -1.3421  1.6360
13333TIP3    H261415   2.306   5.633  15.481  1.4359  0.3297 -1.8512
13334TIP3   OH261416   3.294   2.883  12.769 -0.6726  0.0318 -0.1420
13334TIP3    H161417   3.254   2.843  12.846 -1.0637  2.0544  0.7869
13334TIP3    H261418   3.338   2.811  12.724  1.6887 -0.8871  3.2676
13335TIP3   OH261419   4.855   2.622  13.250 -0.5742  0.5092 -0.0686
13335TIP3    H161420   4.784   2.637  13.188 -0.2575  1.1772 -0.2798
13335TIP3    H261421   4.826   2.665  13.331 -1.2194 -0.8141  0.4230
13336TIP3   OH261422   2.623   1.920  14.718  0.4721 -0.1460  0.1497
13336TIP3    H161423   2.686   1.965  14.775 -0.6588 -0.1618  1.4671
13336TIP3    H261424   2.677   1.868  14.658  1.7429  1.2433  0.0387
13337TIP3   OH261425   0.315   2.767  14.647  0.1723  0.3429 -0.1098
13337TIP3    H161426   0.369   2.703  14.693  1.6493  1.7869  0.2290
13337TIP3    H261427   0.238   2.777  14.702  0.1947 -0.6816  0.1325
13338TIP3   OH261428   5.486   3.936  16.541 -0.0830  0.2353 -0.1895
13338TIP3    H161429   5.480   3.851  16.585 -0.5324  0.7130  0.7085
13338TIP3    H261430   5.492   3.999  16.613  0.3822  0.9504 -0.8505
13339TIP3   OH261431   2.313   1.288   0.832 -0.1890 -0.3142  0.5828
13339TIP3    H161432   2.262   1.303   0.752  0.2789  2.5230  0.7119
13339TIP3    H261433   2.400   1.263   0.801 -0.6827 -1.7905  0.3045
13340TIP3   OH261434   2.391   3.025   0.465  0.5782  0.3619  0.2617
13340TIP3    H161435   2.427   2.966   0.399  1.4168 -0.0812  1.0922
13340TIP3    H261436   2.467   3.057   0.513  0.0250  1.1221  0.6623
13341TIP3   OH261437   3.163   2.301   5.892  0.1172  0.3626  0.0955
13341TIP3    H161438   3.080   2.263   5.920  1.6057 -2.6329  0.8062
13341TIP3    H261439   3.206   2.328   5.973  0.7055 -0.0678 -0.0666
13342TIP3   OH261440   3.859   4.242   4.607  0.1134  0.6687  0.4188
13342TIP3    H161441   3.916   4.168   4.586  0.8762  1.1905  0.5862
13342TIP3    H261442   3.910   4.319   4.582  0.3687  1.2468  2.5300
13343TIP3   OH261443   3.615   2.771  16.118  0.3767 -0.6523 -0.0856
13343TIP3    H161444   3.634   2.786  16.026 -2.0886  0.4583 -0.4970
13343TIP3    H261445   3.564   2.690  16.120  0.2751 -0.5848  0.2604
13344TIP3   OH261446   6.214   2.045  11.346  0.5602  0.2542 -0.0547
13344TIP3    H161447   6.228   2.105  11.272 -3.3244  0.0374 -1.1746
13344TIP3    H261448   6.194   1.961  11.305 -2.2294  0.2540  1.1224
13345TIP3   OH261449   3.659   0.971  10.415 -0.6830 -0.9628 -0.0494
13345TIP3    H161450   3.752   0.985  10.400 -0.9883  0.4484 -0.7496
13345TIP3    H261451   3.654   0.933  10.503  0.4523  0.5391  0.7117
13346TIP3   OH261452   5.345   0.268   5.599  0.4525 -0.0312  0.4629
13346TIP3    H161453   5.326   0.329   5.670 -2.3718 -0.9273  0.6159
13346TIP3    H261454   5.366   0.324   5.524 -0.3966  1.0759  1.0266
13347TIP3   OH261455   3.346   3.268   4.223 -0.1696 -0.8786 -0.2918
13347TIP3    H161456   3.347   3.189   4.277  1.7497  0.1900  1.4218
13347TIP3    H261457   3.437   3.299   4.226 -0.7046  0.9586 -1.5571
13348TIP3   OH261458   5.023   3.227  16.217 -0.2780 -0.3341  0.4516
13348TIP3    H161459   4.931   3.209  16.201 -0.5381  2.4668 -2.1161
13348TIP3    H261460   5.069   3.148  16.189 -1.8241 -1.5630  1.2671
13349TIP3   OH261461   6.460   3.398  14.238  0.0627 -0.3951  0.3624
13349TIP3    H161462   6.367   3.406  14.255  0.3023  1.3414  1.0616
13349TIP3    H261463   6.496   3.484  14.259  1.6363 -0.6217 -1.1584
13350TIP3   OH261464   4.682   1.675   0.153  0.0505  0.2266  0.7245
13350TIP3    H161465   4.611   1.727   0.190 -0.4614 -0.9488  1.4418
13350TIP3    H261466   4.762   1.716   0.186 -0.3412  0.5586  1.2727
13351TIP3   OH261467   0.420   0.217   5.834 -0.2234 -0.6563  0.5062
13351TIP3    H161468   0.501   0.201   5.882 -0.8975 -2.1104  1.2095
13351TIP3    H261469   0.414   0.312   5.828  2.3891 -0.4922 -1.0477
13352TIP3   OH261470   1.156   1.558   0.154 -0.2357 -0.5086  0.2233
13352TIP3    H161471   1.145   1.552   0.060  1.3717 -0.5807  0.0150
13352TIP3    H261472   1.071   1.589   0.187 -0.9401 -0.8793 -1.1804
13353TIP3   OH261473   6.233   2.229  11.588 -0.0432 -0.9683 -0.4768
13353TIP3    H161474   6.319   2.209  11.549  0.5339  0.3533  0.0510
13353TIP3    H261475   6.170   2.205  11.520  0.9041  0.8825 -2.1172
13354TIP3   OH261476   0.585   3.212   0.097 -0.5146  0.1759 -0.3715
13354TIP3    H161477   0.641   3.149   0.142  0.0838  0.2333 -1.0122
13354TIP3    H261478   0.595   3.191   0.004 -1.2667  0.4332 -0.5132
13355TIP3   OH261479   0.722   1.286  12.748  0.2807 -0.2601  0.3899
13355TIP3    H161480   0.763   1.344  12.811 -1.2876 -0.6672  1.8694
13355TIP3    H261481   0.730   1.199  12.786 -1.8784 -0.3528  0.7752
13356TIP3   OH261482   0.530   3.904  11.084 -0.6175 -0.5103  0.2690
13356TIP3    H161483   0.466   3.899  11.013  0.3911  0.4517 -0.7578
13356TIP3    H261484   0.607   3.943  11.044  0.4325 -1.1232  1.6110
13357TIP3   OH261485   2.403   3.831  13.971  0.2412  0.2335 -0.1270
13357TIP3    H161486   2.423   3.903  13.911 -0.6431  2.6017  2.2502
13357TIP3    H261487   2.315   3.850  14.002  1.1776 -0.0430  2.9867
13358TIP3   OH261488   5.850   4.527   2.067 -0.1490 -0.2497 -0.6440
13358TIP3    H161489   5.780   4.531   2.132  0.0312 -1.6476 -0.3167
13358TIP3    H261490   5.868   4.618   2.045 -0.0473  0.3001  1.4645
13359TIP3   OH261491   0.354   2.824   4.999 -0.3160  0.0193 -0.4230
13359TIP3    H161492   0.336   2.854   5.088  0.2028  0.6319 -0.5144
13359TIP3    H261493   0.434   2.774   5.006 -0.4114 -0.1454 -0.5067
13360TIP3   OH261494   1.568   6.241  15.831 -0.1551  0.5274 -0.3509
13360TIP3    H161495   1.488   6.233  15.884  1.7224  0.5726  2.7018
13360TIP3    H261496   1.579   6.155  15.791  0.3538 -0.8743  2.5520
13361TIP3   OH261497   6.654   4.248  12.616 -0.2006  0.7131 -0.4233
13361TIP3    H161498   6.719   4.277  12.551  1.5982  0.8917  1.3710
13361TIP3    H261499   6.626   4.329  12.658  0.5620  0.4015  0.7218
13362TIP3   OH261500   5.573   3.552   1.119 -0.2460 -0.0100 -0.0449
13362TIP3    H161501   5.652   3.557   1.172 -0.5793 -0.0391  0.4607
13362TIP3    H261502   5.563   3.459   1.098  0.2857  0.0948 -0.7723
13363TIP3   OH261503   0.784   0.233   1.181  0.0336  0.0368 -0.0955
13363TIP3    H161504   0.864   0.280   1.158  0.3358 -1.0598 -1.3951
13363TIP3    H261505   0.763   0.182   1.103 -1.8145  0.1217  0.3015
13364TIP3   OH261506   5.073   5.574  10.829 -0.3212  0.3876  0.0535
13364TIP3    H161507   4.979   5.588  10.825 -0.5936 -1.4202 -0.6512
13364TIP3    H261508   5.106   5.645  10.884 -1.9787  1.5239 -0.3628
13365TIP3   OH261509   4.179   3.636   4.462 -0.1224 -0.3403 -0.4361
13365TIP3    H161510   4.254   3.680   4.503 -0.2853 -0.4505 -0.0096
13365TIP3    H261511   4.213   3.601   4.380 -0.1594  1.1917 -1.1295
13366TIP3   OH261512   6.180   5.544   5.710 -0.4183 -0.0317 -0.6345
13366TIP3    H161513   6.267   5.526   5.746 -0.0481  0.7557 -1.1038
13366TIP3    H261514   6.191   5.533   5.615 -0.8818 -0.1152 -0.6802
13367TIP3   OH261515   4.302   1.394   4.798  0.2138  0.1489 -0.1884
13367TIP3    H161516   4.280   1.301   4.792  3.8462 -1.0958  2.3724
13367TIP3    H261517   4.373   1.406   4.736 -1.2468  1.7455 -1.6764
13368TIP3   OH261518   0.080   6.690  14.787  0.6443  0.3945 -0.0875
13368TIP3    H161519  -0.013   6.701  14.809  0.0771 -1.5623 -1.2536
13368TIP3    H261520   0.097   6.757  14.721 -0.3320 -0.0253 -0.8054
13369TIP3   OH261521   2.607   1.152   0.747  0.4130 -0.3044  0.3012
13369TIP3    H161522   2.533   1.092   0.737 -0.9657  1.6796 -3.0496
13369TIP3    H261523   2.641   1.134   0.834 -1.4156 -4.1741  0.4046
13370TIP3   OH261524   6.198   5.530   1.724 -0.7723  0.2454  0.7684
13370TIP3    H161525   6.178   5.623   1.714  0.6831  0.4022 -1.1950
13370TIP3    H261526   6.293   5.525   1.722 -0.8054 -1.2643  1.3353
13371TIP3   OH261527   0.465   5.821  12.342  0.3168 -0.2448  0.8014
13371TIP3    H161528   0.449   5.757  12.412 -2.0519 -0.1334  0.4432
13371TIP3    H261529   0.386   5.874  12.340  0.7447  0.3963 -1.3079
13372TIP3   OH261530   2.639   0.674  15.054 -0.0316  0.0746  0.1480
13372TIP3    H161531   2.719   0.711  15.017  0.1952 -0.7228 -0.1854
13372TIP3    H261532   2.626   0.591  15.007 -1.2668  0.3646 -0.0787
13373TIP3   OH261533   6.400   1.672  15.876 -0.0042 -0.4778  0.2696
13373TIP3    H161534   6.378   1.734  15.945  1.2030  0.9559 -0.5779
13373TIP3    H261535   6.442   1.599  15.921 -0.2763 -0.0953  1.1565
13374TIP3   OH261536   4.409   3.181  11.550  0.3368 -0.2858 -0.7469
13374TIP3    H161537   4.390   3.124  11.475 -0.5517  1.4354 -1.8747
13374TIP3    H261538   4.381   3.268  11.523  1.9482  0.7957  0.8149
13375TIP3   OH261539   2.140   0.456   2.474 -0.1230 -0.4960  0.6103
13375TIP3    H161540   2.159   0.509   2.397 -1.7629 -1.4510 -0.4946
13375TIP3    H261541   2.225   0.419   2.499  0.2559 -1.2803 -1.5887
13376TIP3   OH261542   2.498   4.957  13.313  0.1285 -0.1143 -0.0372
13376TIP3    H161543   2.541   4.883  13.357  0.7678  0.8833  1.0569
13376TIP3    H261544   2.559   4.984  13.245 -0.2227 -0.7432 -0.6146
13377TIP3   OH261545   6.202   6.574   1.667 -0.4215  0.0489  0.0792
13377TIP3    H161546   6.226   6.570   1.759 -0.3840  0.9188  0.1191
13377TIP3    H261547   6.117   6.530   1.662 -0.7303  0.5678  0.6490
13378TIP3   OH261548   2.099   0.615   6.717  0.9251  0.2279 -0.6458
13378TIP3    H161549   2.017   0.566   6.718  0.1647  1.4587 -0.7177
13378TIP3    H261550   2.149   0.575   6.645  0.2546 -0.3079 -0.8321
13379TIP3   OH261551   1.975   2.809   0.897  0.6335 -0.8972  0.5398
13379TIP3    H161552   1.967   2.894   0.853  2.0384 -1.5772 -1.1974
13379TIP3    H261553   1.886   2.787   0.924 -0.0750  0.2339 -0.7325
13380TIP3   OH261554   4.152   3.071   0.446  0.7440  0.6324 -0.1386
13380TIP3    H161555   4.148   3.161   0.413  0.4073  0.7763  0.2856
13380TIP3    H261556   4.187   3.020   0.373  1.1227  1.1402 -0.3141
13381TIP3   OH261557   2.321   2.248  11.630 -0.6395  0.7775 -0.2821
13381TIP3    H161558   2.379   2.322  11.647 -1.7238  1.7084 -0.4816
13381TIP3    H261559   2.234   2.280  11.655 -0.7639 -1.5182  2.7876
13382TIP3   OH261560   5.979   1.309   3.365  0.3016 -0.3170 -0.3429
13382TIP3    H161561   6.000   1.393   3.324 -0.7583  0.9226  1.5311
13382TIP3    H261562   5.972   1.328   3.458 -1.6421 -2.1241 -0.0477
13383TIP3   OH261563   3.208   3.673  12.851 -0.5213  0.6406  0.1131
13383TIP3    H161564   3.205   3.769  12.844 -2.7311  0.6464  0.2622
13383TIP3    H261565   3.277   3.656  12.916  1.3565  1.9698 -1.4306
13384TIP3   OH261566   6.203   5.892   2.058 -0.8217  0.1599 -0.0190
13384TIP3    H161567   6.109   5.876   2.061 -0.7933 -0.7431 -1.9796
13384TIP3    H261568   6.215   5.979   2.097 -2.0362 -0.9922  3.1871
13385TIP3   OH261569   2.625   1.389  15.487  0.1044  0.1438 -0.1084
13385TIP3    H161570   2.671   1.460  15.442 -0.0994  1.3764  1.5210
13385TIP3    H261571   2.676   1.311  15.467  2.4348  1.3100  0.8918
13386TIP3   OH261572   2.569   5.331  11.383 -0.1930  1.0079  0.2029
13386TIP3    H161573   2.515   5.263  11.423  1.1848 -0.5083 -0.3965
13386TIP3    H261574   2.561   5.316  11.289  3.0321 -0.8216  0.0889
13387TIP3   OH261575   1.956   0.672  10.937 -0.7171  0.5860 -0.1525
13387TIP3    H161576   2.005   0.718  11.005 -0.6915 -0.0155  0.2426
13387TIP3    H261577   1.870   0.657  10.975 -0.7336  0.3342 -0.2860
13388TIP3   OH261578   2.991   3.714  15.321 -0.2502  0.4728  0.0902
13388TIP3    H161579   3.039   3.725  15.403 -0.9928  1.6716  0.4029
13388TIP3    H261580   3.033   3.640  15.277 -0.0067 -0.3562  1.6677
13389TIP3   OH261581   4.675   4.046  15.160 -0.3296  0.1923  0.1171
13389TIP3    H161582   4.643   3.985  15.227  0.0035 -0.4294 -0.2824
13389TIP3    H261583   4.613   4.037  15.088  1.7221 -2.5195 -1.4981
13390TIP3   OH261584   3.997   1.140  13.508 -0.6381  0.1390  0.4411
13390TIP3    H161585   4.015   1.047  13.497 -1.6526 -0.1388  0.9769
13390TIP3    H261586   3.979   1.171  13.419  2.0301  0.3846 -0.0871
13391TIP3   OH261587   0.529   1.893  16.615 -0.3646 -0.3268  0.3853
13391TIP3    H161588   0.464   1.956  16.583  0.4550 -0.0330 -0.7426
13391TIP3    H261589   0.579   1.942  16.680 -0.0320  0.0456 -0.1472
13392TIP3   OH261590   5.700   5.134   4.083 -0.5947  0.3870  0.0614
13392TIP3    H161591   5.709   5.040   4.068  1.3275  0.8982 -2.5290
13392TIP3    H261592   5.645   5.165   4.011  0.2342  1.4932 -0.1138
13393TIP3   OH261593   2.667   2.199  15.047 -0.2955 -0.0937 -0.4261
13393TIP3    H161594   2.601   2.242  14.992 -0.8562  2.2069  1.8217
13393TIP3    H261595   2.628   2.116  15.073 -1.1916  0.0720 -1.2241
13394TIP3   OH261596   0.552   4.846   1.890  0.2510 -0.2997  0.2470
13394TIP3    H161597   0.535   4.771   1.834  2.1598  0.7242 -1.8920
13394TIP3    H261598   0.648   4.856   1.888  0.0368  2.6916 -0.3546
13395TIP3   OH261599   5.649   2.491  14.942 -0.1312 -0.0156  0.6670
13395TIP3    H161600   5.581   2.437  14.981 -2.0415  1.5406 -0.3654
13395TIP3    H261601   5.729   2.440  14.954 -1.3382 -1.6371  2.4544
13396TIP3   OH261602   3.562   3.387  14.227 -0.3035  0.2394 -0.3507
13396TIP3    H161603   3.540   3.351  14.312  0.8841 -0.2651 -0.2383
13396TIP3    H261604   3.500   3.459  14.214 -0.4304  0.3844  0.9776
13397TIP3   OH261605   4.147   2.775   5.946  0.4358 -0.3046  0.5736
13397TIP3    H161606   4.241   2.767   5.937  0.4122  0.9655 -1.3884
13397TIP3    H261607   4.111   2.703   5.895  0.3401 -0.1324  0.3964
13398TIP3   OH261608   3.438   5.326   2.287  0.4078  0.8327 -0.1327
13398TIP3    H161609   3.440   5.303   2.380 -0.7898  1.1400 -0.0181
13398TIP3    H261610   3.353   5.294   2.256  1.4103 -0.6897 -1.5108
13399TIP3   OH261611   2.508   3.224   1.174 -0.2191 -0.9462 -0.1683
13399TIP3    H161612   2.458   3.185   1.102  0.9853 -0.9233 -1.0378
13399TIP3    H261613   2.575   3.277   1.131 -0.0950 -0.1298  0.9826
13400TIP3   OH261614   6.179   4.300  11.707 -0.1564  0.0467  0.6450
13400TIP3    H161615   6.208   4.219  11.664  0.0446  1.0357 -1.1684
13400TIP3    H261616   6.203   4.287  11.799  1.0183 -1.4387  0.1807
13401TIP3   OH261617   4.051   3.165   6.195 -0.1285  0.3590 -0.1600
13401TIP3    H161618   4.121   3.137   6.253  0.8156  0.8821 -1.0050
13401TIP3    H261619   4.058   3.107   6.119  0.0785  1.0839 -0.7100
13402TIP3   OH261620   4.893   5.401  14.782  1.1153 -0.0123 -0.3485
13402TIP3    H161621   4.963   5.366  14.838  0.7401  0.9256  0.7438
13402TIP3    H261622   4.888   5.494  14.805  0.6670  0.3204 -1.6688
13403TIP3   OH261623   5.548   3.517  16.933  0.5383  0.1968 -0.0187
13403TIP3    H161624   5.453   3.519  16.920  0.5852  0.9123 -0.3266
13403TIP3    H261625   5.583   3.501  16.846  0.7166  0.6455 -0.0352
13404TIP3   OH261626   2.825   3.126  14.763 -0.3437 -0.8610  0.1294
13404TIP3    H161627   2.800   3.034  14.778  1.7066 -1.3120  1.1696
13404TIP3    H261628   2.855   3.129  14.673 -0.5393 -1.1941  0.0529
13405TIP3   OH261629   6.541   3.839   5.622  0.0147  0.3799  0.3392
13405TIP3    H161630   6.502   3.888   5.550  0.5384 -1.2445 -1.0901
13405TIP3    H261631   6.631   3.870   5.626  0.3786 -0.5174 -0.6384
13406TIP3   OH261632   0.273   6.507  15.510  0.0330 -0.3385 -0.4824
13406TIP3    H161633   0.246   6.583  15.458  0.1015  0.5998  0.8128
13406TIP3    H261634   0.285   6.541  15.598 -0.7598 -2.0256  0.3339
13407TIP3   OH261635   2.449   4.868  14.074  0.3364  0.0084 -0.1959
13407TIP3    H161636   2.520   4.921  14.038  0.3759 -1.5713 -2.7205
13407TIP3    H261637   2.370   4.919  14.054  0.5881  0.7850  0.7195
13408TIP3   OH261638   2.588   4.165  16.125  0.0682  0.0570 -0.6481
13408TIP3    H161639   2.545   4.105  16.064 -0.8743 -0.8380  0.8563
13408TIP3    H261640   2.659   4.114  16.164 -0.3663  0.0925  0.2121
13409TIP3   OH261641   5.255   2.329   1.866  0.5156 -0.0184  0.1586
13409TIP3    H161642   5.196   2.304   1.795  0.3867 -0.1877  0.3284
13409TIP3    H261643   5.221   2.413   1.897 -0.5765 -0.8762  1.3213
13410TIP3   OH261644   5.562   5.662  11.850 -0.3872  0.6006  0.8050
13410TIP3    H161645   5.617   5.602  11.901 -1.2453 -1.3373 -0.4763
13410TIP3    H261646   5.553   5.620  11.765 -1.6750  2.1963  0.1163
13411TIP3   OH261647   0.303   0.978  13.884 -0.3056 -0.1640 -0.2604
13411TIP3    H161648   0.225   0.924  13.889 -1.6524  1.7379  0.6785
13411TIP3    H261649   0.270   1.068  13.891  2.0009  0.6847  0.7869
13412TIP3   OH261650   3.761   1.247  15.178 -0.5852  0.0028 -0.4296
13412TIP3    H161651   3.839   1.229  15.126 -0.8585 -2.1692 -0.1832
13412TIP3    H261652   3.789   1.312  15.243  0.7972 -0.1927 -0.8125
13413TIP3   OH261653   5.763   5.816  13.742 -0.2860  0.1555  0.1030
13413TIP3    H161654   5.796   5.797  13.654 -0.4083  0.8673 -0.0969
13413TIP3    H261655   5.749   5.729  13.781 -0.2668 -0.1656 -0.5891
13414TIP3   OH261656   3.112   0.554   3.936 -0.4510  0.2941  0.2760
13414TIP3    H161657   3.037   0.495   3.930 -0.9121  0.6759  1.8718
13414TIP3    H261658   3.081   0.637   3.902 -0.0895 -0.0674 -1.0375
13415TIP3   OH261659   4.517   0.471   1.280  0.3794 -0.5492 -0.1505
13415TIP3    H161660   4.578   0.412   1.235 -0.5112  0.1145 -2.3427
13415TIP3    H261661   4.481   0.526   1.211 -0.5463  1.0334  1.5119
13416TIP3   OH261662   4.151   2.866   6.306  0.0195 -0.0163  0.1389
13416TIP3    H161663   4.150   2.776   6.273 -1.7375  0.2287 -0.5475
13416TIP3    H261664   4.210   2.912   6.246  0.1298 -0.4865 -0.1212
13417TIP3   OH261665   0.589   6.595  15.894 -0.3853 -0.4225 -0.1216
13417TIP3    H161666   0.630   6.624  15.813  2.4749  3.7982  2.4369
13417TIP3    H261667   0.626   6.508  15.909  0.7904 -0.3652 -2.1981
13418TIP3   OH261668   4.945   3.743   5.077 -0.5922 -0.3037 -0.0573
13418TIP3    H161669   4.937   3.815   5.139  3.0069  0.3309 -0.1521
13418TIP3    H261670   4.958   3.785   4.992 -0.3729 -1.1122 -0.4323
13419TIP3   OH261671   0.392   3.222   2.416 -0.4897 -0.5137  0.1167
13419TIP3    H161672   0.430   3.136   2.395  1.5151 -0.1859  1.9900
13419TIP3    H261673   0.345   3.207   2.498 -2.7434 -0.4227 -1.0876
13420TIP3   OH261674   0.070   1.289   4.837  0.0222 -0.2171  0.1703
13420TIP3    H161675   0.045   1.381   4.847 -1.1073 -0.5553  0.5638
13420TIP3    H261676   0.015   1.257   4.765  1.5925 -0.1729 -1.1023
13421TIP3   OH261677   3.259   5.180   1.168 -0.1766  0.0779 -0.9751
13421TIP3    H161678   3.268   5.271   1.199  0.9515  0.0741 -1.2413
13421TIP3    H261679   3.200   5.139   1.231  0.6273  0.5646  0.1340
13422TIP3   OH261680   6.764   2.406  11.947 -0.3258  0.3651  0.5763
13422TIP3    H161681   6.760   2.471  11.877 -0.6301  1.2367  1.3774
13422TIP3    H261682   6.678   2.411  11.989 -0.1458 -0.1326  1.0135
13423TIP3   OH261683   6.274   6.239   0.461  0.2529 -0.1511 -0.2997
13423TIP3    H161684   6.215   6.190   0.404  0.4004  0.1220 -0.6890
13423TIP3    H261685   6.345   6.178   0.480  0.2935 -0.1866 -0.5539
13424TIP3   OH261686   4.117   6.709  13.589  0.2483  0.0323 -0.5353
13424TIP3    H161687   4.108   6.614  13.594  1.6319 -0.0937  0.0037
13424TIP3    H261688   4.209   6.723  13.569  0.7784  1.3012  2.3670
13425TIP3   OH261689   0.364   6.189  11.308 -0.4344 -0.0248  0.3558
13425TIP3    H161690   0.455   6.176  11.283 -0.0661 -0.5961  1.8691
13425TIP3    H261691   0.313   6.151  11.237  0.5245 -0.3889 -0.1440
13426TIP3   OH261692   1.343   1.157   2.571 -0.4803 -0.0828 -0.2502
13426TIP3    H161693   1.378   1.246   2.560 -0.3412 -0.2813 -1.5149
13426TIP3    H261694   1.316   1.153   2.663  1.8155  0.4560  0.5155
13427TIP3   OH261695   0.734   4.228  16.379  0.0446 -0.2848  0.6471
13427TIP3    H161696   0.712   4.259  16.291 -1.2865  0.1562  1.1029
13427TIP3    H261697   0.692   4.142  16.385 -0.9909  0.2352  1.2686
13428TIP3   OH261698   6.017   1.123   0.029 -0.4864 -0.1615  0.3792
13428TIP3    H161699   5.925   1.136   0.053  0.0887 -1.6242  3.9863
13428TIP3    H261700   6.063   1.197   0.068  0.1230 -0.7309  0.7718
13429TIP3   OH261701   3.269   4.909  13.236 -0.3047 -0.2029 -0.0088
13429TIP3    H161702   3.258   4.818  13.208 -0.5367 -0.9668  2.3879
13429TIP3    H261703   3.364   4.919  13.245 -0.3213 -0.4191  0.3986
13430TIP3   OH261704   3.240   5.262  10.625 -1.0841 -0.0159  0.1452
13430TIP3    H161705   3.176   5.214  10.678 -1.6822 -1.3221 -1.6511
13430TIP3    H261706   3.189   5.332  10.585 -0.8436  0.4066  0.5778
13431TIP3   OH261707   4.368   0.279  16.710 -0.0893  0.0640 -0.1687
13431TIP3    H161708   4.355   0.256  16.802  0.6789  1.2666  0.2535
13431TIP3    H261709   4.359   0.374  16.707 -0.2933  0.0240 -1.3758
13432TIP3   OH261710   3.767   4.098  16.961  0.6480 -0.1089 -0.2177
13432TIP3    H161711   3.742   4.007  16.981  0.3388  0.0401  0.0935
13432TIP3    H261712   3.812   4.093  16.877  0.9070 -0.5948 -0.0550
13433TIP3   OH261713   4.656   5.243  11.514  0.1612 -0.4101 -0.1440
13433TIP3    H161714   4.635   5.337  11.511 -0.5068 -0.5838 -1.9418
13433TIP3    H261715   4.747   5.241  11.546  0.2823  0.8536 -0.3302
13434TIP3   OH261716   4.629   4.496  17.237  0.2706  0.0694 -0.4429
13434TIP3    H161717   4.587   4.508  17.322 -1.9428 -0.5055 -1.3950
13434TIP3    H261718   4.681   4.416  17.247  0.4220  0.2753  0.5101
13435TIP3   OH261719   1.547   6.199  11.030 -0.0912  0.0774  0.1690
13435TIP3    H161720   1.639   6.192  11.056 -1.0023 -1.8455  3.4936
13435TIP3    H261721   1.534   6.293  11.012  1.8285  0.9271  2.6623
13436TIP3   OH261722   5.656   0.218  17.002 -0.5858 -0.0843 -0.2835
13436TIP3    H161723   5.724   0.156  17.027 -0.6641  0.6250  1.9316
13436TIP3    H261724   5.680   0.299  17.047 -1.4101  1.0053 -1.7263
13437TIP3   OH261725   5.212   4.984   4.693 -0.4166  0.0834  0.2212
13437TIP3    H161726   5.133   4.942   4.727 -0.5214  1.5224  1.8849
13437TIP3    H261727   5.284   4.934   4.730 -0.5505  0.3975  0.9222
13438TIP3   OH261728   1.996   0.333   2.038  0.4825  0.3378 -0.4483
13438TIP3    H161729   1.917   0.342   2.092  1.0789  1.3331  0.2953
13438TIP3    H261730   1.967   0.352   1.949 -0.8741 -2.9328 -0.8257
13439TIP3   OH261731   6.193   4.072  12.014 -0.3784 -0.1318 -0.0335
13439TIP3    H161732   6.194   4.078  12.110  2.6766  2.0568 -0.0590
13439TIP3    H261733   6.109   4.111  11.989 -0.7717  0.2468  1.7138
13440TIP3   OH261734   1.372   6.044   1.306  0.3779 -0.3909  0.5777
13440TIP3    H161735   1.349   5.959   1.343 -3.8846  0.4044  0.2946
13440TIP3    H261736   1.375   6.029   1.211 -1.8778 -0.0985  0.3938
13441TIP3   OH261737   1.990   0.501  11.874 -0.2920 -0.5793  0.4292
13441TIP3    H161738   2.033   0.586  11.869  2.4249 -1.8650  0.0649
13441TIP3    H261739   1.918   0.508  11.812  2.7497  0.0457 -3.4753
13442TIP3   OH261740   6.021   1.783   1.107  0.4409 -0.2246  0.0417
13442TIP3    H161741   6.059   1.850   1.164  0.0594 -0.6593  0.8267
13442TIP3    H261742   5.926   1.792   1.120  0.3547 -0.3972 -0.4485
13443TIP3   OH261743   2.763   3.423   1.606 -0.2224  1.1217  0.0228
13443TIP3    H161744   2.673   3.454   1.611 -1.1062 -0.9186 -1.6004
13443TIP3    H261745   2.768   3.351   1.670 -0.7807 -0.8414 -1.9926
13444TIP3   OH261746   4.655   1.790  14.166 -0.1732 -0.0570 -0.1786
13444TIP3    H161747   4.725   1.727  14.180 -0.4526 -0.4203 -0.4060
13444TIP3    H261748   4.674   1.827  14.079  0.2285  0.4840  0.1323
13445TIP3   OH261749   6.188   4.298  12.659  0.3746 -0.1153 -0.2057
13445TIP3    H161750   6.229   4.366  12.712 -0.1221  0.3844 -0.4568
13445TIP3    H261751   6.098   4.293  12.692  0.4325 -0.7256 -0.1201
13446TIP3   OH261752   4.999   3.110   2.678  0.2739 -0.0086  0.5398
13446TIP3    H161753   5.023   3.111   2.771 -1.5604 -0.7913  1.0665
13446TIP3    H261754   5.016   3.020   2.649  0.5239  0.1454  0.1994
13447TIP3   OH261755   4.154   2.546   2.278 -0.5135 -0.0448 -0.0351
13447TIP3    H161756   4.134   2.462   2.235 -1.1907 -0.6754  1.4409
13447TIP3    H261757   4.125   2.534   2.368  0.1528  1.5107  0.4150
13448TIP3   OH261758   0.354   3.207  11.031  0.3040  0.1298 -0.0598
13448TIP3    H161759   0.430   3.245  10.986  0.4840  0.1965  0.2974
13448TIP3    H261760   0.279   3.231  10.976  0.3875  1.1892  0.2575
13449TIP3   OH261761   6.599   2.377   5.115 -0.3908 -0.1878 -0.4420
13449TIP3    H161762   6.629   2.433   5.187 -1.0718 -0.7125  0.2539
13449TIP3    H261763   6.511   2.408   5.095 -0.1526  0.0467 -1.1498
13450TIP3   OH261764   6.190   1.436  15.760  0.3788  0.0764  0.1694
13450TIP3    H161765   6.256   1.505  15.769 -0.1199  0.6090 -0.1516
13450TIP3    H261766   6.118   1.465  15.816  1.1122 -1.4119  1.9985
13451TIP3   OH261767   0.986   0.352   3.129  0.1443 -0.5343  0.6591
13451TIP3    H161768   0.913   0.308   3.172 -0.5252 -1.1095 -0.9737
13451TIP3    H261769   1.016   0.417   3.192 -1.6566 -0.4167  1.4421
13452TIP3   OH261770   0.348   3.263   1.309 -0.7119 -0.6980 -0.1958
13452TIP3    H161771   0.393   3.279   1.226  0.4050 -3.4828 -0.2662
13452TIP3    H261772   0.257   3.247   1.285  0.0902 -4.3897 -1.4559
13453TIP3   OH261773   4.757   0.166   6.525  0.5670  0.2916  0.2678
13453TIP3    H161774   4.757   0.089   6.468  0.5310  1.8914 -2.0390
13453TIP3    H261775   4.845   0.203   6.516  0.3863  0.8820  0.8337
13454TIP3   OH261776   1.257   3.839   6.742 -0.4928 -0.1215  0.0391
13454TIP3    H161777   1.340   3.817   6.700 -0.4279 -0.8666  0.5166
13454TIP3    H261778   1.262   3.932   6.760  0.0636 -0.0799 -0.3255
13455TIP3   OH261779   0.561   0.095  12.720 -0.7104  0.1824 -0.8260
13455TIP3    H161780   0.528   0.011  12.752  2.4240 -0.7973  0.2254
13455TIP3    H261781   0.620   0.073  12.648 -0.0855  1.5091 -0.7667
13456TIP3   OH261782   0.038   5.349  16.454 -0.3572  0.1725  0.0506
13456TIP3    H161783   0.111   5.291  16.475  0.7901  1.3991 -0.3601
13456TIP3    H261784   0.054   5.376  16.363  0.0628  2.3460  0.7095
13457TIP3   OH261785   4.213   3.584  12.234  0.0495  0.2669 -0.2136
13457TIP3    H161786   4.215   3.652  12.300  1.9441 -0.4075  0.4799
13457TIP3    H261787   4.295   3.594  12.186  0.9131 -2.1346  0.6060
13458TIP3   OH261788   2.653   3.157  12.437 -0.3735  0.6807  0.2886
13458TIP3    H161789   2.577   3.100  12.423 -1.1705  1.4717  1.2475
13458TIP3    H261790   2.706   3.111  12.502 -0.3546  0.4235  0.0921
13459TIP3   OH261791   2.230   5.579   1.510 -0.5276 -0.1022  0.6018
13459TIP3    H161792   2.272   5.662   1.533 -0.1699 -0.3230  0.7726
13459TIP3    H261793   2.220   5.582   1.415  0.2032 -0.1863  0.5149
13460TIP3   OH261794   4.763   4.600  16.728 -0.4185 -0.2830  0.1084
13460TIP3    H161795   4.841   4.556  16.695 -0.8765 -0.8108 -0.3055
13460TIP3    H261796   4.702   4.529  16.748 -1.2252  0.1447 -0.7035
13461TIP3   OH261797   1.887   0.796   1.503 -0.2333 -0.2147  0.0820
13461TIP3    H161798   1.822   0.862   1.527 -1.7719 -1.9955  1.1516
13461TIP3    H261799   1.906   0.751   1.585  0.7723 -1.0979 -0.6117
13462TIP3   OH261800   0.517   1.554  14.190 -0.4492  0.9540  0.0656
13462TIP3    H161801   0.606   1.542  14.155  0.2346  2.1596  1.3188
13462TIP3    H261802   0.476   1.615  14.129 -0.6988 -0.1429 -0.9176
13463TIP3   OH261803   2.088   3.421  14.855 -0.7133  0.0219 -0.2816
13463TIP3    H161804   2.060   3.508  14.882 -0.1162 -0.1630  1.0346
13463TIP3    H261805   2.010   3.381  14.817 -0.8020  1.3896 -1.6681
13464TIP3   OH261806   6.077   3.405   6.078 -0.5319 -0.1952 -0.0072
13464TIP3    H161807   6.029   3.407   6.160  0.9325  1.1966  0.8811
13464TIP3    H261808   6.157   3.356   6.097  0.7230  1.7303  0.0070
13465TIP3   OH261809   5.110   4.150   0.701  0.1769 -0.3896 -0.0658
13465TIP3    H161810   5.061   4.083   0.748 -0.3763 -0.8723 -1.2770
13465TIP3    H261811   5.086   4.232   0.744 -2.0472 -0.5597 -0.8521
13466TIP3   OH261812   2.677   6.494  13.371  0.3417 -0.4951 -0.0287
13466TIP3    H161813   2.645   6.555  13.437 -1.4999  0.0864 -1.3855
13466TIP3    H261814   2.737   6.545  13.317 -0.0528 -0.2787 -0.2673
13467TIP3   OH261815   4.670   5.208   0.757 -0.4141  0.4554 -1.0505
13467TIP3    H161816   4.759   5.237   0.737 -1.0203  0.8353 -3.5076
13467TIP3    H261817   4.647   5.148   0.686 -1.9768  0.0067 -0.2187
13468TIP3   OH261818   0.666   3.730   1.307 -0.4620 -0.5382  0.2609
13468TIP3    H161819   0.658   3.759   1.398 -1.2343  0.8839 -0.2171
13468TIP3    H261820   0.731   3.789   1.268  0.6469 -1.8127  0.1331
13469TIP3   OH261821   0.832   6.650   1.702  0.3237 -0.3476 -0.5193
13469TIP3    H161822   0.765   6.600   1.655  0.7075 -2.4131  0.9664
13469TIP3    H261823   0.791   6.734   1.722 -1.5986 -1.3069 -0.2332
13470TIP3   OH261824   4.461   4.960  16.994 -0.3454 -0.6632  0.2998
13470TIP3    H161825   4.519   5.036  16.995 -0.6719 -0.4014 -0.1152
13470TIP3    H261826   4.517   4.888  16.964 -0.4262 -0.2398 -0.9313
13471TIP3   OH261827   4.901   2.754   6.624 -0.3708  0.3197  0.2875
13471TIP3    H161828   4.957   2.772   6.549  1.0322 -1.3649  0.8467
13471TIP3    H261829   4.948   2.792   6.699  0.0407 -0.9935  0.7409
13472TIP3   OH261830   3.255   4.381  14.119 -0.5786  0.6449  0.2266
13472TIP3    H161831   3.327   4.364  14.058  1.0277  2.4764  1.5228
13472TIP3    H261832   3.184   4.412  14.063 -0.4616 -1.2696 -1.0833
13473TIP3   OH261833   2.277   5.942   3.615  0.1476  0.7064  0.5699
13473TIP3    H161834   2.351   6.002   3.625  0.3773  0.4565  0.3684
13473TIP3    H261835   2.311   5.858   3.645 -0.1488  0.6565  0.7677
13474TIP3   OH261836   4.145   3.034  16.162 -0.6821 -0.0831 -0.0813
13474TIP3    H161837   4.068   2.984  16.135 -1.5758  2.3886 -2.6412
13474TIP3    H261838   4.110   3.112  16.204  0.4192  0.6524 -0.4736
13475TIP3   OH261839   3.032   5.352   2.451  0.5846  0.0345 -0.2739
13475TIP3    H161840   3.011   5.326   2.362 -0.3248 -1.5245  0.3584
13475TIP3    H261841   3.122   5.322   2.464  0.2905 -0.8414 -0.2636
13476TIP3   OH261842   1.708   5.328  13.055 -0.2873 -0.2922 -0.0591
13476TIP3    H161843   1.715   5.357  12.964  0.3844  0.8071  0.3125
13476TIP3    H261844   1.685   5.408  13.103 -0.5908 -0.8504  0.7416
13477TIP3   OH261845   4.595   0.767  15.026  0.2507  0.1954  0.1097
13477TIP3    H161846   4.596   0.679  14.988  0.1070  0.8646 -1.4841
13477TIP3    H261847   4.685   0.781  15.055  0.6606  0.1412 -1.1049
13478TIP3   OH261848   1.640   1.889   3.913  0.0648  0.4374 -0.6918
13478TIP3    H161849   1.673   1.977   3.898 -0.1589  0.5005 -0.8007
13478TIP3    H261850   1.569   1.899   3.976  0.7569  0.2141  0.1537
13479TIP3   OH261851   5.206   4.155  15.786  0.0044 -0.0978 -0.1907
13479TIP3    H161852   5.255   4.107  15.853 -1.2501 -1.0535  0.0903
13479TIP3    H261853   5.272   4.203  15.737  1.0340  0.0299  1.2593
13480TIP3   OH261854   2.368   6.357   1.243  0.3704  0.4854 -0.9182
13480TIP3    H161855   2.442   6.383   1.187  1.8210 -0.5483  0.4569
13480TIP3    H261856   2.325   6.286   1.194  1.1212  0.1513 -1.1080
13481TIP3   OH261857   5.003   5.290  13.092  0.2107 -0.1475  0.6835
13481TIP3    H161858   4.922   5.281  13.143 -0.4689  1.7460  0.0414
13481TIP3    H261859   5.071   5.307  13.158 -0.4172  0.9000  1.0907
13482TIP3   OH261860   4.475   4.974   6.111 -0.1290 -0.2411  0.4708
13482TIP3    H161861   4.535   5.028   6.059 -0.4362  0.6676  1.0444
13482TIP3    H261862   4.475   4.889   6.067 -1.2675  0.8161 -1.7341
13483TIP3   OH261863   2.012   3.079  16.112 -0.3347 -0.4435 -0.0376
13483TIP3    H161864   2.019   3.093  16.207 -0.7249 -1.8339  0.2228
13483TIP3    H261865   2.097   3.104  16.078  0.2504 -1.1234  0.8652
13484TIP3   OH261866   4.976   4.956   3.188 -0.7405  0.0138  0.4033
13484TIP3    H161867   5.021   4.888   3.239  0.5720  1.3200  1.0409
13484TIP3    H261868   4.953   4.912   3.106  1.0486 -0.9167  0.3499
13485TIP3   OH261869   5.742   5.499  12.021 -0.4240 -0.1099  0.4998
13485TIP3    H161870   5.788   5.564  12.074  1.5914 -0.5134 -0.6436
13485TIP3    H261871   5.783   5.416  12.044 -0.0422 -0.3881 -1.1085
13486TIP3   OH261872   5.305   2.550   3.226 -0.0015  0.3103  0.1671
13486TIP3    H161873   5.215   2.541   3.257 -0.6246  1.1286 -1.3496
13486TIP3    H261874   5.302   2.527   3.133  0.8074  2.8909 -0.5858
13487TIP3   OH261875   2.884   2.230   0.816  0.0516  0.2339 -0.4465
13487TIP3    H161876   2.834   2.151   0.836 -1.5980  0.8498 -1.8627
13487TIP3    H261877   2.820   2.301   0.821  0.7324  1.0634 -2.3263
13488TIP3   OH261878   3.336   4.504  16.591 -0.7275  0.2045 -0.2532
13488TIP3    H161879   3.294   4.482  16.508  0.2456 -0.6304 -0.5538
13488TIP3    H261880   3.383   4.424  16.616  1.6357  1.4007 -0.5454
13489TIP3   OH261881   0.156   1.844   4.705 -0.0856  0.5794  0.1091
13489TIP3    H161882   0.251   1.847   4.715  0.1064  1.0287 -1.5843
13489TIP3    H261883   0.123   1.905   4.771  0.7887  0.3622  0.7587
13490TIP3   OH261884   0.365   2.830  16.736  0.0915  0.0687  0.6087
13490TIP3    H161885   0.370   2.854  16.829 -1.0003  0.8304  0.4889
13490TIP3    H261886   0.457   2.820  16.709  0.4120 -0.9863  1.9598
13491TIP3   OH261887   1.501   4.844   5.476 -0.4093  0.1217 -0.5215
13491TIP3    H161888   1.530   4.815   5.389  1.0523  0.4570 -0.1726
13491TIP3    H261889   1.411   4.875   5.462 -0.4172 -0.4041 -1.7866
13492TIP3   OH261890   2.849   5.330   5.518 -0.4282  0.3985  0.0765
13492TIP3    H161891   2.805   5.326   5.433  1.1079  0.7302 -0.7756
13492TIP3    H261892   2.785   5.369   5.576 -1.5812  0.0082 -0.8899
13493TIP3   OH261893   3.010   0.711   4.465  0.1511 -0.1181  0.2138
13493TIP3    H161894   3.024   0.663   4.384 -1.0165 -0.3367  0.1256
13493TIP3    H261895   2.947   0.658   4.514 -1.1061  1.2655  0.1503
13494TIP3   OH261896   4.730   2.344   5.487  0.0688 -0.5738  0.0335
13494TIP3    H161897   4.748   2.411   5.420  0.3440  0.3689  1.0298
13494TIP3    H261898   4.636   2.329   5.481  0.2034 -1.0792 -1.0882
13495TIP3   OH261899   3.724   4.936  16.079  0.6120  0.7412  0.3750
13495TIP3    H161900   3.662   4.979  16.020 -0.2063  1.5898  1.8269
13495TIP3    H261901   3.806   4.934  16.029  0.7319  4.0954  0.2537
13496TIP3   OH261902   2.850   4.504   5.479 -0.1959  0.8782  0.4220
13496TIP3    H161903   2.832   4.584   5.429  0.0950  1.7845  1.7319
13496TIP3    H261904   2.857   4.533   5.570  0.9074 -0.4895  0.8109
13497TIP3   OH261905   0.821   4.328   3.282 -0.2906  0.2790  0.5175
13497TIP3    H161906   0.783   4.249   3.322 -1.0206 -0.4810 -1.5354
13497TIP3    H261907   0.749   4.365   3.231  0.6219  1.1249 -0.1762
13498TIP3   OH261908   4.799   3.579  13.598  0.5124 -0.8389 -0.0892
13498TIP3    H161909   4.791   3.518  13.525  1.9378 -1.3376  0.1319
13498TIP3    H261910   4.711   3.613  13.612  0.0475 -1.4459 -1.4259
13499TIP3   OH261911   5.324   1.013  12.521  0.3222  0.3031  0.2331
13499TIP3    H161912   5.353   0.972  12.602  1.0291  2.0269  0.9100
13499TIP3    H261913   5.279   1.092  12.550  0.8820  1.1235 -1.0575
13500TIP3   OH261914   4.503   5.217  17.202 -0.2347 -0.3253  0.0422
13500TIP3    H161915   4.500   5.134  17.250  0.2297 -1.1063 -1.2205
13500TIP3    H261916   4.590   5.217  17.161 -0.5470  0.4028 -0.6247
13501TIP3   OH261917   5.904   3.028   2.422  0.7761 -0.4401 -0.2514
13501TIP3    H161918   5.917   2.993   2.510 -4.2945  1.0259  1.3986
13501TIP3    H261919   5.874   2.953   2.371  2.3403 -0.9999 -0.3908
13502TIP3   OH261920   3.854   6.613  10.901  0.4456  0.1251 -0.2237
13502TIP3    H161921   3.888   6.678  10.839  0.7199  1.9128  1.6848
13502TIP3    H261922   3.759   6.624  10.898  0.5080  0.8949  0.3461
13503TIP3   OH261923   0.605   6.510   1.325 -0.4135  0.4778  0.4314
13503TIP3    H161924   0.681   6.565   1.310 -2.5407  2.9728 -2.2960
13503TIP3    H261925   0.612   6.440   1.260  0.3644 -0.3030  1.3356
13504TIP3   OH261926   2.804   5.409  14.610  0.3969 -0.6983 -0.0245
13504TIP3    H161927   2.824   5.362  14.529 -0.0754 -0.4948 -0.2592
13504TIP3    H261928   2.881   5.466  14.624 -0.6830  1.3783 -1.8656
13505TIP3   OH261929   5.903   4.561  14.726 -0.1088 -0.1026  0.0508
13505TIP3    H161930   5.943   4.505  14.660  0.6260  0.7026 -0.1968
13505TIP3    H261931   5.927   4.520  14.809  0.5962 -0.0608 -0.1223
13506TIP3   OH261932   1.422   5.367  16.085 -0.1200 -0.0211 -0.0782
13506TIP3    H161933   1.493   5.339  16.027  1.0943 -1.2318  1.8821
13506TIP3    H261934   1.434   5.461  16.093  0.7985 -0.0981 -0.3690
13507TIP3   OH261935   3.486   2.991  17.213 -0.4608  0.3588 -0.0437
13507TIP3    H161936   3.524   3.038  17.139  0.6913  0.3276  0.5034
13507TIP3    H261937   3.526   2.904  17.209 -1.5982 -0.1718 -0.2979
13508TIP3   OH261938   3.531   0.730   3.890 -0.1936  0.5199  0.4406
13508TIP3    H161939   3.622   0.756   3.900 -0.4063  1.8319 -0.8288
13508TIP3    H261940   3.500   0.778   3.813 -2.1553  0.6423  1.2550
13509TIP3   OH261941   4.865   2.117   5.007 -0.1511 -0.2726 -0.3389
13509TIP3    H161942   4.912   2.190   5.048  1.8149 -1.6845  0.0326
13509TIP3    H261943   4.934   2.060   4.974 -1.6254 -0.2689 -3.8115
13510TIP3   OH261944   1.625   6.195  16.197  0.2039  0.0583  0.0966
13510TIP3    H161945   1.630   6.164  16.107  4.9734  0.6126 -0.0903
13510TIP3    H261946   1.568   6.272  16.193 -0.2495 -0.3265 -2.2953
13511TIP3   OH261947   6.236   2.039   5.890 -0.1559 -0.5722  0.2189
13511TIP3    H161948   6.292   2.112   5.915 -2.1425  1.5244 -1.0544
13511TIP3    H261949   6.204   2.003   5.972  2.2950 -1.2777  0.9304
13512TIP3   OH261950   5.309   1.991   3.895 -0.8551 -0.1866 -0.5558
13512TIP3    H161951   5.244   2.019   3.830  0.1422 -3.1842 -3.1020
13512TIP3    H261952   5.260   1.936   3.956 -1.3265  0.4035 -0.4027
13513TIP3   OH261953   5.405   2.642   2.148 -0.4441 -0.0102  0.3558
13513TIP3    H161954   5.498   2.664   2.155 -0.5197  0.2299  0.6151
13513TIP3    H261955   5.384   2.660   2.056  0.3282 -2.3389 -0.3555
13514TIP3   OH261956   1.880   4.580   3.348 -0.7337  0.1127 -0.5749
13514TIP3    H161957   1.890   4.492   3.382 -0.3030  0.3679 -0.0145
13514TIP3    H261958   1.799   4.613   3.388  0.0068  0.5750  0.6168
13515TIP3   OH261959   3.226   5.699   1.615 -0.3903  0.3740  0.2627
13515TIP3    H161960   3.251   5.709   1.707 -1.7374  0.5110  0.6348
13515TIP3    H261961   3.165   5.770   1.598 -0.5362  0.0577 -0.6063
13516TIP3   OH261962   2.392   1.875  15.742 -0.5185 -0.0314 -0.1265
13516TIP3    H161963   2.460   1.874  15.809 -1.9633  0.1647  1.3932
13516TIP3    H261964   2.414   1.951  15.688  1.0174 -0.5539 -0.3042
13517TIP3   OH261965   1.411   3.155   3.907  0.5843 -0.3580 -0.2099
13517TIP3    H161966   1.465   3.214   3.960  1.4563 -0.7637 -0.6271
13517TIP3    H261967   1.435   3.174   3.817 -2.0537  1.4668 -0.6430
13518TIP3   OH261968   4.871   0.081  15.556 -0.1677  0.0339  0.2545
13518TIP3    H161969   4.947   0.026  15.575  0.1897  0.9126  1.4949
13518TIP3    H261970   4.870   0.089  15.461  0.1248 -1.6004  0.0816
13519TIP3   OH261971   2.871   4.333   2.206 -0.0838 -0.4005 -0.3000
13519TIP3    H161972   2.917   4.411   2.238 -0.2571 -0.4335  0.0235
13519TIP3    H261973   2.916   4.260   2.248 -1.0378 -0.3924  0.7838
13520TIP3   OH261974   4.749   4.381   3.966 -0.8206 -0.8184  0.4742
13520TIP3    H161975   4.818   4.330   3.924 -1.8704 -0.1178 -2.2756
13520TIP3    H261976   4.691   4.317   4.006  0.6020 -1.4662  1.6103
13521TIP3   OH261977   1.615   4.463  11.485  0.4936 -0.3191 -0.4305
13521TIP3    H161978   1.579   4.381  11.519  0.4118 -0.1011  0.0271
13521TIP3    H261979   1.705   4.442  11.462 -0.1072 -1.0491 -2.2593
13522TIP3   OH261980   3.654   4.737   2.342 -0.3805 -0.5640 -0.1154
13522TIP3    H161981   3.606   4.808   2.387  0.1580 -0.0719 -0.3059
13522TIP3    H261982   3.654   4.764   2.250  0.1326 -0.6334 -0.1356
13523TIP3   OH261983   5.206   5.119   2.255 -0.1837 -0.3146 -0.3150
13523TIP3    H161984   5.135   5.074   2.300 -0.3242  0.1896 -0.0210
13523TIP3    H261985   5.280   5.058   2.258 -0.2941 -0.4195  0.2952
13524TIP3   OH261986   5.560   3.281   1.090  0.2969 -0.3285  0.0832
13524TIP3    H161987   5.496   3.215   1.116  0.2505 -0.3826 -0.1664
13524TIP3    H261988   5.594   3.250   1.006  1.3841 -0.8172  0.6902
13525TIP3   OH261989   0.506   0.118  13.459 -0.4182 -0.5657 -0.2380
13525TIP3    H161990   0.544   0.169  13.530  1.8524 -0.7224 -1.2430
13525TIP3    H261991   0.519   0.172  13.381 -2.2684 -0.6777 -0.6715
13526TIP3   OH261992   1.190   5.560   3.996 -0.2069 -0.1216  0.0608
13526TIP3    H161993   1.209   5.506   4.073  3.1229 -0.5094 -0.8817
13526TIP3    H261994   1.113   5.518   3.957 -0.5701 -1.3052  1.8891
13527TIP3   OH261995   0.533   4.178   4.627  0.6513 -0.1992  0.1104
13527TIP3    H161996   0.439   4.160   4.627  0.7097 -0.5520  1.1215
13527TIP3    H261997   0.541   4.264   4.586 -0.1844  0.1773  0.7113
13528TIP3   OH261998   5.950   5.712  16.975  0.2035 -0.5187 -0.6512
13528TIP3    H161999   5.955   5.733  17.069 -0.6939 -4.1426  0.3763
13528TIP3    H262000   6.031   5.664  16.957 -0.8855 -2.3803 -0.8790
13529TIP3   OH262001   4.110   6.581   0.950 -0.0821  0.0487 -0.0762
13529TIP3    H162002   4.160   6.502   0.968 -1.4876 -1.2783 -1.6329
13529TIP3    H262003   4.030   6.550   0.908 -0.6850  2.3011 -0.7612
13530TIP3   OH262004   1.426   0.046  16.591  0.0779 -0.0557 -0.1430
13530TIP3    H162005   1.473   0.100  16.655  0.8075  0.3218 -0.9697
13530TIP3    H262006   1.486  -0.027  16.573 -0.7542 -0.9888  0.7058
13531TIP3   OH262007   5.846   2.188  13.866  0.3366  0.2796  0.0970
13531TIP3    H162008   5.815   2.277  13.850 -1.1069 -0.0567  0.8704
13531TIP3    H262009   5.934   2.199  13.901 -0.0006  1.4185  0.6329
13532TIP3   OH262010   5.148   6.080  12.430  0.5255  0.4259 -0.1699
13532TIP3    H162011   5.236   6.104  12.459  0.8608 -1.9443  1.0562
13532TIP3    H262012   5.160   6.039  12.345  0.4814  0.8651 -0.3900
13533TIP3   OH262013   6.153   1.883   6.100 -0.0029 -0.4958  0.5339
13533TIP3    H162014   6.059   1.894   6.093  0.1415  0.7561  0.3005
13533TIP3    H262015   6.170   1.872   6.193 -0.3323 -0.1959  0.6275
13534TIP3   OH262016   4.462   2.123  15.847  0.0757  0.2426 -0.0360
13534TIP3    H162017   4.385   2.087  15.891  0.4612 -0.4636  0.0783
13534TIP3    H262018   4.527   2.134  15.916  0.8608 -1.3647 -0.4716
13535TIP3   OH262019   4.488   1.481   3.225 -0.2669 -0.3921  0.4715
13535TIP3    H162020   4.433   1.415   3.181 -0.0073 -2.5884  3.1592
13535TIP3    H262021   4.540   1.519   3.154 -1.5988 -1.8822 -1.4528
13536TIP3   OH262022   0.230   3.371  14.933 -0.0193 -0.5840 -0.2565
13536TIP3    H162023   0.177   3.444  14.967  0.4025 -0.6259  0.5243
13536TIP3    H262024   0.196   3.356  14.845  0.2789  0.9507 -0.6733
13537TIP3   OH262025   3.351   1.041   4.522  0.4689  0.5615  0.0337
13537TIP3    H162026   3.309   1.028   4.437  0.4810  1.5511 -0.1423
13537TIP3    H262027   3.420   0.976   4.526 -0.0327 -0.0012 -0.3822
13538TIP3   OH262028   3.892   1.510   2.645  0.5465  0.4376  0.8224
13538TIP3    H162029   3.824   1.498   2.712  0.1791 -0.3823  0.3263
13538TIP3    H262030   3.858   1.578   2.587  0.1718  0.0893  0.6250
13539TIP3   OH262031   1.606   0.061   4.874  0.2281 -0.3399 -0.2550
13539TIP3    H162032   1.637   0.070   4.964 -3.3029  3.5881  0.9213
13539TIP3    H262033   1.666   0.115   4.823  0.3775  0.0901  0.3591
13540TIP3   OH262034   1.627   2.515   0.016 -0.3629  0.2287  0.0012
13540TIP3    H162035   1.565   2.556  -0.045  0.1193  2.0750  0.6766
13540TIP3    H262036   1.712   2.526  -0.025 -0.1009  0.9675  0.7083
13541TIP3   OH262037   6.139   6.261  15.507 -0.1333 -0.3664 -0.6300
13541TIP3    H162038   6.196   6.329  15.472  1.1160 -1.3380 -0.5536
13541TIP3    H262039   6.157   6.185  15.452  0.1336 -1.2538  0.6471
13542TIP3   OH262040   0.310   4.370   0.379 -0.4703  0.2907  0.5020
13542TIP3    H162041   0.354   4.427   0.443 -0.9693  0.0625  1.0601
13542TIP3    H262042   0.377   4.351   0.314 -0.2292  1.3590  0.4071
13543TIP3   OH262043   3.749   2.217   5.912 -0.1415 -0.0889 -0.0256
13543TIP3    H162044   3.694   2.288   5.879 -1.1855 -0.8514  0.0375
13543TIP3    H262045   3.716   2.200   6.001  0.6242 -0.1240  0.2628
13544TIP3   OH262046   3.679   6.241   4.654 -0.3717  0.2045  0.2103
13544TIP3    H162047   3.684   6.189   4.734 -0.3787 -0.3830 -0.1630
13544TIP3    H262048   3.768   6.277   4.644 -0.8578  1.9035  1.5197
13545TIP3   OH262049   0.903   4.573  11.771  0.0535  0.0005 -0.4250
13545TIP3    H162050   0.894   4.629  11.849  0.6997  0.4087 -0.6325
13545TIP3    H262051   0.910   4.635  11.699 -0.1351 -0.3737 -0.7675
13546TIP3   OH262052   4.141   0.110  16.719  0.5019  0.0633 -0.3142
13546TIP3    H162053   4.206   0.177  16.698  0.9761 -0.3813 -0.2843
13546TIP3    H262054   4.166   0.034  16.666 -1.3262  0.5885 -2.0846
13547TIP3   OH262055   5.658   6.772  13.379 -0.5555 -0.5311  0.2629
13547TIP3    H162056   5.696   6.814  13.302 -1.3072  0.1495  0.2505
13547TIP3    H262057   5.655   6.842  13.445 -0.8169 -0.8522  0.5911
13548TIP3   OH262058   5.919   6.135   3.774 -0.0582 -0.1656  0.0607
13548TIP3    H162059   5.999   6.146   3.722 -0.5038 -0.3582 -0.6815
13548TIP3    H262060   5.907   6.040   3.779  1.0801 -0.2420  2.2538
13549TIP3   OH262061   3.661   0.106  13.722 -0.3453 -0.4817  0.3279
13549TIP3    H162062   3.692   0.170  13.787 -1.0833  0.3469 -0.1064
13549TIP3    H262063   3.591   0.152  13.674  0.9339 -0.6242 -1.8328
13550TIP3   OH262064   2.797   4.173   1.689  0.1313 -0.0356  0.1533
13550TIP3    H162065   2.794   4.268   1.693  0.7061 -0.0635  2.5626
13550TIP3    H262066   2.730   4.149   1.626  1.0745  2.0019 -1.7555
13551TIP3   OH262067   6.499   3.142   4.469  0.2137 -0.3981  0.2477
13551TIP3    H162068   6.482   3.224   4.422  1.1613 -0.9416 -1.1163
13551TIP3    H262069   6.456   3.154   4.554 -1.2433  0.7787 -0.5997
13552TIP3   OH262070   0.362   5.416  14.484  0.2082 -0.3958 -0.2544
13552TIP3    H162071   0.336   5.333  14.523 -0.3561 -0.3927 -0.6139
13552TIP3    H262072   0.457   5.409  14.473  0.0481 -1.3623 -1.1420
13553TIP3   OH262073   0.582   6.742   2.457 -0.5714  0.3112 -0.3229
13553TIP3    H162074   0.507   6.692   2.426  0.9356 -2.8318  0.7165
13553TIP3    H262075   0.623   6.686   2.522  2.4890  2.0191 -0.5976
13554TIP3   OH262076   3.517   1.667  12.840 -0.2258 -0.0512  0.2991
13554TIP3    H162077   3.504   1.672  12.934 -0.5261  0.7330  0.2237
13554TIP3    H262078   3.437   1.627  12.806  0.4085 -1.5452  0.4865
13555TIP3   OH262079   4.415   6.081  11.145  0.1682 -0.0769 -0.0332
13555TIP3    H162080   4.356   6.067  11.220  0.6215  0.3724  0.4166
13555TIP3    H262081   4.381   6.161  11.104 -1.0027 -1.1374 -1.2233
13556TIP3   OH262082   2.661   3.243   5.877 -0.6425  0.0465 -0.4632
13556TIP3    H162083   2.603   3.298   5.825 -1.0499 -0.8777 -1.0159
13556TIP3    H262084   2.657   3.157   5.834 -0.2841 -0.4994  0.5720
13557TIP3   OH262085   0.515   6.650   4.321  0.0964  0.0555  0.4762
13557TIP3    H162086   0.439   6.694   4.360  0.2046  2.0507 -1.3545
13557TIP3    H262087   0.485   6.622   4.235  0.8733 -0.9613  0.5200
13558TIP3   OH262088   1.784   4.644  15.230 -0.9499  0.1758  0.6360
13558TIP3    H162089   1.758   4.654  15.321 -0.4903 -2.6964  1.1831
13558TIP3    H262090   1.870   4.686  15.225 -0.0619 -1.3262  2.1020
13559TIP3   OH262091   4.328   5.168   1.051 -0.1839  0.0912  0.4386
13559TIP3    H162092   4.320   5.094   0.992 -1.2374 -0.5543  1.3408
13559TIP3    H262093   4.383   5.137   1.123 -2.4765 -0.6704  1.9838
13560TIP3   OH262094   3.416   5.670   0.398 -0.4676 -0.2366 -0.1038
13560TIP3    H162095   3.353   5.741   0.388  0.2474  0.5088  0.5344
13560TIP3    H262096   3.403   5.615   0.320 -0.0256  1.3918 -1.3853
13561TIP3   OH262097   3.447   0.381  15.795 -0.4535 -0.0891 -0.4957
13561TIP3    H162098   3.365   0.333  15.797 -0.3179 -0.4121 -1.8246
13561TIP3    H262099   3.428   0.459  15.743 -0.7169  1.4581  1.7428
13562TIP3   OH262100   3.450   6.522  14.127 -0.5041  0.6134 -0.2684
13562TIP3    H162101   3.371   6.471  14.110 -0.2662  0.8364 -2.2707
13562TIP3    H262102   3.448   6.593  14.063  1.0408  0.9246 -0.0218
13563TIP3   OH262103   4.788   5.960  11.063  0.1319 -0.2193  1.0422
13563TIP3    H162104   4.812   5.976  11.154  3.5708  0.4594  0.1677
13563TIP3    H262105   4.831   5.878  11.040 -0.9361 -0.5442  0.0954
13564TIP3   OH262106   2.550   5.155  12.679  0.0262  0.2773 -0.2231
13564TIP3    H162107   2.592   5.234  12.645 -1.1294  0.7830 -0.5562
13564TIP3    H262108   2.548   5.095  12.605 -0.9122  0.7178 -0.5720
13565TIP3   OH262109   4.476   3.310   4.033  0.4552  0.2003  0.0376
13565TIP3    H162110   4.548   3.364   4.066 -0.2844  0.0892  1.9972
13565TIP3    H262111   4.514   3.223   4.022  0.7646  0.2781  0.4775
13566TIP3   OH262112   3.518   0.568   3.509 -0.2475  0.5548  0.3553
13566TIP3    H162113   3.505   0.624   3.433 -3.7342 -3.4465 -2.5040
13566TIP3    H262114   3.436   0.575   3.559  0.1041 -0.3715  1.1036
13567TIP3   OH262115   4.289   5.137   1.597  0.5013  0.3379 -0.1076
13567TIP3    H162116   4.276   5.230   1.579 -1.4888 -0.3005 -2.5456
13567TIP3    H262117   4.202   5.098   1.587  1.1704 -1.7556  1.4009
13568TIP3   OH262118   0.433   4.347  11.579  0.3604 -0.0198 -0.1341
13568TIP3    H162119   0.525   4.352  11.607  0.2761 -0.2278  0.1824
13568TIP3    H262120   0.435   4.296  11.499  0.5194 -0.0478 -0.1127
13569TIP3   OH262121   1.417   1.723  13.918 -0.4132  0.1831 -0.1782
13569TIP3    H162122   1.357   1.665  13.963 -0.1926  0.3233  0.3105
13569TIP3    H262123   1.439   1.678  13.836  1.7951 -1.6930  1.3100
13570TIP3   OH262124   3.347   6.591   6.325 -0.3275 -0.0716  0.1503
13570TIP3    H162125   3.343   6.510   6.275  0.8299  0.0107 -0.1100
13570TIP3    H262126   3.273   6.643   6.294 -1.0895 -1.0202  0.3283
13571TIP3   OH262127   0.863   5.486   2.202 -0.3160  0.8034  0.8298
13571TIP3    H162128   0.772   5.513   2.192 -0.7681 -1.2606 -2.3087
13571TIP3    H262129   0.914   5.560   2.169 -0.8947  1.5972  1.6910
13572TIP3   OH262130   6.625   1.924   2.634  0.4891  0.1302 -0.0299
13572TIP3    H162131   6.560   1.871   2.679 -0.1029  0.8585 -0.0057
13572TIP3    H262132   6.609   1.908   2.541  1.6554 -1.3058 -0.0136
13573TIP3   OH262133   2.371   5.490  14.764  0.5474  0.1703 -0.3902
13573TIP3    H162134   2.397   5.414  14.711  0.5711  0.9518 -1.5529
13573TIP3    H262135   2.417   5.563  14.723  0.3612  0.8431  0.5837
13574TIP3   OH262136   5.125   5.154  15.515  0.0824  0.1286 -0.1310
13574TIP3    H162137   5.124   5.074  15.567  0.2081 -0.7962 -1.4953
13574TIP3    H262138   5.211   5.194  15.532 -0.0028  0.0053  0.5917
13575TIP3   OH262139   2.615   4.990   3.845  0.3883  0.1245 -0.1854
13575TIP3    H162140   2.542   4.968   3.902  0.1694  0.7654 -0.2164
13575TIP3    H262141   2.656   5.066   3.885  1.3076 -0.4798  0.0625
13576TIP3   OH262142   0.219   2.596  16.865 -0.5858 -0.9686  0.4740
13576TIP3    H162143   0.173   2.680  16.861 -0.5125 -0.9788 -1.9935
13576TIP3    H262144   0.291   2.611  16.927  0.1727  1.2107 -0.8232
13577TIP3   OH262145   4.337   6.324   2.186  0.8442 -0.0089 -0.0887
13577TIP3    H162146   4.310   6.262   2.118  0.7223 -1.4489  1.2263
13577TIP3    H262147   4.320   6.410   2.148 -2.4315 -0.7693 -0.6412
13578TIP3   OH262148   3.518   0.581   3.014 -0.4684 -0.6675 -0.4034
13578TIP3    H162149   3.543   0.489   3.001  1.0230 -0.4618  0.7595
13578TIP3    H262150   3.537   0.624   2.931  0.9447 -0.9801 -0.2574
13579TIP3   OH262151   1.800   0.688  14.294 -0.5709  0.2061  1.2176
13579TIP3    H162152   1.796   0.640  14.211 -0.8649  2.1521  0.0305
13579TIP3    H262153   1.893   0.690  14.317 -0.4106  0.1926  0.5807
13580TIP3   OH262154   4.713   1.069  17.299  0.2626  0.1729  0.2806
13580TIP3    H162155   4.789   1.090  17.355  1.5161  0.7727 -1.5580
13580TIP3    H262156   4.735   0.985  17.260 -0.4396 -0.0698  0.3982
13581TIP3   OH262157   5.847   2.678  13.640 -0.0560  0.0349  0.2722
13581TIP3    H162158   5.763   2.671  13.595  0.2414  0.0388 -0.2821
13581TIP3    H262159   5.896   2.744  13.591  0.5647 -0.5135  0.1283
13582TIP3   OH262160   2.405   1.820  16.248 -0.0355 -0.2173 -0.2689
13582TIP3    H162161   2.401   1.909  16.214 -2.0867  0.2413  0.9927
13582TIP3    H262162   2.344   1.771  16.195 -3.0644  0.4488  2.2888
13583TIP3   OH262163   6.251   1.729  16.741 -0.6327 -0.0762 -0.0307
13583TIP3    H162164   6.283   1.683  16.819 -0.7728  0.6824  0.4891
13583TIP3    H262165   6.197   1.800  16.776 -1.1397 -0.0516 -0.8414
13584TIP3   OH262166   3.149   4.621   1.478 -0.8669  0.5819  0.3714
13584TIP3    H162167   3.083   4.556   1.457  1.4258 -2.1201  0.9402
13584TIP3    H262168   3.185   4.647   1.393  0.2194 -1.2268  0.2365
13585TIP3   OH262169   3.247   0.487   3.308  0.0324 -0.1954  0.1149
13585TIP3    H162170   3.258   0.434   3.229  0.1888 -1.1036  0.7231
13585TIP3    H262171   3.307   0.560   3.296 -1.3472  0.7408 -1.4535
13586TIP3   OH262172   4.083   5.540  11.710  0.7032 -0.1199  0.6283
13586TIP3    H162173   4.093   5.467  11.650  0.9042 -1.4461  2.1951
13586TIP3    H262174   4.133   5.611  11.670  0.7322 -0.9015 -0.8044
13587TIP3   OH262175   1.472   4.110  16.971 -0.0796 -0.6348 -0.2825
13587TIP3    H162176   1.524   4.128  16.893  0.7151 -2.9694 -0.3577
13587TIP3    H262177   1.387   4.152  16.953  0.8491  0.8788 -1.3404
13588TIP3   OH262178   3.341   1.300  11.583 -0.0180 -0.1802 -0.0636
13588TIP3    H162179   3.325   1.390  11.555  1.6012  0.5718  1.2099
13588TIP3    H262180   3.271   1.281  11.646  0.3641  0.6860  0.6424
13589TIP3   OH262181   1.856   2.535   2.291 -0.6789  0.2988 -0.3343
13589TIP3    H162182   1.883   2.599   2.357  2.1154 -0.2735 -0.7677
13589TIP3    H262183   1.868   2.581   2.208  1.5116 -0.6988 -0.6611
13590TIP3   OH262184   2.895   0.294  12.357  0.0302 -0.2909 -0.0834
13590TIP3    H162185   2.875   0.295  12.451  0.0408 -0.0755 -0.0837
13590TIP3    H262186   2.957   0.222  12.347  1.0169  0.4811  0.2747
13591TIP3   OH262187   1.717   2.476  15.461 -0.2920  0.4281 -0.4634
13591TIP3    H162188   1.627   2.474  15.491 -0.4086 -0.8977 -0.8257
13591TIP3    H262189   1.758   2.401  15.502  0.9433  1.5800  0.5025
13592TIP3   OH262190   0.234   0.158  10.351 -0.0651  0.2891 -0.8290
13592TIP3    H162191   0.162   0.101  10.379 -0.4406  1.4866  0.8412
13592TIP3    H262192   0.200   0.247  10.363  1.1046  0.8764 -1.6854
13593TIP3   OH262193   6.395   5.321  11.578  0.2118 -0.3509  0.4678
13593TIP3    H162194   6.332   5.263  11.621 -0.1781  0.5845  1.1827
13593TIP3    H262195   6.440   5.365  11.650  0.7871 -0.0715 -0.0595
13594TIP3   OH262196   5.183   2.572   1.214  0.1442  0.3880  0.3895
13594TIP3    H162197   5.232   2.574   1.297  0.2405 -0.9014  0.3833
13594TIP3    H262198   5.117   2.504   1.228 -0.3850  0.7540 -0.3042
13595TIP3   OH262199   6.585   4.833   0.240  0.0625 -0.1199 -0.2999
13595TIP3    H162200   6.677   4.855   0.254  0.4239 -1.0445 -1.0724
13595TIP3    H262201   6.540   4.871   0.315  1.3182 -1.2036  1.0913
13596TIP3   OH262202   1.748   1.637   5.936  0.0546  1.0154  0.3067
13596TIP3    H162203   1.718   1.597   6.018  1.7910 -1.5794 -0.2097
13596TIP3    H262204   1.727   1.572   5.869  3.6851  0.4829 -0.4838
13597TIP3   OH262205   5.703   0.255  14.131  0.1229 -0.2498  0.6932
13597TIP3    H162206   5.790   0.245  14.092  0.9979  2.0361  1.8835
13597TIP3    H262207   5.712   0.328  14.192 -2.9306  0.9148 -0.0473
13598TIP3   OH262208   0.379   3.834  10.701  0.1611 -0.2422 -0.0508
13598TIP3    H162209   0.463   3.793  10.722 -0.1512 -0.4907  0.7862
13598TIP3    H262210   0.371   3.827  10.606  0.8904 -0.5960 -0.0932
13599TIP3   OH262211   2.119   1.853   3.037  0.0349 -0.0627  0.1832
13599TIP3    H162212   2.137   1.930   2.983  0.7406  0.0881  0.6103
13599TIP3    H262213   2.025   1.856   3.053  0.2739  1.6745  1.5746
13600TIP3   OH262214   6.556   5.419  16.594  0.0316  0.1260 -0.3081
13600TIP3    H162215   6.516   5.455  16.514  0.1371  0.4777 -0.2011
13600TIP3    H262216   6.650   5.419  16.576  0.3563  3.0383  0.9405
13601TIP3   OH262217   0.071   4.487   1.980  0.1182  0.0020 -0.4585
13601TIP3    H162218   0.115   4.566   2.010 -0.7093  0.4295 -0.3226
13601TIP3    H262219   0.018   4.516   1.906  0.4332 -0.5962 -0.9276
13602TIP3   OH262220   2.135   2.743   2.986 -0.1500  0.3241 -0.0783
13602TIP3    H162221   2.131   2.827   3.032  0.0226  0.4441 -0.2782
13602TIP3    H262222   2.159   2.679   3.053 -0.2518  0.4401  0.0685
13603TIP3   OH262223   1.388   5.047   4.354  0.1671 -0.3056  0.1449
13603TIP3    H162224   1.404   5.129   4.401  0.0189 -0.4995  0.5301
13603TIP3    H262225   1.296   5.051   4.329 -0.3431 -1.1600  1.7450
13604TIP3   OH262226   3.471   2.257   2.084 -0.4260 -0.5380 -0.8452
13604TIP3    H162227   3.390   2.211   2.105 -0.3178 -0.5748 -0.4928
13604TIP3    H262228   3.508   2.279   2.170  0.4098 -1.3391 -0.9884
13605TIP3   OH262229   1.704   6.118   5.432 -0.3370  0.4251 -0.0003
13605TIP3    H162230   1.680   6.166   5.353  0.0951  0.5946 -0.0322
13605TIP3    H262231   1.744   6.037   5.400 -2.4316 -0.6907  0.0462
13606TIP3   OH262232   6.603   0.619  12.234 -0.2062 -0.4930 -0.0972
13606TIP3    H162233   6.600   0.647  12.326 -0.9739  0.1177 -0.2983
13606TIP3    H262234   6.675   0.670  12.197  0.2830 -0.9402  0.2273
13607TIP3   OH262235   6.470   3.035   1.792  0.3766  0.8417 -0.2585
13607TIP3    H162236   6.562   3.062   1.785  0.6597 -0.1603 -0.4580
13607TIP3    H262237   6.447   3.006   1.704 -0.5559  2.3421 -0.5605
13608TIP3   OH262238   3.828   2.173  16.165 -0.2757 -0.1933 -0.0303
13608TIP3    H162239   3.827   2.091  16.214  1.2701 -1.5698 -2.0831
13608TIP3    H262240   3.894   2.226  16.209  0.9961 -1.3495 -0.4427
13609TIP3   OH262241   6.735   2.849   3.075  0.2580 -0.5948 -0.3591
13609TIP3    H162242   6.754   2.772   3.130 -0.0717  0.9203  2.0250
13609TIP3    H262243   6.803   2.912   3.099 -0.6863  0.5818 -0.7115
13610TIP3   OH262244   5.332   4.294  12.201 -0.3257 -0.3160  0.1939
13610TIP3    H162245   5.264   4.280  12.267 -0.2632  0.7115  0.4946
13610TIP3    H262246   5.326   4.387  12.180  0.8633 -0.2525  0.0732
13611TIP3   OH262247   3.455   3.248   4.567  0.2331  0.3547 -0.2719
13611TIP3    H162248   3.513   3.323   4.579 -0.1295  0.8080 -1.2193
13611TIP3    H262249   3.370   3.278   4.596  0.2934 -0.0459  0.3443
13612TIP3   OH262250   4.299   3.773  12.457 -0.0193  0.2257 -0.1964
13612TIP3    H162251   4.293   3.855  12.408  0.7886  0.7332  0.5284
13612TIP3    H262252   4.385   3.776  12.499  0.9456 -1.9428 -1.7977
13613TIP3   OH262253   3.287   0.624   5.057 -0.6349 -0.2477 -0.3395
13613TIP3    H162254   3.305   0.636   5.151  1.1589 -0.0671 -0.6664
13613TIP3    H262255   3.241   0.705   5.032  1.0904  0.8679 -0.0979
13614TIP3   OH262256   1.875   3.259  12.404 -0.1408 -0.7560  0.3135
13614TIP3    H162257   1.846   3.291  12.319  0.6933  0.5695  0.4890
13614TIP3    H262258   1.893   3.166  12.391 -0.7167 -0.7266 -0.7590
13615TIP3   OH262259   3.470   2.387   3.720 -0.0307  0.4060 -0.1037
13615TIP3    H162260   3.478   2.326   3.793  0.4093 -1.0898 -1.3531
13615TIP3    H262261   3.440   2.469   3.760  0.6498 -0.2278  1.7907
13616TIP3   OH262262   6.426   0.310   6.486 -0.1563  0.0582 -0.1982
13616TIP3    H162263   6.468   0.233   6.526 -1.4769 -0.4929  0.1799
13616TIP3    H262264   6.333   0.300   6.508 -0.4986  1.2057 -1.0722
13617TIP3   OH262265   2.465   4.439  12.251 -0.0559  0.0697 -0.1333
13617TIP3    H162266   2.431   4.360  12.209  0.6255 -0.4685  0.2996
13617TIP3    H262267   2.445   4.427  12.344  2.4917 -0.9472  0.3748
13618TIP3   OH262268   4.842   2.846   0.006  0.0326  0.6020 -0.5090
13618TIP3    H162269   4.861   2.772   0.065 -0.8697  0.8748  0.1476
13618TIP3    H262270   4.911   2.909   0.025  0.0674  0.4582 -0.1422
13619TIP3   OH262271   1.275   1.500  15.746  0.2834 -0.5143  0.4642
13619TIP3    H162272   1.248   1.583  15.706  2.3602  0.8176  1.6529
13619TIP3    H262273   1.255   1.511  15.839  1.5961 -0.8827  0.8022
13620TIP3   OH262274   4.357   4.664   5.444  0.3745  0.3713  0.2920
13620TIP3    H162275   4.386   4.584   5.487 -0.9755 -0.1961  0.1709
13620TIP3    H262276   4.262   4.659   5.443  0.2886  1.5503 -0.5443
13621TIP3   OH262277   1.073   3.627   4.952  0.0893 -0.5994  0.3019
13621TIP3    H162278   1.000   3.685   4.972 -0.4789 -0.7332 -1.2691
13621TIP3    H262279   1.035   3.539   4.948  0.6782 -0.9169  1.2196
13622TIP3   OH262280   3.932   2.489  16.551 -0.5843  0.1562 -0.1835
13622TIP3    H162281   3.927   2.402  16.592  2.6003 -0.3527 -0.5634
13622TIP3    H262282   3.935   2.550  16.625  0.6372 -0.3877  0.2390
13623TIP3   OH262283   5.882   1.301   1.979 -0.4934 -0.8242  0.1876
13623TIP3    H162284   5.799   1.254   1.971 -2.1834  1.8600  0.6930
13623TIP3    H262285   5.896   1.339   1.892 -0.0690 -0.8494  0.2456
13624TIP3   OH262286   6.387   1.701  17.284  0.5857  0.3229 -0.6325
13624TIP3    H162287   6.292   1.705  17.284  0.6157  1.3164 -0.5643
13624TIP3    H262288   6.408   1.610  17.264 -0.3759  0.0526 -0.4362
13625TIP3   OH262289   2.270   3.779  12.314 -0.0621  1.0655  0.6729
13625TIP3    H162290   2.224   3.755  12.394 -0.7782 -1.1067 -0.3317
13625TIP3    H262291   2.362   3.764  12.334 -0.2179  0.7393  1.1606
13626TIP3   OH262292   2.127   6.124   4.533 -0.2193  0.5615  0.0415
13626TIP3    H162293   2.078   6.200   4.501  0.7389  1.2399  0.1680
13626TIP3    H262294   2.099   6.115   4.624  0.0586  1.0972  0.1847
13627TIP3   OH262295   6.239   3.796   6.591 -0.6113 -0.4522 -0.2030
13627TIP3    H162296   6.222   3.797   6.496 -0.0770  1.0560 -0.3085
13627TIP3    H262297   6.299   3.722   6.603  1.6169  1.0435 -1.4957
13628TIP3   OH262298   2.464   1.964  11.589  0.1197 -0.2936  0.5898
13628TIP3    H162299   2.433   2.054  11.603  0.4887 -0.1442  0.4458
13628TIP3    H262300   2.424   1.938  11.505  0.2719 -0.1499  0.4722
13629TIP3   OH262301   1.256   0.173  10.581  0.0068  0.8233 -0.7025
13629TIP3    H162302   1.302   0.219  10.512 -1.4528 -1.1735 -3.1789
13629TIP3    H262303   1.171   0.152  10.543  0.4495 -3.6173  0.2217
13630TIP3   OH262304   6.342   4.573   5.158 -0.0817  0.0098  0.5295
13630TIP3    H162305   6.396   4.495   5.145 -0.0489  0.1069  0.0346
13630TIP3    H262306   6.280   4.570   5.085  1.3851  1.6526 -0.8852
13631TIP3   OH262307   0.488   5.929   4.874  0.1799 -0.3907 -0.9290
13631TIP3    H162308   0.454   6.016   4.896  0.2320 -1.1268  2.7822
13631TIP3    H262309   0.569   5.922   4.924 -0.1576 -2.7792 -0.6017
13632TIP3   OH262310   4.125   1.995  13.996 -0.4949  0.0688 -0.0094
13632TIP3    H162311   4.034   2.017  14.014 -0.0987  2.4062 -0.4521
13632TIP3    H262312   4.175   2.063  14.042  0.9752 -0.6340 -0.5222
13633TIP3   OH262313   3.281   0.916   2.011 -0.5097 -0.4537 -0.0607
13633TIP3    H162314   3.320   0.830   2.029 -0.6216 -0.3094  0.9130
13633TIP3    H262315   3.187   0.900   2.013 -0.5327 -0.2786  0.2751
13634TIP3   OH262316   6.597   4.892   4.481 -0.7580  0.3869  0.0018
13634TIP3    H162317   6.556   4.808   4.462 -1.1215  0.3625  0.8227
13634TIP3    H262318   6.686   4.885   4.446 -0.0389 -1.1835  1.9687
13635TIP3   OH262319   4.510   4.764  14.597  0.3610 -0.2973 -0.4250
13635TIP3    H162320   4.585   4.720  14.637 -0.5732 -0.4701  1.1944
13635TIP3    H262321   4.478   4.823  14.665 -1.9216 -1.3686 -0.4932
13636TIP3   OH262322   2.361   2.890   3.871  0.0851 -0.1777  0.1253
13636TIP3    H162323   2.322   2.832   3.805  1.0983 -0.8796  0.1240
13636TIP3    H262324   2.330   2.977   3.847 -1.0652 -0.6551 -0.1688
13637TIP3   OH262325   3.996   3.183   1.958 -0.0928  0.3830  0.1739
13637TIP3    H162326   3.932   3.121   1.923 -0.0790  0.4274  0.0723
13637TIP3    H262327   4.024   3.235   1.883 -1.0509  1.3624  0.4582
13638TIP3   OH262328   5.740   1.870  10.893 -0.7484  0.4038 -0.1935
13638TIP3    H162329   5.709   1.839  10.808 -0.1321 -1.2648  0.1430
13638TIP3    H262330   5.665   1.860  10.951 -0.4951 -0.7422 -0.0408
13639TIP3   OH262331   4.825   1.301   2.216  0.7111  0.0999  0.0033
13639TIP3    H162332   4.752   1.240   2.209  2.5275 -2.1108 -0.9793
13639TIP3    H262333   4.796   1.379   2.168 -1.9334  0.4010  1.8690
13640TIP3   OH262334   6.377   5.052   4.496 -0.0101  0.3702  0.0615
13640TIP3    H162335   6.311   4.994   4.458 -0.8584  1.0555  0.4469
13640TIP3    H262336   6.460   5.008   4.478 -0.6586 -1.3822  1.0397
13641TIP3   OH262337   2.763   5.808  14.285 -0.2808 -0.0124 -0.0960
13641TIP3    H162338   2.812   5.804  14.367  0.0190 -0.4883 -0.2933
13641TIP3    H262339   2.803   5.740  14.230 -0.3673  0.4168 -0.6975
13642TIP3   OH262340   3.266   4.727   2.053  0.3799  0.6088  0.1434
13642TIP3    H162341   3.287   4.754   1.964 -1.9296  1.8761 -0.1051
13642TIP3    H262342   3.300   4.797   2.108 -0.1608  0.9713  0.0298
13643TIP3   OH262343   3.381   4.814   5.853 -0.0716 -0.1335 -0.4997
13643TIP3    H162344   3.397   4.796   5.945 -2.3142 -3.0224 -0.5388
13643TIP3    H262345   3.308   4.876   5.853  0.5453  0.6149 -0.3869
13644TIP3   OH262346   0.662   0.049  15.378  0.0001 -0.2744 -0.1795
13644TIP3    H162347   0.740   0.103  15.391 -0.6905  0.7044  0.0099
13644TIP3    H262348   0.662  -0.012  15.452 -0.1362  0.6233  0.5751
13645TIP3   OH262349   1.646   4.775  17.150  0.0527  0.6106 -0.4604
13645TIP3    H162350   1.573   4.816  17.196 -0.2495  1.0877 -1.3406
13645TIP3    H262351   1.660   4.692  17.196 -1.0933  0.4715 -0.3335
13646TIP3   OH262352   1.517   6.739   5.995  0.1472 -0.8853  0.9149
13646TIP3    H162353   1.522   6.829   6.026  0.0362 -0.3524 -0.5538
13646TIP3    H262354   1.425   6.725   5.976  0.6399  0.2506 -3.1125
13647TIP3   OH262355   2.965   0.953   0.973 -0.8895  0.0365 -0.4017
13647TIP3    H162356   3.027   0.888   1.006 -0.9863  0.7538  1.3016
13647TIP3    H262357   2.900   0.902   0.925 -1.0619 -1.1843  1.0384
13648TIP3   OH262358   0.306   1.045  10.406  0.0093  0.2863 -0.1205
13648TIP3    H162359   0.331   0.978  10.343  0.0309  0.3409 -0.1709
13648TIP3    H262360   0.389   1.075  10.443 -0.0091  0.1998 -0.0104
13649TIP3   OH262361   4.326   5.673   1.764  0.6380  0.6520 -0.0145
13649TIP3    H162362   4.235   5.700   1.770  0.7632  1.1695 -0.3521
13649TIP3    H262363   4.357   5.713   1.682  1.0131  0.0277 -0.1792
13650TIP3   OH262364   3.287   3.007   0.875  0.2052 -0.4635 -0.4377
13650TIP3    H162365   3.294   3.032   0.967  0.4610  1.1667 -0.8700
13650TIP3    H262366   3.301   2.912   0.875 -1.5719 -0.8047  1.3856
13651TIP3   OH262367   3.554   1.628  11.538 -0.0148  0.1539 -0.4219
13651TIP3    H162368   3.547   1.595  11.449  1.1526 -1.0562 -0.1011
13651TIP3    H262369   3.526   1.554  11.593  1.3156  0.1345  0.2730
13652TIP3   OH262370   3.046   4.168   2.348  0.0641  0.5047  0.0301
13652TIP3    H162371   3.107   4.107   2.389  1.3546  1.4606 -0.4338
13652TIP3    H262372   2.962   4.150   2.391  0.7109 -0.6499  0.8570
13653TIP3   OH262373   1.213   0.662   4.026 -0.1489  0.3670  0.1595
13653TIP3    H162374   1.252   0.635   4.109 -0.3161 -1.1641 -0.2194
13653TIP3    H262375   1.208   0.757   4.031 -0.8168  0.2725  2.1923
13654TIP3   OH262376   2.351   1.285   4.471 -0.0084  0.1285 -0.6051
13654TIP3    H162377   2.312   1.285   4.384 -0.1061  0.2302 -0.5617
13654TIP3    H262378   2.395   1.200   4.478  1.0303  0.5856 -1.2193
13655TIP3   OH262379   0.276   4.924   3.376 -0.6274  0.0996 -0.6000
13655TIP3    H162380   0.231   4.839   3.383 -0.4851 -0.1576 -2.4308
13655TIP3    H262381   0.206   4.988   3.382 -1.1479 -0.2682 -2.1475
13656TIP3   OH262382   6.544   2.225  17.244 -0.3646 -0.1416  0.1098
13656TIP3    H162383   6.460   2.250  17.283  0.6906  2.9889  0.6276
13656TIP3    H262384   6.580   2.159  17.303 -2.4736 -1.7037 -0.2325
13657TIP3   OH262385   3.417   5.750   6.337  0.1940  0.5313  0.0785
13657TIP3    H162386   3.413   5.660   6.369  1.2271  0.7277  0.8122
13657TIP3    H262387   3.491   5.789   6.383  0.5546  1.3959 -1.1601
13658TIP3   OH262388   3.279   5.973   0.036 -0.5306  0.0369  0.2571
13658TIP3    H162389   3.255   5.966  -0.056  0.5564  1.8662 -0.2175
13658TIP3    H262390   3.369   6.005   0.035  0.5334 -2.6152  1.9863
13659TIP3   OH262391   5.976   5.385   1.346  0.0656  0.0909 -0.1947
13659TIP3    H162392   6.025   5.350   1.421  0.9487 -2.3720 -1.8006
13659TIP3    H262393   5.974   5.313   1.283 -0.7882  1.9940 -2.4978
13660TIP3   OH262394   4.591   6.388  12.971  0.5110  0.3903  0.0913
13660TIP3    H162395   4.548   6.302  12.978  1.6268 -0.2647 -0.7855
13660TIP3    H262396   4.678   6.368  12.936  0.9283  1.8533  0.2527
13661TIP3   OH262397   2.930   3.006   2.861  0.2290 -0.1123  0.0173
13661TIP3    H162398   2.845   3.049   2.852  0.8882  0.9175 -1.9142
13661TIP3    H262399   2.926   2.931   2.802  0.4639 -0.4178  0.3805
13662TIP3   OH262400   0.871   4.027   3.912 -0.0447  0.4024  0.9306
13662TIP3    H162401   0.910   4.113   3.895  1.9012 -0.7872 -1.1355
13662TIP3    H262402   0.788   4.028   3.864  0.7700  0.5925 -0.5380
13663TIP3   OH262403   1.413   3.880   4.930 -0.4044 -0.4156 -0.5110
13663TIP3    H162404   1.415   3.857   4.837 -0.5371 -1.5986 -0.2392
13663TIP3    H262405   1.409   3.796   4.975 -0.6127  0.1530  0.5604
13664TIP3   OH262406   1.932   1.894  15.157  0.0562 -0.4838  0.2634
13664TIP3    H162407   1.895   1.805  15.155 -0.0958 -0.4404  0.8409
13664TIP3    H262408   1.866   1.949  15.116 -0.5821 -0.3906  1.3816
13665TIP3   OH262409   3.060   2.907  14.529 -0.1541 -0.6748 -0.6040
13665TIP3    H162410   3.134   2.949  14.571 -0.4452 -0.3967 -0.3683
13665TIP3    H262411   3.087   2.896  14.438 -0.9316  2.1324 -1.2636
13666TIP3   OH262412   2.783   2.631  12.637  0.1911 -0.2403  0.8101
13666TIP3    H162413   2.861   2.613  12.584 -0.5625  0.3653 -0.5563
13666TIP3    H262414   2.788   2.724  12.657 -0.8129  0.1040 -0.4084
13667TIP3   OH262415   3.580   4.579  11.937 -0.5910  0.0217 -0.4645
13667TIP3    H162416   3.648   4.546  11.878 -0.9119 -1.9494  0.1915
13667TIP3    H262417   3.510   4.609  11.879  0.5184  1.4374 -1.1322
13668TIP3   OH262418   3.653   5.510   5.518 -0.8760 -0.0679 -0.7601
13668TIP3    H162419   3.732   5.557   5.542 -0.5787 -0.3173 -1.2217
13668TIP3    H262420   3.608   5.493   5.601  0.6967 -1.9605 -0.2131
13669TIP3   OH262421   0.782   0.638   5.261  0.0047  0.5204  1.2408
13669TIP3    H162422   0.757   0.553   5.296 -1.0681  0.7085  0.9652
13669TIP3    H262423   0.856   0.666   5.314  0.3233 -0.5581  1.3693
13670TIP3   OH262424   0.352   2.043   4.897 -0.1693  0.5035 -0.2929
13670TIP3    H162425   0.424   2.061   4.836 -0.3872 -0.5135 -0.8735
13670TIP3    H262426   0.395   2.016   4.978  0.1076  0.7300 -0.3624
13671TIP3   OH262427   0.708   5.163   3.646  0.2861 -0.6274 -0.0269
13671TIP3    H162428   0.728   5.194   3.735 -0.5540  0.9740 -0.3807
13671TIP3    H262429   0.631   5.107   3.658  0.5671 -0.9465  0.3352
13672TIP3   OH262430   2.898   4.684  11.743 -0.5298 -0.0634 -0.2436
13672TIP3    H162431   2.869   4.716  11.828 -0.0824  0.1490 -0.1680
13672TIP3    H262432   2.981   4.730  11.726 -0.5007 -0.2680 -0.6895
13673TIP3   OH262433   5.252   2.531   2.505 -0.5493 -0.1582 -0.2104
13673TIP3    H162434   5.191   2.459   2.520 -1.5076  0.1949 -2.1456
13673TIP3    H262435   5.219   2.576   2.427  0.9352  1.4069 -0.0115
13674TIP3   OH262436   6.694   0.609   0.034 -0.5312 -0.4063 -0.1367
13674TIP3    H162437   6.736   0.548   0.095  1.9400  0.4723 -0.8334
13674TIP3    H262438   6.741   0.691   0.046 -1.7787  0.5410 -1.3565
13675TIP3   OH262439   4.915   4.643   0.913 -0.0187  0.1181  0.2122
13675TIP3    H162440   4.909   4.623   1.007 -0.8136  4.5668  1.3261
13675TIP3    H262441   4.825   4.636   0.882 -0.5917  2.9459  0.9845
13676TIP3   OH262442   1.558   2.782  15.254 -0.0180 -0.1834  0.2769
13676TIP3    H162443   1.494   2.841  15.213  0.6098 -0.4311 -1.1139
13676TIP3    H262444   1.628   2.775  15.190  1.5508  0.2617  1.8780
13677TIP3   OH262445   1.221   5.329   4.151 -0.2347 -0.2477 -0.0481
13677TIP3    H162446   1.213   5.237   4.128  0.3119  0.0384 -1.4943
13677TIP3    H262447   1.315   5.342   4.167 -0.4057 -0.0964  0.9249
13678TIP3   OH262448   4.167   1.052   2.424 -0.3764 -0.4239  0.4950
13678TIP3    H162449   4.085   1.011   2.451  0.6239 -1.6101  1.8821
13678TIP3    H262450   4.146   1.094   2.341 -1.9616 -2.0743 -0.0096
13679TIP3   OH262451   2.907   6.429  11.959  0.8104 -0.4650 -0.6518
13679TIP3    H162452   2.830   6.467  12.002 -0.0376 -0.7038 -1.8774
13679TIP3    H262453   2.981   6.478  11.994 -0.0797  1.0366 -0.7637
13680TIP3   OH262454   2.450   5.208   5.667 -0.4506  0.0741  0.0420
13680TIP3    H162455   2.357   5.220   5.649 -0.2938 -0.1287 -0.9459
13680TIP3    H262456   2.488   5.186   5.582  0.6951  1.2718  0.2203
13681TIP3   OH262457   1.913   1.072  14.664  0.2049 -0.4354  0.1979
13681TIP3    H162458   1.856   1.075  14.741  0.0411  2.3609  0.0492
13681TIP3    H262459   2.001   1.071  14.700  0.1195  0.2495  0.4392
13682TIP3   OH262460   2.225   1.256   3.350  0.2523 -0.0487 -0.9458
13682TIP3    H162461   2.181   1.232   3.269 -0.7073  0.0559 -0.4712
13682TIP3    H262462   2.263   1.342   3.333  0.6191 -0.3160 -1.4888
13683TIP3   OH262463   3.798   1.202  16.028 -0.0194  0.3038 -0.1685
13683TIP3    H162464   3.810   1.147  16.106  0.1660  0.9801  0.2875
13683TIP3    H262465   3.740   1.272  16.057  1.1487  1.3393 -0.2315
13684TIP3   OH262466   2.361   3.531   4.262  0.5556  0.1832  0.9574
13684TIP3    H162467   2.390   3.456   4.314  0.0196 -0.1368  0.8000
13684TIP3    H262468   2.276   3.554   4.298 -0.1272 -0.4475 -0.1730
13685TIP3   OH262469   0.056   3.801  14.458 -0.3508 -0.1817  0.0359
13685TIP3    H162470   0.075   3.710  14.482 -0.8449  0.1558  1.8493
13685TIP3    H262471   0.088   3.809  14.368 -0.2197 -2.1202 -0.1427
13686TIP3   OH262472   2.902   4.923  12.771 -0.2458  0.7194  0.5071
13686TIP3    H162473   2.921   4.903  12.863  1.7599  3.6847  0.9030
13686TIP3    H262474   2.807   4.934  12.768 -0.8970 -3.3847  1.1883
13687TIP3   OH262475   6.310   4.707  16.297 -0.0510 -0.1352 -0.0981
13687TIP3    H162476   6.300   4.612  16.291 -0.7030 -0.0488 -0.5167
13687TIP3    H262477   6.247   4.733  16.364  1.7960 -0.2405  1.7580
13688TIP3   OH262478   4.341   1.652  10.811  0.0090  0.2288  0.0376
13688TIP3    H162479   4.326   1.701  10.892 -0.3352  0.8281 -0.3729
13688TIP3    H262480   4.278   1.689  10.749 -2.3048 -2.6966  0.4741
13689TIP3   OH262481   3.592   4.438  11.626 -0.0207 -0.0477  0.1408
13689TIP3    H162482   3.604   4.367  11.564  0.2870  2.0082 -2.3276
13689TIP3    H262483   3.569   4.514  11.572  2.2391  2.3907  2.2799
13690TIP3   OH262484   2.282   4.374   4.166  0.6469 -0.7052 -0.3102
13690TIP3    H162485   2.221   4.315   4.211  0.1865 -0.9674 -1.2535
13690TIP3    H262486   2.308   4.437   4.233 -0.1147 -1.0136  0.2953
13691TIP3   OH262487   2.319   4.105  16.694 -0.1942 -0.9638  0.1752
13691TIP3    H162488   2.321   4.171  16.625  0.9018 -0.8206  0.3168
13691TIP3    H262489   2.355   4.149  16.771 -1.0062 -1.2472  0.7207
13692TIP3   OH262490   2.272   0.106   3.450  0.9059 -0.8248 -0.5300
13692TIP3    H162491   2.267   0.157   3.369  1.9665 -2.3627 -1.5993
13692TIP3    H262492   2.327   0.159   3.508  1.0283 -0.2112 -1.1985
13693TIP3   OH262493   2.556   5.400   6.175 -0.1330 -0.0716 -0.1322
13693TIP3    H162494   2.648   5.421   6.191 -0.3780  0.2512  0.9462
13693TIP3    H262495   2.556   5.352   6.092  0.9119  0.6133 -0.5514
13694TIP3   OH262496   3.557   5.751   4.876 -0.5437  0.3604  0.2875
13694TIP3    H162497   3.551   5.843   4.903 -0.0998  0.0114  1.6798
13694TIP3    H262498   3.527   5.750   4.785 -1.4592  1.7317  0.5521
13695TIP3   OH262499   0.287   3.329   2.183  0.4364 -0.7602 -0.0182
13695TIP3    H162500   0.304   3.241   2.148  0.2292 -0.9430  0.3339
13695TIP3    H262501   0.339   3.333   2.263  0.6680 -0.4571 -0.1842
13696TIP3   OH262502   5.129   5.235  14.880  0.2170  0.8058 -0.2095
13696TIP3    H162503   5.079   5.197  14.807 -0.8859  0.2358  0.8016
13696TIP3    H262504   5.094   5.192  14.958  0.5318  2.2563  0.7773
13697TIP3   OH262505   0.480   2.102   2.387 -0.4103 -0.5025  0.5280
13697TIP3    H162506   0.569   2.132   2.402 -0.0027 -0.8845 -0.9797
13697TIP3    H262507   0.428   2.183   2.383 -0.0293 -0.2426  0.7751
13698TIP3   OH262508   1.790   3.338   3.425 -0.2024  0.2793 -0.8372
13698TIP3    H162509   1.875   3.381   3.432  0.3100 -0.8733  0.5539
13698TIP3    H262510   1.727   3.407   3.445  0.5048  0.8134 -0.3824
13699TIP3   OH262511   0.459   4.994  14.290 -0.4810  0.0319  0.0336
13699TIP3    H162512   0.491   4.992  14.200 -3.1329 -1.5216 -0.9825
13699TIP3    H262513   0.378   5.046  14.286 -0.9428 -0.5333  1.3799
13700TIP3   OH262514   0.673   2.638  12.915  0.2265 -0.9642  0.0726
13700TIP3    H162515   0.603   2.633  12.980  0.4261  1.0198  0.4976
13700TIP3    H262516   0.747   2.675  12.962  0.9416 -1.1752 -0.8591
13701TIP3   OH262517   1.052   2.580  16.178 -0.2519 -0.3171 -0.0060
13701TIP3    H162518   1.007   2.498  16.158  1.0977 -0.8092 -1.2062
13701TIP3    H262519   1.002   2.647  16.132  0.0905 -0.8193 -1.1324
13702TIP3   OH262520   4.131   5.442  16.592  0.1337 -0.3007  0.2202
13702TIP3    H162521   4.066   5.475  16.654 -0.8257 -1.8719  0.1137
13702TIP3    H262522   4.100   5.473  16.507 -1.7616 -2.7642 -0.0975
13703TIP3   OH262523   4.598   3.319   0.511 -0.1085  0.4316 -0.8939
13703TIP3    H162524   4.602   3.229   0.546 -2.8277  0.5114 -0.2032
13703TIP3    H262525   4.642   3.372   0.578 -0.2995 -0.1309 -0.3114
13704TIP3   OH262526   6.495   2.879  13.739 -0.3481  0.1501  0.2675
13704TIP3    H162527   6.434   2.879  13.666 -0.1367 -0.7599  0.0825
13704TIP3    H262528   6.439   2.886  13.817 -0.8805 -2.5916  0.2201
13705TIP3   OH262529   1.966   5.269   5.431  0.4708 -0.6866  0.3633
13705TIP3    H162530   1.875   5.278   5.459  0.0320 -0.1871 -1.1476
13705TIP3    H262531   1.979   5.175   5.421  0.5150 -0.8527  1.7432
13706TIP3   OH262532   4.654   0.695   1.085  0.2925 -0.5846  0.6563
13706TIP3    H162533   4.737   0.686   1.040  0.3785  0.6808  0.5255
13706TIP3    H262534   4.604   0.618   1.060  1.3730 -1.2955  0.6377
13707TIP3   OH262535   0.827   2.782   1.569  0.7557  0.0781  0.6043
13707TIP3    H162536   0.752   2.839   1.586  0.3881 -0.4272  0.7035
13707TIP3    H262537   0.864   2.765   1.656 -0.0026 -0.9907  0.7422
13708TIP3   OH262538   0.376   1.942   2.964  0.3318 -0.2084  0.1920
13708TIP3    H162539   0.368   2.003   3.037  0.3194  0.0741 -0.0450
13708TIP3    H262540   0.287   1.913   2.947  0.0734  1.1283 -0.9022
13709TIP3   OH262541   5.597   5.873  14.134 -0.1296  0.0903 -0.3461
13709TIP3    H162542   5.614   5.938  14.066 -2.9301 -1.5537 -2.8563
13709TIP3    H262543   5.588   5.790  14.087 -0.7716 -1.4165  2.2328
13710TIP3   OH262544   4.319   3.098   6.255  0.1481  0.9088  0.2987
13710TIP3    H162545   4.358   3.097   6.168  0.2214  0.4373  0.3385
13710TIP3    H262546   4.382   3.145   6.309  0.0936  1.2215  0.0969
13711TIP3   OH262547   0.667   6.690  16.422 -0.2892 -0.0590 -0.2252
13711TIP3    H162548   0.713   6.678  16.339  1.8223 -1.4570  1.0525
13711TIP3    H262549   0.615   6.611  16.432  0.2855 -0.3811  0.2581
13712TIP3   OH262550   2.258   3.281   0.737 -0.4142  0.0166  0.1770
13712TIP3    H162551   2.269   3.282   0.642 -1.5050  1.3737  0.0317
13712TIP3    H262552   2.344   3.305   0.771  0.4463 -2.0541 -0.3523
13713TIP3   OH262553   0.664   6.683  13.717  0.4599 -0.3116 -0.5803
13713TIP3    H162554   0.622   6.612  13.667  0.3474 -0.8884  0.3120
13713TIP3    H262555   0.592   6.728  13.760  0.7034 -1.0694  0.6572
13714TIP3   OH262556   2.026   2.418   5.943 -0.5452 -0.1976  0.0612
13714TIP3    H162557   2.100   2.407   5.882 -0.2935  1.9901 -0.0771
13714TIP3    H262558   2.040   2.348   6.008  0.9803 -0.5776 -0.6076
13715TIP3   OH262559   6.540   3.070   0.665  0.2231  0.1087  0.1957
13715TIP3    H162560   6.550   3.058   0.571 -1.3896  0.8728 -0.1115
13715TIP3    H262561   6.589   2.998   0.704  1.0571 -0.1142 -1.2184
13716TIP3   OH262562   2.581   4.739   6.069 -0.7828 -0.1381  0.1568
13716TIP3    H162563   2.651   4.785   6.022 -0.3198 -1.3997 -0.4424
13716TIP3    H262564   2.623   4.705   6.148 -1.0244  0.1218  0.4002
13717TIP3   OH262565   4.780   3.433  13.347 -0.1811 -0.0211 -0.0760
13717TIP3    H162566   4.820   3.474  13.270  0.7544  1.9463  1.3805
13717TIP3    H262567   4.785   3.339  13.329  1.2075  0.3386 -1.8371
13718TIP3   OH262568   1.939   4.614  17.056  0.3033  0.0130 -0.3186
13718TIP3    H162569   1.910   4.705  17.047 -1.2856 -0.5656 -1.4962
13718TIP3    H262570   1.865   4.570  17.099 -0.1795 -1.2693 -2.3290
13719TIP3   OH262571   1.506   4.771   4.515 -0.4282  0.0199  0.5901
13719TIP3    H162572   1.531   4.687   4.477  1.0057  1.1621 -1.1218
13719TIP3    H262573   1.446   4.809   4.451  1.2459  1.5486 -0.1282
13720TIP3   OH262574   2.037   5.081   5.750 -0.5598 -0.7165  0.1319
13720TIP3    H162575   2.008   5.012   5.809 -2.0047  0.8206  1.3149
13720TIP3    H262576   1.957   5.114   5.709 -0.5161  2.6528  2.3662
13721TIP3   OH262577   4.008   5.020   1.142 -0.5148  0.4114  0.8724
13721TIP3    H162578   4.060   4.995   1.065  0.0319  0.3208  1.2652
13721TIP3    H262579   3.988   5.113   1.128 -0.3402  0.4178  0.6599
13722TIP3   OH262580   2.849   4.332  16.268  0.3668 -0.1487 -0.0601
13722TIP3    H162581   2.818   4.242  16.270  3.0733 -1.1530  0.4689
13722TIP3    H262582   2.911   4.338  16.341 -0.3308  2.3967  0.4267
13723TIP3   OH262583   5.027   0.136  15.308  0.3707 -0.0214 -0.0133
13723TIP3    H162584   5.113   0.107  15.338  0.8091 -0.3289 -1.5013
13723TIP3    H262585   5.018   0.224  15.344  1.0011 -0.2451  0.7266
13724TIP3   OH262586   1.136   1.188  12.848  0.8605  0.0643  0.5611
13724TIP3    H162587   1.198   1.256  12.821  1.0935  0.1148  1.2059
13724TIP3    H262588   1.106   1.216  12.934 -1.5339  1.0550 -0.5132
13725TIP3   OH262589   5.304   6.635  15.199  0.1456 -0.1501 -0.2899
13725TIP3    H162590   5.258   6.712  15.167 -3.8855 -2.5557 -0.9119
13725TIP3    H262591   5.386   6.634  15.149 -0.7472  2.3698 -2.0187
13726TIP3   OH262592   5.438   5.538  16.243 -0.2354 -0.3705  0.2140
13726TIP3    H162593   5.510   5.597  16.223 -0.8289  0.9825  1.8042
13726TIP3    H262594   5.389   5.531  16.162 -0.5226  1.9222  0.1138
13727TIP3   OH262595   5.778   4.039  16.544  0.6376  0.1755  0.1433
13727TIP3    H162596   5.755   4.083  16.626 -1.0938 -1.4881  0.6334
13727TIP3    H262597   5.701   4.051  16.488  0.7701 -0.8351 -0.2812
13728TIP3   OH262598   6.631   3.281   5.659  0.7867 -0.0636  0.0399
13728TIP3    H162599   6.666   3.370   5.662 -0.7393  0.5505  0.4170
13728TIP3    H262600   6.563   3.284   5.591 -0.0453 -0.6358  0.8278
13729TIP3   OH262601   0.218   5.473  11.885  0.3948  0.5196 -0.3929
13729TIP3    H162602   0.186   5.525  11.810  0.1731  1.7441  0.5208
13729TIP3    H262603   0.264   5.537  11.940  0.6408 -0.3862  0.4682
13730TIP3   OH262604   3.062   6.568   3.997 -0.0170  0.2299 -0.3705
13730TIP3    H162605   3.083   6.644   4.052 -2.4458  2.7490 -2.6012
13730TIP3    H262606   3.047   6.497   4.058  1.4141  1.7536  1.9160
13731TIP3   OH262607   4.984   1.884   5.932  0.5312  0.2356  0.1545
13731TIP3    H162608   5.017   1.948   5.995  1.7935  0.2755 -0.5127
13731TIP3    H262609   5.060   1.829   5.912 -0.2773 -0.8244 -0.0645
13732TIP3   OH262610   1.863   1.475  10.496 -0.0637 -0.0980 -0.3479
13732TIP3    H162611   1.793   1.534  10.523 -0.0526 -0.3596  0.2866
13732TIP3    H262612   1.907   1.452  10.578  0.1257 -0.7372 -0.6206
13733TIP3   OH262613   1.752   2.989   0.773 -0.6241 -0.2223  0.0880
13733TIP3    H162614   1.817   3.039   0.724  0.5222 -1.1857  0.5643
13733TIP3    H262615   1.758   3.024   0.862 -0.5419 -0.4894  0.1914
13734TIP3   OH262616   5.095   1.474   4.992  0.0725  0.4546  0.0670
13734TIP3    H162617   5.105   1.444   4.902  1.7726 -2.3308  1.0810
13734TIP3    H262618   5.182   1.503   5.018 -0.7647  3.0501  0.3421
13735TIP3   OH262619   6.033   3.442   5.531  1.2204  0.2267  0.3902
13735TIP3    H162620   6.044   3.417   5.623  0.9759 -2.7333 -0.2923
13735TIP3    H262621   6.121   3.437   5.494  1.0045 -0.8609 -0.0107
13736TIP3   OH262622   1.778   6.211  13.181  0.0178 -0.1518  0.6918
13736TIP3    H162623   1.849   6.247  13.129  0.4142  0.2365  1.4946
13736TIP3    H262624   1.699   6.255  13.148  0.0180 -1.1308 -0.7160
13737TIP3   OH262625   4.390   2.469  15.054 -0.8923  0.1302  0.9728
13737TIP3    H162626   4.408   2.403  15.120 -0.6432  1.2104  2.0147
13737TIP3    H262627   4.468   2.524  15.051 -1.1175  0.4344  0.1860
13738TIP3   OH262628   1.081   1.847   1.648 -0.2006 -0.4653  0.0604
13738TIP3    H162629   1.059   1.798   1.569 -1.0978  3.0085 -2.0910
13738TIP3    H262630   0.997   1.856   1.694 -0.7204  1.4880 -1.1613
13739TIP3   OH262631   2.593   3.547   2.169  0.2815  0.3659  0.1928
13739TIP3    H162632   2.682   3.514   2.176 -0.1534 -0.7648  0.6088
13739TIP3    H262633   2.572   3.540   2.076  0.1464 -0.7047  0.2907
13740TIP3   OH262634   6.139   0.076   3.729  0.3164 -0.0556  0.6791
13740TIP3    H162635   6.097   0.108   3.649 -1.6464  0.4096  1.8345
13740TIP3    H262636   6.170   0.155   3.773  0.1696 -0.1960  1.0359
13741TIP3   OH262637   1.398   6.097  17.170 -0.2131 -0.6594 -0.3469
13741TIP3    H162638   1.413   6.054  17.254  0.4133  1.5436  0.7506
13741TIP3    H262639   1.305   6.120  17.170  0.2844  1.7705  1.0898
13742TIP3   OH262640   4.188   0.706   1.775  0.2047  0.3293  0.0850
13742TIP3    H162641   4.198   0.794   1.813 -0.6026  1.3484 -1.9245
13742TIP3    H262642   4.094   0.689   1.778  0.2557 -0.0648 -0.4058
13743TIP3   OH262643   5.600   5.253  16.836  0.0867 -0.4995  0.8084
13743TIP3    H162644   5.622   5.161  16.849 -2.2164 -1.1942  0.2499
13743TIP3    H262645   5.544   5.276  16.910 -0.7654 -0.0843  0.0651
13744TIP3   OH262646   5.574   0.987   0.208  0.2820  0.1583  0.2990
13744TIP3    H162647   5.528   0.902   0.205 -4.6159  2.3096 -5.2968
13744TIP3    H262648   5.518   1.042   0.263 -1.5395  1.5978 -2.7507
13745TIP3   OH262649   6.679   1.937  14.648  0.0448  0.0103 -0.0390
13745TIP3    H162650   6.762   1.967  14.685 -1.0909  0.9734  1.8847
13745TIP3    H262651   6.687   1.842  14.645  1.0506  0.0606  0.5372
13746TIP3   OH262652   4.703   5.033  15.520 -0.0151  0.1286  0.3923
13746TIP3    H162653   4.670   5.093  15.587 -0.5356 -0.0011  0.2534
13746TIP3    H262654   4.674   5.071  15.437 -1.1226 -0.7821  0.3454
13747TIP3   OH262655   5.337   0.172   0.829 -0.0262  0.6966 -0.0517
13747TIP3    H162656   5.346   0.228   0.752  1.9890 -0.1868 -0.5221
13747TIP3    H262657   5.412   0.194   0.884 -1.6440  1.6118  1.9350
13748TIP3   OH262658   3.839   0.694  14.872 -0.2976 -0.6515 -0.8160
13748TIP3    H162659   3.810   0.781  14.899 -1.7183 -0.9923 -1.1872
13748TIP3    H262660   3.883   0.658  14.949 -1.8627 -0.5361  0.1752
13749TIP3   OH262661   1.415   2.005   2.863  0.0121  0.1603 -0.4836
13749TIP3    H162662   1.458   1.930   2.905  1.4777  1.7069  0.9473
13749TIP3    H262663   1.405   1.979   2.771 -0.3490 -2.0945  0.1332
13750TIP3   OH262664   2.590   2.355   3.047  0.1631  0.6184  1.0836
13750TIP3    H162665   2.616   2.435   3.092 -1.9367  2.3229 -0.5392
13750TIP3    H262666   2.540   2.385   2.971  3.0507 -2.0513 -2.2262
13751TIP3   OH262667   2.687   4.872  13.533  0.0650  0.0079  0.0678
13751TIP3    H162668   2.697   4.816  13.611 -1.0832  0.3988  0.5058
13751TIP3    H262669   2.774   4.870  13.492 -0.3294 -3.5126 -0.9068
13752TIP3   OH262670   5.839   1.971  16.962 -0.0973 -0.1147  0.2501
13752TIP3    H162671   5.771   2.018  16.914 -0.1160 -0.2838  0.1128
13752TIP3    H262672   5.882   2.039  17.015 -0.0714  0.0731 -0.0084
13753TIP3   OH262673   2.803   4.680   3.531 -0.4031 -0.0289 -0.4627
13753TIP3    H162674   2.757   4.762   3.547 -1.7746 -1.1236  1.5021
13753TIP3    H262675   2.745   4.630   3.473 -1.2771 -0.9618  1.1349
13754TIP3   OH262676   4.863   0.094  14.698 -0.0877  0.0832 -0.0210
13754TIP3    H162677   4.853   0.140  14.781  1.1785  0.6301 -0.1469
13754TIP3    H262678   4.948   0.123  14.665 -0.8238  0.3462 -1.8004
13755TIP3   OH262679   0.224   0.858  11.477 -0.4844 -0.9517 -0.1701
13755TIP3    H162680   0.199   0.855  11.385 -1.5082  0.8502 -0.0007
13755TIP3    H262681   0.195   0.774  11.513  0.1025 -1.7601 -1.5036
13756TIP3   OH262682   5.718   4.882  14.857  0.0609  0.2004 -0.5575
13756TIP3    H162683   5.777   4.920  14.923 -0.9895  0.1621  0.4247
13756TIP3    H262684   5.640   4.857  14.906 -0.0503 -1.4907 -1.5111
13757TIP3   OH262685   5.752   6.179  14.652 -0.3040  0.3188 -0.3904
13757TIP3    H162686   5.676   6.212  14.699  0.4583  0.9533  0.4140
13757TIP3    H262687   5.759   6.235  14.575 -0.6939  0.1936 -0.5236
13758TIP3   OH262688   1.217   1.871   1.348 -0.3692 -0.3352  0.0892
13758TIP3    H162689   1.125   1.850   1.335 -0.5686  0.2458  0.5323
13758TIP3    H262690   1.219   1.966   1.365  0.1667 -0.5519  1.3602
13759TIP3   OH262691   6.452   1.145   5.297 -0.4411 -0.0020 -0.5659
13759TIP3    H162692   6.501   1.069   5.267  0.8290  0.9442 -0.9503
13759TIP3    H262693   6.465   1.146   5.391 -1.7525 -1.1194 -0.3371
13760TIP3   OH262694   4.742   3.431   4.087 -0.1869  0.3019 -0.4263
13760TIP3    H162695   4.801   3.360   4.063 -1.0712 -0.0206 -1.7556
13760TIP3    H262696   4.763   3.502   4.027 -0.4755  0.5407 -0.2502
13761TIP3   OH262697   0.716   3.543  10.465 -0.4062  0.1611 -0.2619
13761TIP3    H162698   0.699   3.519  10.556  0.9261  0.3523  0.0552
13761TIP3    H262699   0.713   3.460  10.417 -0.3437 -0.0378  0.0790
13762TIP3   OH262700   4.131   2.865   4.268  0.3303 -0.1031  0.6356
13762TIP3    H162701   4.080   2.817   4.203  2.8501 -1.1113 -0.7415
13762TIP3    H262702   4.134   2.955   4.234 -0.6757  0.0295  0.8654
13763TIP3   OH262703   1.237   4.009  15.069  0.4461 -0.3066 -0.1654
13763TIP3    H162704   1.198   3.974  14.989  0.1132 -1.1742  0.3599
13763TIP3    H262705   1.199   4.096  15.078 -0.4122 -0.6534 -0.3381
13764TIP3   OH262706   3.042   0.646  17.185 -0.0192 -0.7230  0.1378
13764TIP3    H162707   2.973   0.707  17.210  0.2950 -0.0764 -0.5580
13764TIP3    H262708   3.010   0.560  17.214 -1.6650 -0.6106 -1.2453
13765TIP3   OH262709   4.632   4.163  10.948  0.7677  0.1901 -0.0189
13765TIP3    H162710   4.602   4.224  10.881  1.7687 -0.4101 -1.0622
13765TIP3    H262711   4.688   4.214  11.005 -0.9777  0.9705  1.0655
13766TIP3   OH262712   0.751   2.481  11.403 -0.3729 -0.2559  0.8009
13766TIP3    H162713   0.845   2.465  11.394 -0.6768 -1.5818 -0.3579
13766TIP3    H262714   0.725   2.428  11.479 -0.4743 -1.3192  0.0446
13767TIP3   OH262715   3.356   6.081  16.193  0.4252 -0.2063 -0.0232
13767TIP3    H162716   3.298   6.149  16.158  0.0474  0.1597  1.2511
13767TIP3    H262717   3.444   6.112  16.173  0.2189 -0.4708 -1.4478
13768TIP3   OH262718   3.456   3.409  11.395 -0.1061 -0.3924  0.3125
13768TIP3    H162719   3.373   3.368  11.417  0.6103 -2.5487 -0.7460
13768TIP3    H262720   3.496   3.430  11.480 -1.3675 -0.0535  0.8363
13769TIP3   OH262721   3.772   4.791   1.869  0.6017  0.4212  0.3075
13769TIP3    H162722   3.843   4.809   1.807 -0.0784  0.1318 -0.5908
13769TIP3    H262723   3.701   4.756   1.814 -0.2040  0.6237  1.1925
13770TIP3   OH262724   3.468   2.922   1.117 -0.5712  0.2095 -0.2963
13770TIP3    H162725   3.401   2.913   1.184 -0.3250 -0.2273 -0.1007
13770TIP3    H262726   3.536   2.860   1.143  0.0271  0.8249 -0.3452
13771TIP3   OH262727   2.954   5.185  12.613  0.6037 -0.8702  0.0874
13771TIP3    H162728   2.938   5.099  12.652 -0.3464  0.0201  1.7918
13771TIP3    H262729   3.044   5.179  12.579  1.1602 -2.0477  1.6235
13772TIP3   OH262730   3.902   2.565  17.345 -0.4509  0.1643  0.4070
13772TIP3    H162731   3.822   2.512  17.351  0.6652 -1.5841  0.5040
13772TIP3    H262732   3.937   2.565  17.434  0.3823 -0.2948  0.0902
13773TIP3   OH262733   3.235   1.216   3.940 -0.4293 -0.5521  0.1655
13773TIP3    H162734   3.208   1.304   3.916  0.6859  0.6645  2.9041
13773TIP3    H262735   3.311   1.230   3.997 -0.5968 -3.2645  1.1713
13774TIP3   OH262736   3.388   5.024  10.612  0.3223 -0.0351 -0.3680
13774TIP3    H162737   3.348   4.951  10.564  0.4969  1.1591 -2.4454
13774TIP3    H262738   3.329   5.097  10.597  0.6104  0.4802  0.9419
13775TIP3   OH262739   2.664   1.606  16.977 -0.2774 -0.0133 -0.3203
13775TIP3    H162740   2.729   1.674  16.996  0.3730 -0.7208  0.0733
13775TIP3    H262741   2.604   1.647  16.915 -1.3688  1.7614  1.7479
13776TIP3   OH262742   1.913   5.026  15.445 -0.2564  0.5891 -0.0635
13776TIP3    H162743   1.978   4.981  15.392  0.5585  0.1724  1.2428
13776TIP3    H262744   1.875   5.091  15.387  2.0298  1.5271 -0.6115
13777TIP3   OH262745   1.744   4.207  12.557  0.4599  0.2105 -0.3796
13777TIP3    H162746   1.717   4.243  12.472 -0.2403  1.3077  0.2929
13777TIP3    H262747   1.736   4.112  12.545 -2.1614  0.4057 -0.7612
13778TIP3   OH262748   2.450   1.854   5.914 -0.4190  0.3521  0.4672
13778TIP3    H162749   2.507   1.797   5.862  0.5034  1.0459  0.7068
13778TIP3    H262750   2.471   1.942   5.885 -0.5677  0.6863  1.3569
13779TIP3   OH262751   2.896   0.035   3.584  0.0026 -0.2039  0.4994
13779TIP3    H162752   2.974  -0.016   3.603  0.3997  0.4449  0.6380
13779TIP3    H262753   2.915   0.122   3.618 -0.3552  0.2479 -0.4228
13780TIP3   OH262754   6.162   5.097   4.706 -0.7491  0.0462  0.3010
13780TIP3    H162755   6.115   5.180   4.697 -0.5811  0.1224  0.1240
13780TIP3    H262756   6.229   5.100   4.638 -0.0705  0.2142  0.9741
13781TIP3   OH262757   1.067   5.490  10.727  0.0819 -0.0946 -0.0051
13781TIP3    H162758   1.117   5.516  10.804 -2.2432 -1.1070  1.9735
13781TIP3    H262759   1.093   5.400  10.711  0.0755 -0.1001  0.0154
13782TIP3   OH262760   0.163   5.950   5.526  0.2450  0.1951  0.0883
13782TIP3    H162761   0.256   5.931   5.515  0.7065  1.7712  0.9245
13782TIP3    H262762   0.161   6.039   5.563 -1.3905 -1.2440  4.0373
13783TIP3   OH262763   5.923   3.107   6.405  0.8300 -0.2395  0.4525
13783TIP3    H162764   5.832   3.122   6.377  0.6060  0.4275  1.4494
13783TIP3    H262765   5.964   3.194   6.400  1.7129 -0.7055 -0.9183
13784TIP3   OH262766   1.409   6.100   3.718 -0.4308 -0.1745 -0.0256
13784TIP3    H162767   1.455   6.124   3.638 -0.3643 -1.1691 -0.2997
13784TIP3    H262768   1.353   6.175   3.738  1.3886  1.1493  0.4021
13785TIP3   OH262769   2.603   0.078   4.429  0.3471 -0.6213 -0.3099
13785TIP3    H162770   2.626   0.042   4.344  1.3499  3.5693 -2.0738
13785TIP3    H262771   2.685   0.077   4.478  1.1948  1.8112 -1.5174
13786TIP3   OH262772   6.070   2.814  14.802 -0.5363 -0.4491 -0.5817
13786TIP3    H162773   6.110   2.899  14.784 -0.9863 -0.0770  0.1073
13786TIP3    H262774   6.080   2.802  14.896 -1.6207 -0.5587 -0.4675
13787TIP3   OH262775   4.830   6.113   6.051 -0.5205  0.0712 -0.5062
13787TIP3    H162776   4.746   6.150   6.024 -1.8668 -3.0806 -1.0547
13787TIP3    H262777   4.853   6.051   5.981  1.4012 -0.4096  0.4694
13788TIP3   OH262778   5.167   1.083   3.784  0.1140  0.3123  0.5608
13788TIP3    H162779   5.109   1.065   3.711 -0.4208 -1.7296  1.4288
13788TIP3    H262780   5.133   1.030   3.856  0.0123  2.9538  2.6473
13789TIP3   OH262781   3.000   6.200   3.928 -0.3269  0.9953 -0.8268
13789TIP3    H162782   2.905   6.200   3.913 -0.5359  2.6703  0.2631
13789TIP3    H262783   3.013   6.137   3.999 -0.7360  1.3989 -0.3902
13790TIP3   OH262784   0.268   1.615  15.199  0.2733 -0.1977  0.2795
13790TIP3    H162785   0.224   1.695  15.228  2.5130  1.3243 -0.2631
13790TIP3    H262786   0.197   1.557  15.173 -1.4959  2.9288 -2.8039
13791TIP3   OH262787   5.199   3.228   4.278  0.2888  0.5249 -0.0663
13791TIP3    H162788   5.146   3.201   4.353 -0.1036  0.0907 -0.4922
13791TIP3    H262789   5.169   3.316   4.258  0.2227  0.5497  0.1427
13792TIP3   OH262790   0.111   4.253   2.134 -0.1322 -0.2790 -0.3125
13792TIP3    H162791   0.170   4.271   2.207  0.4092 -0.9621 -0.5703
13792TIP3    H262792   0.106   4.335   2.086  0.3214 -0.1172 -0.0803
13793TIP3   OH262793   6.299   1.067  15.285 -0.3431  0.0814 -0.0824
13793TIP3    H162794   6.265   1.037  15.369  0.9214  1.1209  0.8464
13793TIP3    H262795   6.225   1.059  15.225 -1.6394  0.4287  1.3933
13794TIP3   OH262796   2.959   0.881   2.939  0.1855  0.8972 -0.0548
13794TIP3    H162797   3.014   0.958   2.925  0.3337  0.9092  0.5804
13794TIP3    H262798   2.937   0.884   3.032  0.8450 -0.2643  0.1446
13795TIP3   OH262799   3.577   6.381  11.172  0.1468  0.9962  0.8229
13795TIP3    H162800   3.600   6.289  11.163 -0.7903  0.5478  2.5398
13795TIP3    H262801   3.625   6.425  11.102  2.1342 -0.5294  1.1509
13796TIP3   OH262802   6.385   3.486   2.072 -0.0746  0.4603 -0.3650
13796TIP3    H162803   6.432   3.470   2.154 -1.2188 -0.4774  0.1261
13796TIP3    H262804   6.452   3.478   2.004  0.3109 -2.0181  0.2121
13797TIP3   OH262805   3.325   5.140   5.775  0.0097  0.5252  0.6442
13797TIP3    H162806   3.248   5.087   5.797  0.8330 -0.5677  1.0009
13797TIP3    H262807   3.296   5.230   5.786 -1.3987  0.1568  0.1517
13798TIP3   OH262808   0.368   1.635  15.449  0.0632  0.0769  0.0558
13798TIP3    H162809   0.280   1.606  15.475 -0.0894 -0.0108 -0.5595
13798TIP3    H262810   0.371   1.622  15.355  0.1113  1.7190 -0.2025
13799TIP3   OH262811   4.021   0.627   3.006 -0.1612 -0.2412  0.0666
13799TIP3    H162812   4.005   0.674   2.924  1.2395 -2.5849 -1.6578
13799TIP3    H262813   3.937   0.587   3.028 -0.5154  0.2920 -0.3002
13800TIP3   OH262814   1.338   4.294   2.628  0.4850  0.2665 -0.5257
13800TIP3    H162815   1.358   4.265   2.717  2.0514  0.2774 -0.8506
13800TIP3    H262816   1.364   4.220   2.572  1.7179  1.1217 -1.1304
13801TIP3   OH262817   0.311   5.090  15.143 -1.1218 -0.0253  0.3518
13801TIP3    H162818   0.312   5.131  15.229 -1.7717  0.2405  0.2390
13801TIP3    H262819   0.308   5.163  15.081 -0.9542 -0.2178  0.1118
13802TIP3   OH262820   4.240   0.434   0.820  0.1220 -0.0704  0.4155
13802TIP3    H162821   4.160   0.478   0.849  0.8487  1.8517 -0.3380
13802TIP3    H262822   4.215   0.392   0.737 -0.0909  0.6517  0.1003
13803TIP3   OH262823   5.477   1.072  14.122 -0.8168  0.2712 -0.5097
13803TIP3    H162824   5.541   1.088  14.052  1.6947 -2.0690  1.0216
13803TIP3    H262825   5.453   0.980  14.111 -2.0192  0.4392  0.4846
13804TIP3   OH262826   2.692   2.925   0.865 -0.0846  0.2932  0.6417
13804TIP3    H162827   2.707   2.931   0.960  0.3873 -0.9665  0.6687
13804TIP3    H262828   2.757   2.861   0.835 -0.0342  0.9083 -0.5854
13805TIP3   OH262829   5.261   5.670  15.087 -0.1534 -0.4069  0.2366
13805TIP3    H162830   5.236   5.713  15.169 -0.4056 -0.4391  0.1793
13805TIP3    H262831   5.264   5.577  15.108  0.7713 -0.3336  0.4570
13806TIP3   OH262832   0.586   3.934  16.077 -0.0020  0.0800  0.0959
13806TIP3    H162833   0.495   3.947  16.104 -0.4947 -3.6121  0.6873
13806TIP3    H262834   0.637   3.944  16.157 -0.0593  0.4321  0.0924
13807TIP3   OH262835   5.618   5.976   1.476 -0.0570  0.2269 -0.7010
13807TIP3    H162836   5.657   6.061   1.494 -0.8801  0.6936 -1.0720
13807TIP3    H262837   5.546   5.994   1.416 -1.7103 -0.4276  0.9827
13808TIP3   OH262838   5.985   6.601  13.645 -0.2958 -0.5200 -0.0428
13808TIP3    H162839   6.025   6.585  13.731 -2.1912 -0.4180  0.9146
13808TIP3    H262840   5.927   6.527  13.632 -1.7596  0.5957 -0.1376
13809TIP3   OH262841   3.587   6.094  11.573 -0.1649  0.2871 -0.1671
13809TIP3    H162842   3.610   6.029  11.507 -0.1693  1.0562 -0.9416
13809TIP3    H262843   3.529   6.155  11.527 -2.2086 -0.5215  1.1934
13810TIP3   OH262844   5.894   6.189  11.659  0.5812  0.3627  1.0150
13810TIP3    H162845   5.951   6.205  11.583  0.6735  0.8611  1.1825
13810TIP3    H262846   5.821   6.139  11.623  1.4755 -0.9497  0.9311
13811TIP3   OH262847   1.893   1.509   2.047  0.1054 -0.6285 -0.0249
13811TIP3    H162848   1.830   1.491   2.116 -0.7382 -0.7684 -0.8023
13811TIP3    H262849   1.854   1.580   1.996  1.9123  1.2818  1.1141
13812TIP3   OH262850   5.490   0.663   4.963  0.3794 -0.3251 -0.1006
13812TIP3    H162851   5.538   0.651   4.882  1.4173 -0.3999  0.5017
13812TIP3    H262852   5.554   0.699   5.024  0.2133 -2.1810  1.2894
13813TIP3   OH262853   1.847   0.428   3.786  0.0037 -0.4187 -0.3689
13813TIP3    H162854   1.796   0.476   3.851 -0.1323 -1.1928  0.1129
13813TIP3    H262855   1.857   0.340   3.824  0.8346 -0.5703 -0.9122
13814TIP3   OH262856   0.781   3.928  13.495 -0.4727 -0.2071  0.6426
13814TIP3    H162857   0.742   3.848  13.530 -1.3876 -0.0674 -0.0192
13814TIP3    H262858   0.707   3.981  13.468  0.1309  0.7885  0.8822
13815TIP3   OH262859   4.314   2.437  13.482  0.5896 -0.2976  0.0694
13815TIP3    H162860   4.377   2.425  13.553 -0.7294 -0.9342  1.1745
13815TIP3    H262861   4.307   2.351  13.441  1.5560  0.1332 -1.0416
13816TIP3   OH262862   5.542   0.506  16.209  0.4199  0.2221 -0.3392
13816TIP3    H162863   5.473   0.458  16.254  1.7363 -0.4907  1.0381
13816TIP3    H262864   5.576   0.566  16.276  1.2408  0.4219 -0.9191
13817TIP3   OH262865   1.275   0.304   4.373  0.1436  0.6886 -0.1667
13817TIP3    H162866   1.256   0.365   4.302 -0.5214  1.0907  0.3434
13817TIP3    H262867   1.291   0.220   4.330 -2.5255  0.3586 -0.7121
13818TIP3   OH262868   3.539   4.303   4.175 -0.4598  0.0242 -0.2176
13818TIP3    H162869   3.558   4.318   4.083  1.6887  1.1879  0.3431
13818TIP3    H262870   3.444   4.309   4.181 -0.8469 -2.0176 -2.6278
13819TIP3   OH262871   6.602   1.449   3.541  0.8085 -1.1009 -0.6596
13819TIP3    H162872   6.550   1.410   3.471 -0.9576  0.1676 -0.1322
13819TIP3    H262873   6.648   1.375   3.581  0.4255 -2.0913 -1.9848
13820TIP3   OH262874   1.578   4.572  13.115 -0.2384 -0.0564 -0.0268
13820TIP3    H162875   1.665   4.553  13.080 -0.6606 -0.9077 -0.6633
13820TIP3    H262876   1.593   4.633  13.187  0.9583 -0.8425  0.4213
13821TIP3   OH262877   6.252   2.925   4.269 -0.1697  0.5741  0.4015
13821TIP3    H162878   6.267   3.019   4.260 -0.7507  0.7306  1.0109
13821TIP3    H262879   6.160   2.913   4.245  0.3034 -0.0722 -1.2325
13822TIP3   OH262880   3.177   1.659  10.469  0.4686  0.3780  0.1114
13822TIP3    H162881   3.160   1.709  10.549  2.2908  0.0368  0.7659
13822TIP3    H262882   3.130   1.705  10.401  0.0455  1.5160  1.1433
13823TIP3   OH262883   5.780   6.133   5.673  0.1143  0.3384 -0.4330
13823TIP3    H162884   5.775   6.129   5.768  0.9321  0.0767 -0.3879
13823TIP3    H262885   5.689   6.130   5.643 -0.1381  0.2652  0.3292
13824TIP3   OH262886   3.811   5.183   0.721  0.0385 -0.0966 -0.2417
13824TIP3    H162887   3.763   5.250   0.672 -0.8809 -0.4227  0.2008
13824TIP3    H262888   3.881   5.156   0.662  0.5513  1.3891 -0.3629
13825TIP3   OH262889   0.527   0.441   1.757  0.5367 -0.3117 -0.1568
13825TIP3    H162890   0.491   0.530   1.754  1.3464  0.0440  0.2809
13825TIP3    H262891   0.507   0.410   1.845  2.6955  0.5258  0.7025
13826TIP3   OH262892   2.032   3.668  14.920  0.1262  0.1464 -0.0606
13826TIP3    H162893   2.086   3.747  14.918  0.6397 -0.2052 -0.2728
13826TIP3    H262894   1.960   3.686  14.859 -0.8739  1.2253  1.3638
13827TIP3   OH262895   3.728   6.272   2.212  0.0927  0.4945  0.1798
13827TIP3    H162896   3.723   6.241   2.121  2.1260 -1.7705  0.7712
13827TIP3    H262897   3.819   6.259   2.237 -0.6187  0.1978  2.8636
13828TIP3   OH262898   5.641   3.363   1.693 -0.4971 -0.0851  0.1383
13828TIP3    H162899   5.613   3.445   1.652 -1.7462 -0.1633  0.7691
13828TIP3    H262900   5.560   3.312   1.699 -0.3605 -0.1125  2.5965
13829TIP3   OH262901   2.931   5.814   3.529  0.6012  0.3249  0.2496
13829TIP3    H162902   2.918   5.821   3.434 -0.0559  1.7674  0.4141
13829TIP3    H262903   2.965   5.900   3.555 -2.2142  1.1585  1.7093
13830TIP3   OH262904   4.716   2.397   6.066 -0.0467  0.1038 -0.7052
13830TIP3    H162905   4.757   2.317   6.099  0.0825 -0.1922 -1.5754
13830TIP3    H262906   4.767   2.468   6.105  0.1809 -0.2442 -0.3649
13831TIP3   OH262907   1.390   3.845   3.578 -0.0334  0.3491  0.5541
13831TIP3    H162908   1.352   3.793   3.507 -0.4725 -1.3906  1.9865
13831TIP3    H262909   1.335   3.923   3.583 -0.9466 -0.2494  0.0154
13832TIP3   OH262910   6.025   0.463   4.744 -0.2553  0.3698  0.5342
13832TIP3    H162911   6.057   0.553   4.744  0.7019  0.0427  1.0299
13832TIP3    H262912   6.098   0.412   4.710 -0.3244 -0.3761  1.4756
13833TIP3   OH262913   5.812   1.159   1.462 -0.3503  0.2029  0.1359
13833TIP3    H162914   5.731   1.202   1.436 -1.2527 -1.8296 -0.5785
13833TIP3    H262915   5.786   1.093   1.525  0.9202  0.2405  0.7442
13834TIP3   OH262916   0.201   4.519  17.189 -0.4408  0.2037  0.2770
13834TIP3    H162917   0.179   4.450  17.126  0.2017 -1.0218  1.3466
13834TIP3    H262918   0.142   4.591  17.167 -0.8043 -0.4932 -1.1846
13835TIP3   OH262919   2.532   5.919  14.207 -0.3095 -0.6622 -1.2709
13835TIP3    H162920   2.613   5.884  14.244 -0.2942 -0.0984 -0.7555
13835TIP3    H262921   2.517   5.868  14.128  0.8190 -0.4211 -1.6448
13836TIP3   OH262922   0.443   2.537  11.029  0.2617 -0.5715 -0.3508
13836TIP3    H162923   0.523   2.552  10.978  0.2817 -1.7525 -0.6919
13836TIP3    H262924   0.408   2.454  10.996 -1.7952  0.5206 -1.0554
13837TIP3   OH262925   6.075   1.906  11.020 -0.0487  0.3403 -0.0329
13837TIP3    H162926   6.120   1.844  10.963  0.6536  0.1330  0.7276
13837TIP3    H262927   5.986   1.909  10.986  0.0910 -0.5454 -0.5165
13838TIP3   OH262928   3.139   2.359  13.745 -0.1113  0.3245  0.4853
13838TIP3    H162929   3.198   2.299  13.698 -1.3319 -0.8306  0.3723
13838TIP3    H262930   3.163   2.349  13.837  0.4532  0.5191  0.3607
13839TIP3   OH262931   5.480   5.597   4.008  0.2444 -0.9311 -0.0119
13839TIP3    H162932   5.516   5.601   3.920  0.8080 -1.5503  0.1816
13839TIP3    H262933   5.452   5.506   4.019 -0.7175 -0.6382  0.1093
13840TIP3   OH262934   2.710   0.021  16.779  0.0931 -1.0401 -0.0983
13840TIP3    H162935   2.798   0.055  16.762 -0.1031  0.1010  1.0433
13840TIP3    H262936   2.717  -0.073  16.762  1.0982 -0.7178 -1.6611
13841TIP3   OH262937   5.345   0.129  13.831 -0.4344  0.3125  0.6995
13841TIP3    H162938   5.426   0.180  13.837  0.2472 -0.3534 -1.8127
13841TIP3    H262939   5.329   0.119  13.737 -3.0843 -0.1676  1.1124
13842TIP3   OH262940   3.305   5.686   4.090 -0.3674 -0.1403  0.6308
13842TIP3    H162941   3.337   5.635   4.016 -0.0421 -0.8156  1.2215
13842TIP3    H262942   3.364   5.761   4.095  1.2090 -1.3997  1.7404
13843TIP3   OH262943   2.082   3.480   3.361 -0.4339 -0.5230 -0.1456
13843TIP3    H162944   2.112   3.470   3.452  0.4594  1.3338 -0.1872
13843TIP3    H262945   2.119   3.404   3.316 -0.0104 -0.9181  0.8307
13844TIP3   OH262946   4.906   0.347  16.599  0.5308 -0.3930  0.4138
13844TIP3    H162947   4.837   0.407  16.624  2.2501  1.9327 -0.1001
13844TIP3    H262948   4.882   0.264  16.640 -1.9974  0.5852  1.0590
13845TIP3   OH262949   6.634   3.280  14.437 -0.1711  0.4045 -0.2108
13845TIP3    H162950   6.585   3.292  14.356 -0.1930  0.5348 -0.1786
13845TIP3    H262951   6.716   3.328  14.423 -0.4384  0.9526  0.0808
13846TIP3   OH262952   0.904   5.736  16.005  0.1492 -0.8651 -0.4349
13846TIP3    H162953   0.891   5.657  16.057  0.5643 -0.6461  0.0096
13846TIP3    H262954   0.822   5.783  16.010  0.7991  0.1409  1.7036
13847TIP3   OH262955   2.425   1.685   2.260  0.1143  0.1862 -0.1656
13847TIP3    H162956   2.429   1.703   2.354  1.2437  0.5039 -0.2683
13847TIP3    H262957   2.513   1.655   2.236 -0.4079 -0.8238 -0.9480
13848TIP3   OH262958   2.629   1.204   5.036 -0.2752 -0.1279  0.1880
13848TIP3    H162959   2.695   1.271   5.054 -1.3502  0.8825  0.4916
13848TIP3    H262960   2.600   1.176   5.123  0.7062 -1.5851  0.0860
13849TIP3   OH262961   3.977   5.839   1.501 -0.4638 -0.0301 -0.0001
13849TIP3    H162962   3.931   5.764   1.463  0.2239 -0.3907 -0.1420
13849TIP3    H262963   4.061   5.841   1.455  0.4616 -0.5757  1.5849
13850TIP3   OH262964   1.207   6.164   1.718 -0.1982  0.6898 -0.1087
13850TIP3    H162965   1.165   6.112   1.649  0.9883  0.8267 -0.9587
13850TIP3    H262966   1.252   6.099   1.772 -0.6397  0.6333  0.1919
13851TIP3   OH262967   6.508   1.925  14.870  0.3477  0.3087 -0.7294
13851TIP3    H162968   6.518   1.976  14.951  0.4396  0.0888 -0.6007
13851TIP3    H262969   6.567   1.966  14.808  1.8966 -0.8086 -0.0656
13852TIP3   OH262970   4.402   0.875   1.935  1.0482  0.0166  0.2210
13852TIP3    H162971   4.408   0.964   1.970  0.1852  0.6366 -1.0965
13852TIP3    H262972   4.430   0.819   2.006  0.7705  1.2983  1.3831
13853TIP3   OH262973   0.629   0.564   2.579 -0.3145 -0.7717 -0.3764
13853TIP3    H162974   0.695   0.505   2.615  1.0241  0.0647 -1.3735
13853TIP3    H262975   0.546   0.531   2.614  0.6838 -1.3212  1.6144
13854TIP3   OH262976   1.095   1.237   2.352  0.8908 -0.0523  0.0576
13854TIP3    H162977   1.010   1.193   2.345  0.6015  0.0397  2.1186
13854TIP3    H262978   1.146   1.181   2.410  1.9880  0.2592 -0.5973
13855TIP3   OH262979   6.295   4.299   3.358 -0.4273  0.2560  0.1768
13855TIP3    H162980   6.369   4.353   3.386  0.5297 -0.4625 -0.8495
13855TIP3    H262981   6.226   4.362   3.338  0.3941  1.0657 -0.2305
13856TIP3   OH262982   4.598   5.310   2.387 -0.0910 -0.1532  0.0551
13856TIP3    H162983   4.524   5.253   2.365  1.2075 -0.9793 -2.5270
13856TIP3    H262984   4.592   5.383   2.325  2.5430 -1.4997 -2.0179
13857TIP3   OH262985   3.460   0.036   0.552 -0.5293 -0.0558 -0.1224
13857TIP3    H162986   3.555   0.028   0.543 -0.6064 -2.5740  0.4215
13857TIP3    H262987   3.430   0.060   0.464  0.5018 -0.8037 -0.7106
13858TIP3   OH262988   1.224   2.936  16.034 -0.0889 -0.3887  0.2318
13858TIP3    H162989   1.151   2.997  16.023  1.2182  1.4152  0.9249
13858TIP3    H262990   1.252   2.915  15.945 -0.1000  0.6650 -0.0352
13859TIP3   OH262991   5.393   6.740   4.300 -0.7150 -0.0314 -0.0390
13859TIP3    H162992   5.371   6.832   4.314 -1.7888 -0.0531 -1.3056
13859TIP3    H262993   5.431   6.738   4.212  0.8834 -0.5817  0.6262
13860TIP3   OH262994   3.385   0.026  16.730 -0.5143  0.2213 -0.8236
13860TIP3    H162995   3.296   0.001  16.703 -0.2804 -2.2367  0.3974
13860TIP3    H262996   3.440  -0.046  16.699  0.3447 -0.6155  2.3484
13861TIP3   OH262997   2.094   0.521   3.869  0.1631 -0.1734  0.5716
13861TIP3    H162998   2.092   0.590   3.934 -1.3974  0.8364 -0.4507
13861TIP3    H262999   2.001   0.504   3.850  0.5535 -1.3305 -0.4479
13862TIP3   OH263000   0.793   5.703   0.685  0.3536  0.1973 -0.2986
13862TIP3    H163001   0.794   5.609   0.667 -1.9776  0.0013  0.2047
13862TIP3    H263002   0.877   5.735   0.653  0.6620 -1.8307 -1.7166
13863TIP3   OH263003   1.629   3.564  17.150  0.1876  0.0267 -0.1946
13863TIP3    H163004   1.652   3.474  17.171  0.0566 -0.0964 -0.5588
13863TIP3    H263005   1.536   3.570  17.172 -0.7752 -0.9870 -3.4205
13864TIP3   OH263006   2.239   3.804   0.803 -0.7395 -0.4323  0.1463
13864TIP3    H163007   2.260   3.733   0.741  0.8584 -0.0502  0.2127
13864TIP3    H263008   2.180   3.861   0.754  0.4335 -0.1844 -1.0277
13865TIP3   OH263009   1.010   0.637   2.170  0.6212 -0.3710  0.2521
13865TIP3    H163010   1.102   0.662   2.177  0.7007 -0.6258  0.1207
13865TIP3    H263011   0.964   0.701   2.225  0.9574 -0.7382  0.9675
13866TIP3   OH263012   6.631   4.361   5.713 -0.3533  0.1144  0.0221
13866TIP3    H163013   6.629   4.434   5.776  0.4309  1.3372 -1.2922
13866TIP3    H263014   6.659   4.286   5.764 -1.6538  0.6086  1.5347
13867TIP3   OH263015   0.262   0.405  12.342  0.2354 -0.7746  0.4747
13867TIP3    H163016   0.203   0.337  12.311 -0.9637  0.7581 -0.8015
13867TIP3    H263017   0.212   0.452  12.409  0.6265 -0.4926  0.5721
13868TIP3   OH263018   3.521   0.665  15.196  0.0792  0.0523  0.2092
13868TIP3    H163019   3.614   0.676  15.177  0.5211 -1.2615  1.3920
13868TIP3    H263020   3.488   0.609  15.125  0.4232 -0.2801  0.3117
13869TIP3   OH263021   5.062   6.203   1.226  0.5329 -0.3982 -0.4380
13869TIP3    H163022   5.121   6.269   1.262 -0.5028  0.6176 -0.5584
13869TIP3    H263023   5.010   6.173   1.301  1.2070 -1.3399 -0.3189
13870TIP3   OH263024   1.832   1.114  15.509 -0.3025 -0.0781 -0.4507
13870TIP3    H163025   1.864   1.024  15.499 -0.8220 -0.2748 -0.4024
13870TIP3    H263026   1.908   1.164  15.537 -0.8117 -1.2600  3.6719
13871TIP3   OH263027   6.629   3.940  12.463 -0.1129  0.0547  0.0611
13871TIP3    H163028   6.624   3.954  12.368  1.3011  0.0548 -0.0296
13871TIP3    H263029   6.578   4.012  12.500 -2.4836 -1.1125 -0.7301
13872TIP3   OH263030   5.128   0.814   5.770 -0.2476 -0.1165 -0.1459
13872TIP3    H163031   5.181   0.838   5.846 -0.1741 -0.6464 -0.0246
13872TIP3    H263032   5.155   0.725   5.749 -1.2051 -0.4571  0.0161
13873TIP3   OH263033   6.061   4.763  13.484  1.1262 -0.1342 -0.0011
13873TIP3    H163034   6.046   4.766  13.390  1.3961  1.5628 -0.0221
13873TIP3    H263035   5.985   4.716  13.519  0.6273 -0.0885 -0.9875
13874TIP3   OH263036   3.540   5.229  12.023 -0.3419 -0.1559 -0.4956
13874TIP3    H163037   3.558   5.323  12.023 -0.7170 -0.0426 -2.4587
13874TIP3    H263038   3.579   5.197  12.104  0.1400  1.6295  0.0117
13875TIP3   OH263039   3.054   5.780   0.004 -0.3166  0.4476 -0.2476
13875TIP3    H163040   3.138   5.812  -0.031 -0.5232  1.3011  0.0124
13875TIP3    H263041   3.012   5.858   0.039 -1.2888  0.0531 -0.5023
13876TIP3   OH263042   5.880   2.502   3.576 -0.5426 -0.1436  0.5006
13876TIP3    H163043   5.821   2.491   3.503  0.0561  0.7758 -0.1440
13876TIP3    H263044   5.955   2.447   3.555  0.2665  1.2044 -0.3160
13877TIP3   OH263045   4.777   0.450   3.004 -0.4802  0.0208  0.3878
13877TIP3    H163046   4.767   0.366   2.960  0.9272 -0.9301  1.8073
13877TIP3    H263047   4.687   0.485   3.008 -0.9087 -0.7391 -1.4236
13878TIP3   OH263048   6.623   4.197  16.236  0.2926  0.3340 -0.2613
13878TIP3    H163049   6.542   4.246  16.218  0.8605  1.6349  0.5664
13878TIP3    H263050   6.592   4.111  16.266 -0.8192  1.0028  0.6159
13879TIP3   OH263051   1.952   2.090  14.843  0.1287 -0.2994 -0.0264
13879TIP3    H163052   1.906   2.047  14.915 -0.5974 -0.8708 -0.8129
13879TIP3    H263053   1.891   2.085  14.770 -0.3014  2.6777  0.0044
13880TIP3   OH263054   0.194   3.702  16.414  0.1591 -0.6429 -0.9849
13880TIP3    H163055   0.155   3.788  16.401  3.0594  0.6380 -2.2323
13880TIP3    H263056   0.219   3.701  16.506 -2.1562 -1.2822 -0.3029
13881TIP3   OH263057   4.506   2.919   5.580  0.1491 -0.6454 -0.2677
13881TIP3    H163058   4.455   2.973   5.520 -0.1239 -1.1507 -0.4994
13881TIP3    H263059   4.470   2.831   5.569 -2.0456 -0.2912  2.8566
13882TIP3   OH263060   0.042   5.955  14.711  0.2815 -0.5384  0.0568
13882TIP3    H163061   0.029   5.910  14.794  1.4731  3.2658  2.5879
13882TIP3    H263062  -0.033   6.014  14.703 -0.2665 -1.4298 -2.1115
13883TIP3   OH263063   1.576   2.569   2.043 -0.3770 -0.5042 -0.3332
13883TIP3    H163064   1.655   2.530   2.006 -0.0309 -1.1003  0.9414
13883TIP3    H263065   1.601   2.658   2.066 -0.3576 -0.3918 -0.7955
13884TIP3   OH263066   3.898   1.838  10.745  0.2504 -0.0197  0.0325
13884TIP3    H163067   3.834   1.874  10.684  0.3924  0.1201 -0.0386
13884TIP3    H263068   3.891   1.743  10.737 -0.0201 -0.0051  0.1042
13885TIP3   OH263069   2.117   3.912   3.038  0.0611 -0.0809 -0.1428
13885TIP3    H163070   2.154   3.826   3.056  0.5709  0.2012  0.1644
13885TIP3    H263071   2.133   3.962   3.118  0.3191  0.4900 -0.5491
13886TIP3   OH263072   4.585   6.013   5.724 -0.5180  0.1004  0.5261
13886TIP3    H163073   4.602   6.029   5.817  2.7248 -0.5764  0.1785
13886TIP3    H263074   4.548   6.096   5.692  0.7816  1.2864  1.9130
13887TIP3   OH263075   0.577   3.696  16.827  0.5852 -0.1511  0.4313
13887TIP3    H163076   0.593   3.725  16.737 -2.2313  1.6117  0.3645
13887TIP3    H263077   0.578   3.777  16.878 -1.7747 -0.5714  1.2539
13888TIP3   OH263078   1.667   1.136  15.958  0.1272 -0.4542 -0.3910
13888TIP3    H163079   1.625   1.085  15.889 -1.1966  0.6752 -0.4675
13888TIP3    H263080   1.755   1.154  15.925 -0.4739  0.0564 -1.7814
13889TIP3   OH263081   0.859   5.010   2.213 -0.1873  0.3727  0.3506
13889TIP3    H163082   0.894   5.090   2.172  2.0295 -1.7039 -2.2077
13889TIP3    H263083   0.767   5.008   2.186  0.0009  1.5097 -0.4768
13890TIP3   OH263084   6.282   6.689   0.779  0.7312 -0.0152 -0.1567
13890TIP3    H163085   6.286   6.617   0.716 -0.7955 -0.9682  0.7736
13890TIP3    H263086   6.365   6.735   0.768  1.8874 -2.0736 -0.5799
13891TIP3   OH263087   6.069   5.992  14.183  0.3792  0.0771 -0.6194
13891TIP3    H163088   6.076   5.966  14.275 -0.3139  1.8096 -0.0186
13891TIP3    H263089   6.013   5.926  14.143 -0.0157 -0.2374  0.4200
13892TIP3   OH263090   1.949   4.848   5.887  0.2958 -0.3731 -0.3886
13892TIP3    H163091   1.981   4.777   5.942 -0.5001  0.9654  1.9356
13892TIP3    H263092   1.912   4.911   5.948  1.2003  2.1986 -2.3117
13893TIP3   OH263093   5.826   4.824   3.436  0.0513  0.0129 -0.6629
13893TIP3    H163094   5.756   4.806   3.499 -1.4964  1.3788 -1.8892
13893TIP3    H263095   5.831   4.745   3.383  0.4770 -0.6501  0.3295
13894TIP3   OH263096   6.614   1.246   2.345  0.0807  0.0951  0.4615
13894TIP3    H163097   6.692   1.245   2.291  0.6351  0.6501  1.2326
13894TIP3    H263098   6.602   1.338   2.369  0.3855 -0.2387  2.0298
13895TIP3   OH263099   3.476   0.588  12.036  0.1343 -0.0669  0.2687
13895TIP3    H163100   3.530   0.664  12.061 -0.2876 -0.2125  1.7065
13895TIP3    H263101   3.421   0.621  11.965  0.3532  0.8204  0.4939
13896TIP3   OH263102   1.292   6.127  15.584  0.1882 -0.4847 -0.0968
13896TIP3    H163103   1.365   6.189  15.586 -0.3135  0.1023  0.7418
13896TIP3    H263104   1.334   6.041  15.575  1.0076 -0.1848  0.6591
13897TIP3   OH263105   0.639   1.254  10.859 -0.0128 -0.1685  0.0499
13897TIP3    H163106   0.663   1.172  10.816 -1.1437 -1.4060  1.6578
13897TIP3    H263107   0.558   1.280  10.817  1.1638  1.0606 -1.5828
13898TIP3   OH263108   5.628   4.506   2.730  0.0028 -0.0677  0.2782
13898TIP3    H163109   5.693   4.572   2.706 -0.6368  0.5340  0.1552
13898TIP3    H263110   5.553   4.524   2.673 -1.4070  1.1503  2.3511
13899TIP3   OH263111   6.485   6.013   0.577 -0.2373  0.8024  0.3068
13899TIP3    H163112   6.417   5.949   0.556  0.4617  0.3843 -0.7598
13899TIP3    H263113   6.560   5.961   0.605  0.1103  1.1806  0.1036
13900TIP3   OH263114   5.409   3.212   5.835 -0.3848 -0.3255  0.4871
13900TIP3    H163115   5.316   3.226   5.855 -0.1101 -0.2087  1.8084
13900TIP3    H263116   5.440   3.298   5.808 -0.4850 -0.1638  0.8674
13901TIP3   OH263117   3.865   1.429  12.337 -0.6390  0.0702 -0.0117
13901TIP3    H163118   3.830   1.399  12.253 -0.1476 -0.8810  0.1044
13901TIP3    H263119   3.870   1.524  12.329 -0.5142 -0.0163 -1.0910
13902TIP3   OH263120   3.550   5.778   1.263 -0.1731 -0.5083  0.0909
13902TIP3    H163121   3.579   5.832   1.337  2.2073 -3.6129  1.6759
13902TIP3    H263122   3.522   5.841   1.197  2.3248  2.6439  1.7461
13903TIP3   OH263123   5.563   0.335  12.478  0.6566 -0.6833 -0.2868
13903TIP3    H163124   5.558   0.431  12.472  1.2174 -0.6393 -0.0679
13903TIP3    H263125   5.604   0.308  12.396 -1.5065 -0.9256 -1.3699
13904TIP3   OH263126   6.530   0.031  15.122 -0.0078 -0.2667 -0.5275
13904TIP3    H163127   6.593   0.100  15.100  1.6959 -1.8596 -0.8254
13904TIP3    H263128   6.572  -0.019  15.192 -1.7377 -0.3279  0.5267
13905TIP3   OH263129   6.250   0.650  15.338  0.0907  0.1114  0.6908
13905TIP3    H163130   6.291   0.617  15.258  0.3442  0.5521  0.6311
13905TIP3    H263131   6.298   0.606  15.408  2.7594  2.7247  0.7455
13906TIP3   OH263132   5.540   5.289   4.581 -0.0411 -0.2006  0.7944
13906TIP3    H163133   5.462   5.268   4.633 -0.4882  0.2346  0.3068
13906TIP3    H263134   5.518   5.260   4.492  0.3362 -0.0280  0.6466
13907TIP3   OH263135   4.851   0.525  15.802  0.0619 -0.2439 -0.2359
13907TIP3    H163136   4.889   0.439  15.821  1.0512 -0.7511 -3.7499
13907TIP3    H263137   4.901   0.586  15.857  1.2174 -1.6408  0.3295
13908TIP3   OH263138   0.511   3.188  11.831  0.0311  0.4868  0.6519
13908TIP3    H163139   0.552   3.248  11.768 -0.9202  0.3000 -0.1684
13908TIP3    H263140   0.501   3.240  11.911  2.8373  0.2213  1.2723
13909TIP3   OH263141   4.158   3.059  16.768  0.4735 -0.0678  0.1577
13909TIP3    H163142   4.076   3.015  16.791  0.9078 -0.4731  0.9492
13909TIP3    H263143   4.223   3.023  16.828  1.1265  0.6428 -0.1018
13910TIP3   OH263144   2.617   6.067   0.265  0.0729  0.3214 -0.0819
13910TIP3    H163145   2.553   6.072   0.335 -0.4873  4.0251 -0.6991
13910TIP3    H263146   2.699   6.097   0.305  0.9616 -2.0703  0.0745
13911TIP3   OH263147   4.337   0.602  11.285  0.4443 -0.1646 -0.2404
13911TIP3    H163148   4.418   0.597  11.234  0.8113  1.1925  0.1768
13911TIP3    H263149   4.345   0.532  11.349  2.5960  1.6239  1.5846
13912TIP3   OH263150   4.523   6.034   0.544  0.5070 -0.1055  0.1085
13912TIP3    H163151   4.524   5.998   0.633  2.2858  0.8556  0.5344
13912TIP3    H263152   4.566   5.968   0.491 -0.0795 -0.4474  0.0494
13913TIP3   OH263153   0.740   0.376  12.594 -0.5508 -0.3551  0.1787
13913TIP3    H163154   0.801   0.302  12.599 -1.3968 -0.9822  2.5882
13913TIP3    H263155   0.670   0.344  12.538  1.6985  0.8117 -3.6995
13914TIP3   OH263156   0.097   4.914  12.516 -0.6083 -0.2305 -0.1472
13914TIP3    H163157   0.164   4.847  12.502 -0.6352 -0.2136 -0.3660
13914TIP3    H263158   0.103   4.936  12.609 -0.7794 -0.7350 -0.0128
13915TIP3   OH263159   4.547   5.445   0.654 -0.5982  0.2075 -0.8309
13915TIP3    H163160   4.483   5.449   0.583 -0.5369  0.2854 -0.8830
13915TIP3    H263161   4.545   5.354   0.684 -0.7147  0.2037 -0.8498
13916TIP3   OH263162   2.164   6.025  14.002 -0.3003 -0.3653  0.3791
13916TIP3    H163163   2.117   5.957  14.049  0.3487 -0.5775  0.7289
13916TIP3    H263164   2.193   5.983  13.921  0.5079 -0.6495  0.8083
13917TIP3   OH263165   5.711   2.035   5.585  0.4053 -0.4666  0.4814
13917TIP3    H163166   5.710   1.941   5.566  0.7973 -0.2174 -0.8116
13917TIP3    H263167   5.749   2.041   5.673  3.0570 -1.3373 -0.5289
13918TIP3   OH263168   5.052   2.352   2.488 -0.3317 -0.3877 -0.1551
13918TIP3    H163169   5.004   2.296   2.427 -1.2046  0.0204  0.1491
13918TIP3    H263170   5.011   2.337   2.573 -0.3552  0.4482 -0.0064
13919TIP3   OH263171   4.935   3.353   3.820  0.8027 -0.1923  0.1168
13919TIP3    H163172   4.874   3.425   3.838  0.8853 -0.1016  0.0365
13919TIP3    H263173   4.947   3.356   3.725 -0.0634 -1.0166 -0.0361
13920TIP3   OH263174   3.247   4.448  10.806 -0.4412 -0.5249  0.4447
13920TIP3    H163175   3.208   4.427  10.721  0.1884 -2.1980  0.5206
13920TIP3    H263176   3.172   4.462  10.863 -0.8766  0.9354 -0.4264
13921TIP3   OH263177   6.340   5.953   0.047 -0.1744  0.6490 -0.0387
13921TIP3    H163178   6.369   5.900   0.122 -0.0743  1.4152  0.4774
13921TIP3    H263179   6.279   6.016   0.085  0.3484  1.4400 -0.5014
13922TIP3   OH263180   2.688   3.070   0.627 -0.6568 -0.1382 -0.6985
13922TIP3    H163181   2.695   3.037   0.717  1.8427 -0.3329 -0.9161
13922TIP3    H263182   2.707   3.163   0.634 -4.9006  0.9169 -0.5040
13923TIP3   OH263183   4.060   3.670  16.399 -0.4138 -0.7456  0.0142
13923TIP3    H163184   4.097   3.598  16.349  3.7085  0.2377  1.2907
13923TIP3    H263185   4.062   3.640  16.490  0.6411  0.6231  0.4750
13924TIP3   OH263186   2.107   0.461   5.860  0.0147 -0.1268 -0.4626
13924TIP3    H163187   2.082   0.477   5.951  0.1279 -0.9281 -0.2839
13924TIP3    H263188   2.024   0.439   5.817  0.4385 -4.3253  0.4580
13925TIP3   OH263189   6.530   6.104   4.304  0.0100  0.1387  0.4177
13925TIP3    H163190   6.517   6.160   4.228 -1.2864  1.0549  1.2685
13925TIP3    H263191   6.443   6.069   4.324  0.5176 -0.9222  0.8615
13926TIP3   OH263192   2.595   4.263  12.564  0.1866  0.3772  0.4360
13926TIP3    H163193   2.622   4.335  12.506 -0.3207  0.5759  0.4424
13926TIP3    H263194   2.619   4.293  12.652 -1.7572  1.3960  0.6644
13927TIP3   OH263195   1.607   3.397  12.810  0.0996 -0.0053 -0.0571
13927TIP3    H163196   1.597   3.311  12.850  1.4537 -0.5181 -0.7598
13927TIP3    H263197   1.697   3.398  12.776  0.8455  2.4194  1.6764
13928TIP3   OH263198   6.357   2.332  15.063  0.4595 -0.4370  0.3874
13928TIP3    H163199   6.397   2.410  15.101  0.1620  0.5593 -1.2373
13928TIP3    H263200   6.277   2.318  15.114 -0.4881  1.4913 -0.4957
13929TIP3   OH263201   0.358   4.596  13.185  0.3835  0.4854  0.0009
13929TIP3    H163202   0.340   4.548  13.104 -1.0057 -0.3105  0.7447
13929TIP3    H263203   0.454   4.598  13.191  0.5770 -3.1590  0.4295
13930TIP3   OH263204   2.257   4.872   1.431 -0.2483  0.1391 -0.3979
13930TIP3    H163205   2.294   4.810   1.494  0.3043  0.2813 -0.5773
13930TIP3    H263206   2.259   4.956   1.476 -3.4199 -0.3230  0.8682
13931TIP3   OH263207   6.341   4.462   0.112  0.4669  0.2673 -0.5122
13931TIP3    H163208   6.429   4.497   0.125  0.2177  0.2684  1.3086
13931TIP3    H263209   6.284   4.520   0.162 -0.2647 -1.1774  0.4056
13932TIP3   OH263210   4.263   0.135   6.490 -0.3262 -0.0316  0.1059
13932TIP3    H163211   4.245   0.226   6.516  0.9187  0.1548  0.3733
13932TIP3    H263212   4.192   0.085   6.530 -0.3870  0.6870  0.9503
13933TIP3   OH263213   5.464   3.633  13.347  0.4651 -0.6267  0.6317
13933TIP3    H163214   5.499   3.692  13.280 -2.2733 -0.3701 -0.7156
13933TIP3    H263215   5.418   3.690  13.408 -1.4373 -1.2424 -0.1731
13934TIP3   OH263216   1.644   4.568   1.380 -0.2138 -0.1936 -1.1110
13934TIP3    H163217   1.634   4.490   1.325 -1.6355 -0.2435 -0.8116
13934TIP3    H263218   1.555   4.593   1.403  0.3067  0.2966  0.5280
13935TIP3   OH263219   6.398   6.496   2.716 -0.4389 -0.3493  0.0644
13935TIP3    H163220   6.464   6.560   2.691 -0.5383 -1.0780 -2.2790
13935TIP3    H263221   6.430   6.413   2.682 -0.5633 -1.5452  2.5906
13936TIP3   OH263222   1.800   0.120   5.865  0.1534 -0.0823  0.1778
13936TIP3    H163223   1.893   0.123   5.887  0.2885 -0.2940 -0.3453
13936TIP3    H263224   1.775   0.212   5.857  0.1776 -0.0132  0.8899
13937TIP3   OH263225   6.715   5.165  15.631 -0.3418  0.1474  0.3415
13937TIP3    H163226   6.699   5.259  15.637 -1.0480  0.0067  0.8909
13937TIP3    H263227   6.628   5.126  15.638 -0.0998 -0.5286 -0.3504
13938TIP3   OH263228   6.090   3.505  10.558 -0.0411 -0.0232  0.2109
13938TIP3    H163229   6.075   3.506  10.464 -0.6729 -3.6879  0.1266
13938TIP3    H263230   6.171   3.553  10.570  1.1426 -1.1243 -2.5039
13939TIP3   OH263231   6.218   3.987   6.789  0.1533 -0.2811 -0.7825
13939TIP3    H163232   6.306   4.019   6.809  1.5878 -3.0357 -2.0489
13939TIP3    H263233   6.229   3.934   6.710 -2.9489  0.3430 -1.7691
13940TIP3   OH263234   6.422   4.783   5.322 -0.1058  0.1543  0.1700
13940TIP3    H163235   6.394   4.708   5.269 -2.4667  1.7356 -0.9856
13940TIP3    H263236   6.517   4.782   5.316 -0.1874 -1.2071 -2.0338
13941TIP3   OH263237   3.017   5.271  13.155 -0.1558 -0.1898 -0.6688
13941TIP3    H163238   3.058   5.261  13.069 -3.6140  0.2352 -2.5477
13941TIP3    H263239   2.970   5.188  13.168  2.0354 -1.1479  1.9516
13942TIP3   OH263240   5.667   1.441  14.445 -0.1212  0.4747  0.3459
13942TIP3    H163241   5.659   1.421  14.352 -2.4895 -2.1187  0.9833
13942TIP3    H263242   5.754   1.410  14.469 -0.7152 -2.0473 -0.4135
13943TIP3   OH263243   4.243   0.724  13.811  0.2997  0.0026 -0.3257
13943TIP3    H163244   4.180   0.659  13.840 -0.4554  0.9583  0.2315
13943TIP3    H263245   4.240   0.792  13.879 -0.0653  1.3553 -1.6461
13944TIP3   OH263246   3.878   2.932   1.849 -0.0270  0.1606  0.2291
13944TIP3    H163247   3.864   2.933   1.754  0.3437 -0.5444  0.1556
13944TIP3    H263248   3.959   2.882   1.860 -0.7272 -0.8346  0.9933
13945TIP3   OH263249   2.792   6.634  11.770  0.0051  0.3568  0.0696
13945TIP3    H163250   2.766   6.644  11.862 -0.8573 -1.1272  0.0266
13945TIP3    H263251   2.884   6.660  11.768 -0.1547  1.0913  1.2121
13946TIP3   OH263252   1.715   4.772  16.023 -0.0692 -0.0296  0.3994
13946TIP3    H163253   1.778   4.797  15.957 -1.3097  0.1765 -0.7493
13946TIP3    H263254   1.699   4.852  16.074 -0.3902  0.2610 -0.1545
13947TIP3   OH263255   4.512   4.219   4.089  0.2231 -0.2262  0.4155
13947TIP3    H163256   4.423   4.204   4.057  0.0238  1.3597  0.1230
13947TIP3    H263257   4.501   4.275   4.166  0.9672  0.4999  0.0199
13948TIP3   OH263258   6.290   6.278  12.778 -0.1749  0.3902 -0.3527
13948TIP3    H163259   6.196   6.294  12.781 -0.3781 -0.8154  0.9280
13948TIP3    H263260   6.321   6.299  12.867  0.1192 -2.5804  0.3459
13949TIP3   OH263261   5.229   4.158   2.937 -0.0659  0.0178 -0.3667
13949TIP3    H163262   5.291   4.178   2.867 -1.2186 -1.9682 -2.0853
13949TIP3    H263263   5.145   4.152   2.892 -1.0863  0.1085  1.4720
13950TIP3   OH263264   5.668   5.070   3.279 -0.0761 -0.4003  0.3599
13950TIP3    H163265   5.684   5.126   3.355 -1.6050 -0.0390  0.4495
13950TIP3    H263266   5.703   4.984   3.305 -1.6347 -0.6261  2.0145
13951TIP3   OH263267   2.308   4.305  16.529  0.1984 -0.4907 -0.0233
13951TIP3    H163268   2.305   4.274  16.439  2.1452 -0.7123 -0.0484
13951TIP3    H263269   2.331   4.398  16.522  0.4201 -0.5245  0.2353
13952TIP3   OH263270   2.729   0.266  16.380 -0.7263  0.7133  0.1594
13952TIP3    H163271   2.769   0.276  16.466  0.0747  0.0062 -0.1184
13952TIP3    H263272   2.770   0.334  16.326  1.1697 -0.8509 -0.4812
13953TIP3   OH263273   1.221   2.118  15.039  0.6275 -0.2053  0.3869
13953TIP3    H163274   1.299   2.074  15.073 -0.4242 -1.1704  1.6618
13953TIP3    H263275   1.217   2.093  14.947  1.1414 -1.1965  0.6172
13954TIP3   OH263276   4.045   1.327  13.705 -0.5267 -0.0394 -0.0809
13954TIP3    H163277   3.993   1.397  13.666 -3.3076 -0.9925  1.5821
13954TIP3    H263278   4.031   1.252  13.648 -1.6932 -0.4994  0.7712
13955TIP3   OH263279   4.952   6.407   3.262  0.2192  0.2718 -0.2041
13955TIP3    H163280   4.942   6.345   3.334  0.4488  1.1467  0.5949
13955TIP3    H263281   5.046   6.423   3.257  0.1420  0.6920 -0.2904
13956TIP3   OH263282   1.486   1.588  14.263 -0.4623  0.2909  0.3748
13956TIP3    H163283   1.426   1.659  14.284 -0.0214  0.7247  0.1671
13956TIP3    H263284   1.559   1.630  14.218 -0.4770 -0.3731 -0.2787
13957TIP3   OH263285   2.114   5.248   4.623 -0.4526  0.5577 -0.1024
13957TIP3    H163286   2.019   5.255   4.632 -0.4329  2.1144 -0.7873
13957TIP3    H263287   2.130   5.258   4.529  0.3463 -0.4888 -0.0990
13958TIP3   OH263288   0.329   0.023  16.323 -0.8748 -0.0604  0.0703
13958TIP3    H163289   0.250   0.016  16.377 -2.4142 -0.0634 -2.0968
13958TIP3    H263290   0.321  -0.046  16.258  0.9535 -0.0831 -0.2028
13959TIP3   OH263291   6.304   2.361   1.139 -0.7816 -0.0628 -0.0880
13959TIP3    H163292   6.264   2.373   1.225  1.7392  1.1335  1.0058
13959TIP3    H263293   6.372   2.295   1.153  1.5210  2.0908 -0.3918
13960TIP3   OH263294   2.218   3.098   2.852 -0.4212 -0.1532  0.1575
13960TIP3    H163295   2.311   3.079   2.842  0.2869  1.2577  2.8762
13960TIP3    H263296   2.197   3.065   2.940 -1.8274  1.7025  0.5843
13961TIP3   OH263297   4.086   6.698   0.618 -0.4198  0.2594  0.3274
13961TIP3    H163298   4.144   6.759   0.573 -0.3571  0.2101  0.3414
13961TIP3    H263299   4.109   6.612   0.583 -2.4328  0.4895 -1.8277
13962TIP3   OH263300   2.659   5.573   5.888 -0.1230 -0.0726 -0.0179
13962TIP3    H163301   2.648   5.509   5.958  1.0979  0.8935  1.0848
13962TIP3    H263302   2.576   5.621   5.887 -0.7088 -1.0522 -0.2570
13963TIP3   OH263303   4.102   5.531  12.709 -0.0725  0.3851 -0.2822
13963TIP3    H163304   4.147   5.539  12.624 -0.1981 -0.4439 -0.4337
13963TIP3    H263305   4.172   5.513  12.771  0.0444  1.1932 -0.1678
13964TIP3   OH263306   4.669   1.465  16.089  0.0163  0.2030  0.2662
13964TIP3    H163307   4.666   1.369  16.081 -0.3002  0.2881 -0.7642
13964TIP3    H263308   4.603   1.485  16.155  0.4680 -0.3303  0.8878
13965TIP3   OH263309   5.212   3.954  12.713  0.0618 -0.3939  0.6002
13965TIP3    H163310   5.129   3.995  12.690  0.5952 -0.0909 -0.8856
13965TIP3    H263311   5.224   3.973  12.806 -0.3498  1.6876  0.2651
13966TIP3   OH263312   1.470   1.214   1.427 -0.2081  0.2294  0.2666
13966TIP3    H163313   1.483   1.177   1.340 -1.0166 -1.8930  0.9845
13966TIP3    H263314   1.557   1.247   1.451  0.8607 -2.0319 -0.1269
13967TIP3   OH263315   3.818   0.407  11.953  0.2849 -0.7404  0.3950
13967TIP3    H163316   3.901   0.411  12.000  0.1259  0.2634  0.6029
13967TIP3    H263317   3.830   0.463  11.877  0.0387 -1.1810  0.0232
13968TIP3   OH263318   3.630   0.907   0.756 -0.8572  0.3838  0.6857
13968TIP3    H163319   3.631   0.847   0.681 -2.8650  0.8418  0.2448
13968TIP3    H263320   3.568   0.867   0.818 -0.1138  0.6164  1.6085
13969TIP3   OH263321   1.581   0.382  17.126 -0.1156 -0.0645 -0.2075
13969TIP3    H163322   1.495   0.414  17.153  0.4437 -0.8918  2.9695
13969TIP3    H263323   1.564   0.325  17.052 -1.8966  2.1315 -1.6092
13970TIP3   OH263324   5.102   3.765   2.233  0.0298  0.0231 -0.3203
13970TIP3    H163325   5.082   3.680   2.271 -1.3961 -0.1263 -1.3250
13970TIP3    H263326   5.189   3.755   2.195 -0.7496 -1.4909 -1.7926
13971TIP3   OH263327   1.302   6.495   1.607 -0.0038  0.6122 -0.0702
13971TIP3    H163328   1.214   6.516   1.639  0.0387  0.8405 -0.1092
13971TIP3    H263329   1.291   6.483   1.513 -0.0504  0.3378 -0.0320
13972TIP3   OH263330   2.246   3.596   5.783 -0.0612  0.4900 -0.3536
13972TIP3    H163331   2.166   3.642   5.809 -1.0444 -1.2172 -0.1673
13972TIP3    H263332   2.257   3.528   5.849  1.8277  0.9716 -0.1310
13973TIP3   OH263333   4.725   2.069  12.783 -0.1698 -0.7058 -0.6935
13973TIP3    H163334   4.799   2.125  12.764 -0.3863 -0.8526 -2.0840
13973TIP3    H263335   4.665   2.124  12.833  1.5245 -1.0574  1.8838
13974TIP3   OH263336   4.096   5.865  17.138 -0.5321  0.0104  0.0488
13974TIP3    H163337   4.090   5.779  17.180  0.2614  0.2446  0.6705
13974TIP3    H263338   4.113   5.846  17.046  2.7436 -0.5730  0.6264
13975TIP3   OH263339   2.428   4.183  12.096 -0.4164 -0.4592  0.0171
13975TIP3    H163340   2.399   4.109  12.043  1.5201 -0.9334 -0.4622
13975TIP3    H263341   2.519   4.197  12.070  0.1849  0.1635  2.2352
13976TIP3   OH263342   1.521   2.968   6.303 -0.0998  0.7076 -0.0382
13976TIP3    H163343   1.429   2.965   6.331  0.0906  0.8618  0.6212
13976TIP3    H263344   1.517   2.967   6.207 -0.8362  1.9698 -0.0342
13977TIP3   OH263345   4.099   0.658  13.535  0.2682  0.3508  0.1662
13977TIP3    H163346   4.136   0.683  13.619  0.0724  0.9822  0.0761
13977TIP3    H263347   4.013   0.622  13.556  0.9557 -1.2198  0.3841
13978TIP3   OH263348   4.701   2.524  15.697  0.5474  0.0394  0.4710
13978TIP3    H163349   4.771   2.471  15.733  0.2522  1.3007  3.1269
13978TIP3    H263350   4.628   2.514  15.758 -0.9664  0.2632 -1.1911
13979TIP3   OH263351   6.689   0.194  12.589 -0.1036 -0.5864 -0.4957
13979TIP3    H163352   6.754   0.258  12.561  2.5874 -2.2174  1.5603
13979TIP3    H263353   6.694   0.124  12.524 -1.2343  0.0873 -1.3532
13980TIP3   OH263354   4.953   5.499  16.903 -0.1546 -0.3356  0.4230
13980TIP3    H163355   4.893   5.572  16.919 -0.7451 -1.0604  1.7211
13980TIP3    H263356   4.906   5.441  16.844 -0.4198 -0.5056  0.7931
13981TIP3   OH263357   1.568   1.979   1.671  0.0852 -0.2068 -0.1544
13981TIP3    H163358   1.548   1.912   1.606 -0.2414 -0.1862 -0.0741
13981TIP3    H263359   1.527   2.059   1.637  2.8206  0.6744 -1.7199
13982TIP3   OH263360   1.743   3.858  15.751  0.2711 -0.5597 -0.4076
13982TIP3    H163361   1.725   3.815  15.668 -1.1321 -0.1033 -0.3635
13982TIP3    H263362   1.661   3.849  15.801  0.0252  1.8202 -0.2568
13983TIP3   OH263363   6.154   0.197  13.383 -0.1786 -0.4636 -0.2374
13983TIP3    H163364   6.159   0.107  13.415 -1.0072 -0.6209 -0.5305
13983TIP3    H263365   6.245   0.220  13.362  0.4315 -0.2864  2.3247
13984TIP3   OH263366   1.838   6.138  16.892 -0.3622  0.2267  0.1649
13984TIP3    H163367   1.797   6.076  16.832 -1.4507  0.0626  1.0408
13984TIP3    H263368   1.767   6.164  16.951  0.3735  1.3704  0.5734
13985TIP3   OH263369   0.483   4.768  14.429 -0.1073  0.2812  0.2267
13985TIP3    H163370   0.420   4.745  14.497  0.6946  1.3410  1.3881
13985TIP3    H263371   0.440   4.838  14.379  0.1101  1.0036  1.0163
13986TIP3   OH263372   3.014   4.408  17.020  0.3301 -0.2467 -0.2035
13986TIP3    H163373   3.082   4.428  17.085  0.9824 -1.6748 -0.4025
13986TIP3    H263374   3.052   4.337  16.967  0.1606  1.3881 -2.6892
13987TIP3   OH263375   4.908   0.017   2.904  0.2972  0.3965  0.3111
13987TIP3    H163376   4.999   0.042   2.922  0.3379  0.0164  0.6334
13987TIP3    H263377   4.915  -0.049   2.835  0.2713  0.3074  0.3939
13988TIP3   OH263378   0.881   4.584  13.629 -0.2546  0.2396 -0.0747
13988TIP3    H163379   0.966   4.542  13.620 -1.6074 -2.5370 -0.9745
13988TIP3    H263380   0.889   4.638  13.708  2.3071  0.1174 -0.1703
13989TIP3   OH263381   4.676   1.342   1.377  0.5028 -0.5554 -0.5755
13989TIP3    H163382   4.622   1.398   1.433  1.4776 -0.4714  0.3024
13989TIP3    H263383   4.687   1.392   1.297 -1.5479 -0.9965 -1.1856
13990TIP3   OH263384   6.669   2.962   3.888 -0.0546 -0.0554 -0.6621
13990TIP3    H163385   6.582   2.923   3.894 -1.0205  2.0975  0.4177
13990TIP3    H263386   6.657   3.052   3.919  2.4315  0.5072 -1.1330
13991TIP3   OH263387   1.887   0.210  16.227  0.7255 -0.0917  0.6636
13991TIP3    H163388   1.942   0.146  16.271 -1.0428 -0.6767  2.1437
13991TIP3    H263389   1.843   0.257  16.298 -1.3172 -0.2359 -0.4082
13992TIP3   OH263390   2.767   4.149   5.155  0.1390  0.0519  0.5606
13992TIP3    H163391   2.728   4.173   5.239 -0.9587  0.3235 -0.0099
13992TIP3    H263392   2.781   4.055   5.160 -0.8668 -0.0995  0.6749
13993TIP3   OH263393   2.846   6.650   5.470 -0.4917  0.2951 -0.7756
13993TIP3    H163394   2.810   6.574   5.515  1.5510 -0.3331 -0.0667
13993TIP3    H263395   2.940   6.646   5.490 -0.4078  3.4237 -0.0730
13994TIP3   OH263396   0.948   3.194  15.385 -0.2210 -0.0597  0.1865
13994TIP3    H163397   1.024   3.182  15.442  0.2244 -0.4423 -0.4791
13994TIP3    H263398   0.891   3.120  15.406 -0.6853  0.5275  1.0862
13995TIP3   OH263399   2.918   0.950  15.407 -0.2163 -0.0034 -0.1803
13995TIP3    H163400   2.967   0.964  15.326 -0.4031 -0.2908 -0.3445
13995TIP3    H263401   2.843   0.897  15.380 -0.4391  0.1557  0.1290
13996TIP3   OH263402   0.953   2.124   1.055  0.2060  0.1618  0.4318
13996TIP3    H163403   0.899   2.154   1.129 -0.5399  1.3010 -0.5178
13996TIP3    H263404   1.036   2.170   1.066  0.4003 -0.3075  0.9931
13997TIP3   OH263405   0.310   6.346   6.325  0.2863 -0.6706 -0.0522
13997TIP3    H163406   0.260   6.428   6.321  0.1349 -0.6305  1.7288
13997TIP3    H263407   0.279   6.295   6.250 -0.1812  0.5737 -0.7420
13998TIP3   OH263408   1.149   5.542  15.731 -0.6077 -0.4354  0.8078
13998TIP3    H163409   1.112   5.621  15.692 -1.1301 -1.6104 -1.2256
13998TIP3    H263410   1.132   5.551  15.824  0.4796  2.4074  0.8217
13999TIP3   OH263411   6.468   5.285   5.560 -0.0144  0.3823 -0.4698
13999TIP3    H163412   6.480   5.249   5.472  0.7897  0.6959 -0.4981
13999TIP3    H263413   6.557   5.306   5.590 -0.0349 -1.7454  1.2975
14000TIP3   OH263414   4.991   3.722  13.754  0.5976 -0.3721 -0.1299
14000TIP3    H163415   5.022   3.651  13.810  0.0079 -1.0523 -0.6451
14000TIP3    H263416   4.912   3.687  13.713 -1.6244  1.7070  2.0734
14001TIP3   OH263417   1.608   5.583  17.324 -0.4389 -0.4178 -0.4785
14001TIP3    H163418   1.619   5.531  17.404  0.3273 -2.5746 -1.9185
14001TIP3    H263419   1.680   5.646  17.326 -0.7286 -0.0914  0.7481
14002TIP3   OH263420   5.526   2.376  16.240 -0.2851  0.2890  0.1111
14002TIP3    H163421   5.582   2.438  16.194  0.0554 -0.3078 -0.3006
14002TIP3    H263422   5.582   2.336  16.306 -0.6526  0.8160  0.7435
14003TIP3   OH263423   4.136   4.467   3.726  0.2919 -0.5711  0.3527
14003TIP3    H163424   4.226   4.482   3.698  0.2475 -3.2518 -1.5755
14003TIP3    H263425   4.085   4.534   3.679  0.8252 -1.8820 -2.2835
14004TIP3   OH263426   4.877   6.352  13.230 -0.2941 -0.0502  0.1046
14004TIP3    H163427   4.889   6.311  13.144 -1.9047  0.2785 -0.3288
14004TIP3    H263428   4.782   6.369  13.235 -0.2418 -0.0869  1.9638
14005TIP3   OH263429   1.744   3.050  16.300 -0.1626 -0.1230  0.2674
14005TIP3    H163430   1.753   3.013  16.212 -0.0307  0.3222  0.0910
14005TIP3    H263431   1.821   3.020  16.348 -0.6069 -0.9841  0.4602
14006TIP3   OH263432   3.076   0.992  10.642  0.2959 -0.0104 -0.0058
14006TIP3    H163433   3.103   0.960  10.556 -0.4099 -0.9352  0.1093
14006TIP3    H263434   2.993   0.948  10.660 -0.3094  1.2813  0.5183
14007TIP3   OH263435   0.629   5.768   4.370 -0.0837 -0.5504  0.1409
14007TIP3    H163436   0.551   5.813   4.402  0.4478  0.8655 -0.4460
14007TIP3    H263437   0.695   5.784   4.438 -0.9004 -3.9678  1.9598
14008TIP3   OH263438   3.989   6.516   1.208 -0.1051  0.1005  0.2116
14008TIP3    H163439   3.963   6.424   1.210  0.6543 -0.1151  0.7136
14008TIP3    H263440   4.043   6.524   1.129 -1.0875  0.3891 -0.4516
14009TIP3   OH263441   2.584   1.256  13.796 -0.1160 -0.2017  0.2034
14009TIP3    H163442   2.562   1.209  13.716  0.2153  0.4097 -0.2567
14009TIP3    H263443   2.512   1.319  13.807  1.0163  1.3952 -0.9795
14010TIP3   OH263444   4.204   2.367  11.794  0.6912 -0.1046  0.3866
14010TIP3    H163445   4.187   2.329  11.708  1.8064  0.2908 -0.0269
14010TIP3    H263446   4.290   2.409  11.785  2.0894 -2.2380  2.3922
14011TIP3   OH263447   6.597   4.546   0.122 -0.8020 -0.3801  0.2970
14011TIP3    H163448   6.672   4.489   0.133 -1.7147 -1.5195  0.8523
14011TIP3    H263449   6.606   4.612   0.191  0.2721  0.2102 -0.3705
14012TIP3   OH263450   0.866   3.852   1.938 -0.0488  0.4491  0.8497
14012TIP3    H163451   0.852   3.759   1.926  0.8921  0.2362  1.3026
14012TIP3    H263452   0.780   3.892   1.925  0.1377 -0.0718 -2.9494
14013TIP3   OH263453   3.253   3.024   3.774 -0.6077  0.0314 -0.1143
14013TIP3    H163454   3.203   2.981   3.844 -1.6572  1.1449 -0.1468
14013TIP3    H263455   3.284   3.105   3.814  0.5056 -0.2649 -0.3538
14014TIP3   OH263456   5.183   3.984   4.629 -0.2752 -0.3541  1.0507
14014TIP3    H163457   5.198   4.069   4.589 -0.2095 -1.8234 -2.4224
14014TIP3    H263458   5.234   3.986   4.710 -0.1713  2.7937  1.0060
14015TIP3   OH263459   3.197   1.948   3.734 -0.1573  0.7994  0.5425
14015TIP3    H163460   3.213   2.016   3.799  0.7341  1.2937 -0.1684
14015TIP3    H263461   3.277   1.944   3.683  0.1026 -1.3056  1.0024
14016TIP3   OH263462   2.674   4.221  14.700  0.4549 -0.3337  0.0597
14016TIP3    H163463   2.584   4.199  14.674 -0.4243 -1.0726  3.2935
14016TIP3    H263464   2.678   4.316  14.697 -0.3795 -0.3023 -0.2002
14017TIP3   OH263465   6.553   1.703  16.832  0.3259 -0.3061 -0.6269
14017TIP3    H163466   6.518   1.676  16.747  0.1017 -1.2882 -0.2361
14017TIP3    H263467   6.631   1.649  16.844 -0.2875 -1.0353  0.2972
14018TIP3   OH263468   1.253   3.809   3.330  0.3840 -0.7663 -0.4515
14018TIP3    H163469   1.277   3.716   3.339  3.4390 -0.2165 -1.6303
14018TIP3    H263470   1.265   3.827   3.237 -0.7697  0.7161 -0.3474
14019TIP3   OH263471   3.229   0.845  12.280 -0.1427 -0.5268 -0.7927
14019TIP3    H163472   3.292   0.901  12.235  0.3563  1.2304  1.8903
14019TIP3    H263473   3.145   0.889  12.269 -0.1395 -0.4650 -0.5630
14020TIP3   OH263474   1.498   2.765   2.840  0.4357  0.4392  0.4738
14020TIP3    H163475   1.518   2.782   2.932 -2.7207 -0.7565  1.5330
14020TIP3    H263476   1.430   2.697   2.843  0.5887 -0.0075 -2.7775
14021TIP3   OH263477   2.840   5.026   0.089 -0.3595  0.0424  0.2256
14021TIP3    H163478   2.871   4.996   0.003 -1.3047  0.8978 -0.4375
14021TIP3    H263479   2.782   5.099   0.069 -1.4815 -0.4576  1.5432
14022TIP3   OH263480   4.818   5.714  16.580  0.5500  0.0804  0.0337
14022TIP3    H163481   4.747   5.652  16.561 -0.0571  0.0627  2.0852
14022TIP3    H263482   4.898   5.664  16.567  0.0674 -1.1628  1.6201
14023TIP3   OH263483   1.385   5.779  11.485 -0.2241  0.2268  0.1454
14023TIP3    H163484   1.294   5.787  11.515 -0.3142 -0.7568  0.1614
14023TIP3    H263485   1.413   5.870  11.472 -0.3621  0.7304  2.6889
14024TIP3   OH263486   3.290   2.747   5.027 -0.3169  0.4032 -0.4570
14024TIP3    H163487   3.230   2.678   4.997 -0.0529 -1.3237  2.5170
14024TIP3    H263488   3.321   2.789   4.947 -2.0989 -1.5746 -2.3147
14025TIP3   OH263489   2.679   6.376  13.000 -0.2535 -0.0195  0.3226
14025TIP3    H163490   2.599   6.363  13.050 -0.6527 -1.4101 -0.6117
14025TIP3    H263491   2.685   6.298  12.944  1.7703  0.0390  0.4012
14026TIP3   OH263492   0.638   4.221  15.585  0.0215  0.1177  0.1200
14026TIP3    H163493   0.690   4.277  15.528 -2.4169  2.0871 -0.3407
14026TIP3    H263494   0.622   4.274  15.663  1.4982 -1.7273  1.7901
14027TIP3   OH263495   1.071   1.408  16.499  0.1087  0.1941 -0.3027
14027TIP3    H163496   1.056   1.343  16.568 -0.2639  0.0025 -0.5597
14027TIP3    H263497   0.996   1.467  16.506 -0.1870 -0.1004 -0.8441
14028TIP3   OH263498   6.069   4.188   5.505 -0.9844  0.9793  0.0315
14028TIP3    H163499   6.152   4.212   5.546 -1.0707  1.2330  0.0585
14028TIP3    H263500   6.003   4.230   5.559 -1.2519 -0.8138  1.1690
14029TIP3   OH263501   2.130   2.061  15.267 -0.3461  0.1349  0.1739
14029TIP3    H163502   2.168   1.995  15.324  1.0561  1.4466  0.7996
14029TIP3    H263503   2.089   2.010  15.197  1.5587 -1.3944  0.0781
14030TIP3   OH263504   3.427   3.246  11.886  0.4754 -0.0491 -0.6024
14030TIP3    H163505   3.482   3.183  11.840 -0.0846 -0.9487 -0.0613
14030TIP3    H263506   3.447   3.233  11.979  0.6960  0.8948 -0.5059
14031TIP3   OH263507   1.888   3.617   5.172  0.8835 -0.0342  0.1349
14031TIP3    H163508   1.914   3.599   5.081 -0.4792  0.0290 -0.2898
14031TIP3    H263509   1.969   3.610   5.222  1.3779 -1.7646 -0.8308
14032TIP3   OH263510   0.917   5.438  13.217  0.1001  0.5806  0.6172
14032TIP3    H163511   0.995   5.384  13.227 -0.5719 -0.8295 -1.1950
14032TIP3    H263512   0.884   5.417  13.130 -1.5819  2.1157  0.8211
14033TIP3   OH263513   3.764   0.534  16.701  0.4377  0.1672 -0.0367
14033TIP3    H163514   3.814   0.609  16.670  2.0346 -0.7034  0.3123
14033TIP3    H263515   3.801   0.460  16.653 -0.6106 -0.4998  0.1555
14034TIP3   OH263516   4.023   3.674   0.124 -0.2808  0.4839  0.1523
14034TIP3    H163517   3.979   3.739   0.070  0.3470  0.0140 -0.9657
14034TIP3    H263518   3.955   3.611   0.146 -0.7757  1.2323  0.8093
14035TIP3   OH263519   5.516   4.667  10.985  0.1350  0.3219  0.2153
14035TIP3    H163520   5.434   4.623  11.006  0.5045 -1.0270 -0.9878
14035TIP3    H263521   5.522   4.662  10.889  0.7893  1.9576  0.1342
14036TIP3   OH263522   4.047   6.700  11.090  1.0210 -0.0189 -0.6806
14036TIP3    H163523   4.070   6.637  11.158  0.3092  1.2539  0.7941
14036TIP3    H263524   3.985   6.653  11.034 -0.2763 -0.3596  0.9631
14037TIP3   OH263525   4.312   4.000   2.339  0.1170 -0.7509 -0.8633
14037TIP3    H163526   4.380   3.970   2.278 -2.2085 -2.4912 -2.8319
14037TIP3    H263527   4.252   3.925   2.345 -0.2411 -0.3222  2.9934
14038TIP3   OH263528   0.378   5.716  11.780  0.5097 -0.1816  0.5508
14038TIP3    H163529   0.367   5.721  11.685  1.1772 -0.8242  0.4333
14038TIP3    H263530   0.401   5.804  11.806  0.8680 -0.1215  0.0404
14039TIP3   OH263531   3.290   2.766   5.785 -0.4232 -0.0254 -0.3290
14039TIP3    H163532   3.295   2.754   5.691 -1.6336 -0.7595 -0.3269
14039TIP3    H263533   3.209   2.722   5.811 -0.3992  0.6285  0.9792
14040TIP3   OH263534   5.678   3.991  17.034 -0.2690 -0.3150  0.2161
14040TIP3    H163535   5.692   4.070  17.087 -1.9621  0.4730 -0.4529
14040TIP3    H263536   5.762   3.945  17.038 -0.1070  0.0513  2.9950
14041TIP3   OH263537   2.166   1.467  11.835  0.2751 -0.1849 -0.5613
14041TIP3    H163538   2.232   1.510  11.890  1.3833 -0.1178 -1.9038
14041TIP3    H263539   2.103   1.431  11.898  1.3559  0.1126  0.7485
14042TIP3   OH263540   0.586   3.746  16.367  0.1869 -0.6921 -0.0455
14042TIP3    H163541   0.521   3.716  16.303  0.1676 -0.8803  0.0635
14042TIP3    H263542   0.641   3.669  16.384  0.0158 -0.7227  0.3774
14043TIP3   OH263543   0.149   4.203  12.371 -0.0970  0.0558  0.6210
14043TIP3    H163544   0.178   4.138  12.307  0.5407  0.9220  0.0039
14043TIP3    H263545   0.217   4.204  12.438  1.3235  1.9605 -0.7365
14044TIP3   OH263546   1.916   5.331  17.341 -0.5769 -0.3205  0.1791
14044TIP3    H163547   1.823   5.341  17.318 -0.8142 -1.0188  0.8102
14044TIP3    H263548   1.918   5.255  17.400  0.3779 -0.2220  0.2791
14045TIP3   OH263549   1.470   3.356  11.974  0.0609 -0.1267 -0.1887
14045TIP3    H163550   1.501   3.265  11.967  0.7270  0.1820 -1.7603
14045TIP3    H263551   1.524   3.393  12.044  0.1152 -0.8168  0.1495
14046TIP3   OH263552   2.938   2.890   3.143  0.0613 -0.7851 -0.1509
14046TIP3    H163553   2.912   2.952   3.211  2.0451 -1.2005  1.0806
14046TIP3    H263554   2.929   2.939   3.061  0.6253  0.8184  0.7052
14047TIP3   OH263555   4.844   1.058  12.571 -0.2603  0.1938 -0.0602
14047TIP3    H163556   4.860   0.965  12.557 -0.9959  0.1408 -0.6191
14047TIP3    H263557   4.904   1.083  12.641  0.3928 -0.5558 -0.3427
14048TIP3   OH263558   2.814   0.899  15.707 -0.2620 -0.5916 -0.1172
14048TIP3    H163559   2.749   0.928  15.643  0.9797 -1.9795 -2.1226
14048TIP3    H263560   2.878   0.971  15.710 -0.7771 -0.1448  0.2378
14049TIP3   OH263561   2.519   3.946  15.365  0.5358  0.1000  0.4856
14049TIP3    H163562   2.533   3.992  15.448 -1.6713 -0.3632  1.1857
14049TIP3    H263563   2.471   4.008  15.311 -0.3092 -0.5091  0.5294
14050TIP3   OH263564   4.992   1.389  16.853  0.2305  1.1024 -0.2780
14050TIP3    H163565   4.916   1.445  16.870 -0.0709  0.7383 -0.3962
14050TIP3    H263566   4.984   1.366  16.760  0.2634  0.7457 -0.1939
14051TIP3   OH263567   5.329   2.141   2.339  0.9293 -0.0735 -0.1365
14051TIP3    H163568   5.320   2.143   2.434  0.8448  0.1767 -0.1490
14051TIP3    H263569   5.384   2.217   2.318  0.4522  0.2200 -0.3371
14052TIP3   OH263570   4.676   3.962   4.780  0.4849  0.0358  0.1036
14052TIP3    H163571   4.742   3.902   4.746  0.2050 -1.0852  1.4734
14052TIP3    H263572   4.719   4.047   4.782  1.0383 -0.1777 -1.4334
14053TIP3   OH263573   5.086   6.716  13.212 -0.4350  0.6337 -0.4251
14053TIP3    H163574   4.994   6.700  13.235 -0.6864 -0.2653 -1.9428
14053TIP3    H263575   5.082   6.788  13.149  0.1585  2.3844  1.4479
14054TIP3   OH263576   5.536   3.327  14.211  0.8850 -0.1335  0.0219
14054TIP3    H163577   5.442   3.345  14.209  0.4822 -2.1080 -0.7764
14054TIP3    H263578   5.569   3.385  14.279 -0.7709  1.1694 -0.1974
14055TIP3   OH263579   4.466   5.868   1.534 -0.7142  0.3493  0.1117
14055TIP3    H163580   4.479   5.940   1.595 -1.7216  0.4205  0.2737
14055TIP3    H263581   4.404   5.902   1.469  1.1181  0.6188 -1.5793
14056TIP3   OH263582   1.669   1.318   3.786 -0.0502 -0.2496 -0.7170
14056TIP3    H163583   1.724   1.386   3.826  1.4599 -1.6138 -0.3506
14056TIP3    H263584   1.584   1.329   3.827  1.0898 -0.7643  2.0596
14057TIP3   OH263585   5.610   2.450   1.821  0.5509  0.4687  0.2539
14057TIP3    H163586   5.604   2.417   1.911 -1.0068 -0.4272 -0.1364
14057TIP3    H263587   5.549   2.395   1.772  1.5839  0.7641 -1.4183
14058TIP3   OH263588   0.184   6.381  14.200  0.9544  0.3023  0.5515
14058TIP3    H163589   0.110   6.341  14.245  1.0239 -1.0517 -0.4499
14058TIP3    H263590   0.169   6.475  14.206 -1.9806  0.1084 -1.3806
14059TIP3   OH263591   1.305   1.443  16.719  0.2602  0.1117 -0.0937
14059TIP3    H163592   1.356   1.505  16.770 -0.1568 -0.2956  0.8414
14059TIP3    H263593   1.370   1.390  16.673  0.7995 -1.2329  2.0413
14060TIP3   OH263594   6.763   5.675  12.637  0.3749 -0.1207 -0.3099
14060TIP3    H163595   6.769   5.593  12.686 -2.3241 -0.3161 -0.2015
14060TIP3    H263596   6.750   5.648  12.546 -1.9494  0.0783 -0.0965
14061TIP3   OH263597   3.893   1.225   2.382  0.0498 -0.1835 -0.0191
14061TIP3    H163598   3.834   1.226   2.306 -0.9601 -2.0321  0.6737
14061TIP3    H263599   3.889   1.135   2.413 -0.0109  0.6512  2.5700
14062TIP3   OH263600   5.432   0.477  14.978 -0.3839 -0.4944 -0.2300
14062TIP3    H163601   5.522   0.506  14.965 -0.0122 -1.4090  0.1957
14062TIP3    H263602   5.390   0.488  14.893 -0.0148  0.4225 -0.2950
14063TIP3   OH263603   2.062   6.770  16.348  0.3124 -0.9329 -0.1865
14063TIP3    H163604   2.132   6.708  16.372  1.0476  0.5821  1.9006
14063TIP3    H263605   2.098   6.820  16.275  1.2859 -0.4543  0.5966
14064TIP3   OH263606   4.523   3.614  13.248  0.0892 -0.1685  0.0812
14064TIP3    H163607   4.429   3.597  13.252 -0.0183  0.5816  2.3620
14064TIP3    H263608   4.564   3.528  13.262 -0.2459 -0.4446 -0.6035
14065TIP3   OH263609   0.668   1.966   2.968  0.4806 -0.0939 -0.4026
14065TIP3    H163610   0.696   1.988   3.057  1.2704 -0.5642 -0.5232
14065TIP3    H263611   0.576   1.939   2.978  0.3257  0.6046  0.1411
14066TIP3   OH263612   1.786   2.753  12.258 -0.2221  0.5365 -0.0304
14066TIP3    H163613   1.726   2.827  12.265  0.4455  0.9824  1.4102
14066TIP3    H263614   1.870   2.793  12.234 -0.4039 -0.0465 -1.7274
14067TIP3   OH263615   3.811   1.755   2.938  0.0166 -0.1148 -0.0024
14067TIP3    H163616   3.760   1.833   2.958  1.7773  1.1271 -0.0508
14067TIP3    H263617   3.862   1.780   2.860  1.7076 -0.7384  0.8443
14068TIP3   OH263618   4.091   3.643   4.919 -0.4277 -0.8343 -0.3967
14068TIP3    H163619   4.067   3.594   4.840 -1.4430 -2.1539  0.6928
14068TIP3    H263620   4.074   3.583   4.991 -1.0771  0.8798  0.9544
14069TIP3   OH263621   5.366   6.251   1.860  0.1365  0.1753 -0.5937
14069TIP3    H163622   5.408   6.337   1.851  1.5447 -0.2397  1.5265
14069TIP3    H263623   5.439   6.189   1.862 -0.7400 -0.8569  0.1085
14070TIP3   OH263624   6.469   5.593   0.931  0.1617  0.5702  0.2670
14070TIP3    H163625   6.535   5.546   0.880 -0.2637 -0.2643  0.4648
14070TIP3    H263626   6.513   5.615   1.013 -0.0280 -0.6707  0.7127
14071TIP3   OH263627   3.911   1.810   2.139 -0.8042  0.4385 -0.5711
14071TIP3    H163628   3.816   1.799   2.143 -0.6765 -0.4517  2.1945
14071TIP3    H263629   3.940   1.743   2.076 -1.8675 -0.4714 -0.1280
14072TIP3   OH263630   5.880   0.488  16.654 -0.1168  0.6955  0.0263
14072TIP3    H163631   5.975   0.484  16.665 -0.3449 -0.9376  2.1853
14072TIP3    H263632   5.867   0.522  16.565  2.5091 -1.4070 -1.2988
14073TIP3   OH263633   0.755   1.895   4.982  0.4579 -0.0071 -0.0129
14073TIP3    H163634   0.773   1.837   5.056 -0.6138 -1.2672 -0.6860
14073TIP3    H263635   0.716   1.973   5.021  1.7589  0.2199  0.8997
14074TIP3   OH263636   5.939   5.302   4.076 -0.0833  0.1791 -0.3935
14074TIP3    H163637   5.871   5.368   4.088  0.6195  0.7716  0.4075
14074TIP3    H263638   5.891   5.221   4.059 -1.0335  0.3186  1.4460
14075TIP3   OH263639   0.072   4.247   5.322  0.0198  0.0665  0.2976
14075TIP3    H163640   0.113   4.162   5.335  1.1982  0.7447  1.2316
14075TIP3    H263641   0.038   4.244   5.233  0.5141 -1.1835  0.1297
14076TIP3   OH263642   3.054   0.994   4.441  0.3399  0.5673  0.5928
14076TIP3    H163643   3.047   0.899   4.449 -0.3323  0.4947 -0.6150
14076TIP3    H263644   3.129   1.007   4.383 -1.4264  0.6066 -1.8360
14077TIP3   OH263645   1.929   1.022   1.256  0.7180  0.1851 -0.9097
14077TIP3    H163646   1.975   0.955   1.307  0.8538  0.5666 -0.5221
14077TIP3    H263647   1.859   0.975   1.211 -0.1795  0.0132  0.5880
14078TIP3   OH263648   5.196   2.977  16.246  0.2137  0.1369  1.6022
14078TIP3    H163649   5.192   2.888  16.281 -0.7337  0.0325  1.2438
14078TIP3    H263650   5.195   3.034  16.323 -4.1055  0.0012  1.8435
14079TIP3   OH263651   1.955   3.600  16.991 -0.0203  0.2048  0.0970
14079TIP3    H163652   1.961   3.504  16.992 -1.3568  0.0592 -1.2056
14079TIP3    H263653   2.005   3.626  16.914 -1.5882  0.3110 -0.9483
14080TIP3   OH263654   4.836   5.395   3.480  0.2001  0.3417  0.5787
14080TIP3    H163655   4.827   5.320   3.422  1.3563  1.6583 -1.4388
14080TIP3    H263656   4.791   5.369   3.561 -3.6531 -0.7359 -1.6338
14081TIP3   OH263657   2.438   4.961   0.687 -0.5963 -0.5823  0.3688
14081TIP3    H163658   2.500   4.891   0.704 -0.8237 -0.2352  3.0859
14081TIP3    H263659   2.352   4.920   0.696 -0.7231 -0.2366  0.8153
14082TIP3   OH263660   2.711   4.861   1.325  0.3340  1.0239 -0.5679
14082TIP3    H163661   2.623   4.862   1.289  0.2584  3.0729 -0.4370
14082TIP3    H263662   2.764   4.817   1.258 -0.4657  1.4678 -1.5227
14083TIP3   OH263663   1.044   3.198   4.240  0.1501 -0.6641  0.3425
14083TIP3    H163664   0.968   3.142   4.230 -0.1914  0.0366 -1.4312
14083TIP3    H263665   1.021   3.259   4.310 -0.7987 -0.6822  0.0548
14084TIP3   OH263666   6.342   3.619  12.310  0.0364  0.1723  0.0633
14084TIP3    H163667   6.429   3.580  12.322 -0.4799 -1.0309  0.0580
14084TIP3    H263668   6.344   3.699  12.362  1.4126  0.5891 -0.5831
14085TIP3   OH263669   3.629   6.310  14.656  0.1425  0.1427 -0.1236
14085TIP3    H163670   3.624   6.401  14.626 -0.3561  0.1207 -0.1060
14085TIP3    H263671   3.680   6.266  14.587  1.2931  0.6403  0.3781
14086TIP3   OH263672   0.608   4.788  12.523 -0.4431 -0.6915  0.4586
14086TIP3    H163673   0.544   4.854  12.550  0.3743  0.1332  0.3803
14086TIP3    H263674   0.613   4.795  12.428  1.0660  0.4834  0.5924
14087TIP3   OH263675   6.764   2.671   1.900 -0.5192  0.4809 -0.1830
14087TIP3    H163676   6.840   2.617   1.879  0.4436  1.7587 -0.1233
14087TIP3    H263677   6.709   2.666   1.821  0.8220  1.4737 -1.2390
14088TIP3   OH263678   2.853   3.845   4.664 -0.1819 -0.0583  0.3606
14088TIP3    H163679   2.913   3.786   4.712  0.0671 -0.4140 -0.3677
14088TIP3    H263680   2.889   3.932   4.678  1.1066 -0.3534 -0.8634
14089TIP3   OH263681   1.585   3.219   1.683  0.1134 -0.6479 -0.6843
14089TIP3    H163682   1.614   3.293   1.630 -0.8573 -0.1415 -0.5290
14089TIP3    H263683   1.589   3.144   1.623  0.2354 -0.3055 -1.1095
14090TIP3   OH263684   1.816   4.980  14.362  0.3057 -0.3196 -0.6060
14090TIP3    H163685   1.776   4.936  14.287 -0.5661 -0.6145  0.0116
14090TIP3    H263686   1.838   4.908  14.422 -1.2549  0.0705  0.4733
14091TIP3   OH263687   3.617   6.068  16.904  0.3094 -0.2747 -0.1110
14091TIP3    H163688   3.709   6.063  16.880  0.6112 -4.1057  1.1689
14091TIP3    H263689   3.616   6.119  16.986  1.1824  0.1536 -0.3544
14092TIP3   OH263690   6.408   3.360  11.266  0.3058 -0.2434 -0.2164
14092TIP3    H163691   6.393   3.312  11.184  1.5320  1.3153 -1.4258
14092TIP3    H263692   6.503   3.370  11.270  0.3397 -0.9288  1.8288
14093TIP3   OH263693   4.637   2.113   1.884  0.6386 -0.8812  0.1253
14093TIP3    H163694   4.670   2.026   1.861  0.7628 -0.4330 -1.5392
14093TIP3    H263695   4.699   2.146   1.949  1.6126 -1.3519 -0.5422
14094TIP3   OH263696   2.883   1.429   5.994  0.7670  0.3908 -0.0807
14094TIP3    H163697   2.902   1.522   6.008  1.5422  0.3088 -0.5546
14094TIP3    H263698   2.800   1.415   6.039  0.7597  1.2604  0.1972
14095TIP3   OH263699   6.504   6.586   0.413 -0.2845  0.0217  0.2762
14095TIP3    H163700   6.567   6.523   0.378  1.3832  2.1284 -0.6975
14095TIP3    H263701   6.556   6.647   0.466 -1.7235  1.0027  0.6489
14096TIP3   OH263702   0.023   2.748   4.787 -0.2634  0.6195  0.2346
14096TIP3    H163703   0.084   2.812   4.748 -0.3389  0.6300  0.1328
14096TIP3    H263704   0.038   2.755   4.881 -1.3679  1.9138  0.3433
14097TIP3   OH263705   0.433   4.579  16.726  0.2227  0.0990 -0.1732
14097TIP3    H163706   0.340   4.561  16.733  0.4393 -0.5515  1.2928
14097TIP3    H263707   0.449   4.649  16.789  0.5728  0.8301 -1.0593
14098TIP3   OH263708   2.470   1.382  17.317  0.7070  0.0880 -0.2302
14098TIP3    H163709   2.516   1.323  17.257 -0.9790 -3.7853  1.9164
14098TIP3    H263710   2.385   1.396  17.277  0.4345 -0.5515  0.1062
14099TIP3   OH263711   0.280   5.824  16.095  0.2641  0.1641 -0.0967
14099TIP3    H163712   0.196   5.828  16.049  1.0730  1.1410 -1.5863
14099TIP3    H263713   0.300   5.730  16.100  0.3657  0.0267 -2.2356
14100TIP3   OH263714   3.538   5.725  15.684  0.1963  0.4423 -0.4958
14100TIP3    H163715   3.471   5.762  15.626 -1.6419 -1.0218  0.5378
14100TIP3    H263716   3.553   5.637  15.650 -1.0829 -0.5363  1.2552
14101TIP3   OH263717   2.611   6.182  16.863 -0.3100  0.1189 -0.3013
14101TIP3    H163718   2.651   6.156  16.780  1.2563  0.1706  0.4008
14101TIP3    H263719   2.535   6.125  16.873  1.0040 -1.7610 -0.5057
14102TIP3   OH263720   6.132   5.145   5.021 -0.7046 -0.3756 -0.1222
14102TIP3    H163721   6.055   5.160   4.966  0.9063  1.4981 -2.0574
14102TIP3    H263722   6.170   5.232   5.033  0.4563 -1.0934  1.8121
14103TIP3   OH263723   2.744   4.330   1.418  0.0580 -0.5227  0.3896
14103TIP3    H163724   2.737   4.422   1.441  2.0214 -0.6445  1.6482
14103TIP3    H263725   2.693   4.285   1.486 -0.7906 -0.3926 -0.1491
14104TIP3   OH263726   1.608   2.353  10.262  0.1664  0.7688  0.2954
14104TIP3    H163727   1.589   2.446  10.253  0.3494  0.7974  0.1927
14104TIP3    H263728   1.612   2.320  10.173 -1.9853  0.2231  0.3482
14105TIP3   OH263729   5.305   4.437   1.561 -0.0793  0.1971 -0.3719
14105TIP3    H163730   5.320   4.468   1.650  1.4378 -1.1681 -0.1172
14105TIP3    H263731   5.212   4.414   1.560 -0.4182  1.4210  0.4491
14106TIP3   OH263732   1.272   0.071  14.716 -0.0531  0.1465  0.1613
14106TIP3    H163733   1.238   0.023  14.792  0.8696 -1.4613 -0.3770
14106TIP3    H263734   1.360   0.098  14.743  0.5345 -0.9966 -0.5114
14107TIP3   OH263735   4.810   3.375  11.291 -0.7197 -0.5738 -0.8863
14107TIP3    H163736   4.877   3.354  11.355 -1.5004  0.2314  0.2259
14107TIP3    H263737   4.728   3.372  11.340 -1.3256  0.2369 -1.8080
14108TIP3   OH263738   2.164   1.585   4.622 -0.4537  0.0276  0.3386
14108TIP3    H163739   2.212   1.644   4.680  0.1516 -0.2066  0.0811
14108TIP3    H263740   2.207   1.594   4.537 -0.1645 -1.0041  0.3680
14109TIP3   OH263741   0.695   4.490   3.901 -0.4423 -0.5959  0.3689
14109TIP3    H163742   0.636   4.564   3.919  0.0912  0.0469 -0.4597
14109TIP3    H263743   0.644   4.431   3.846 -0.3410 -0.0551 -0.3202
14110TIP3   OH263744   6.238   0.677   4.019 -0.1975 -0.4123 -0.1030
14110TIP3    H163745   6.274   0.682   4.107 -0.7892  1.5073  0.0779
14110TIP3    H263746   6.290   0.738   3.967  0.5451 -1.9641 -1.2865
14111TIP3   OH263747   5.107   6.441  13.821  0.0544 -0.0560  0.2794
14111TIP3    H163748   5.177   6.504  13.809  0.6472 -1.0713 -2.5948
14111TIP3    H263749   5.145   6.372  13.876  0.5830  0.4059  0.5008
14112TIP3   OH263750   5.899   2.956   4.981 -0.0553  0.3128  0.0334
14112TIP3    H163751   5.894   3.030   5.041 -0.9835 -1.0449  1.7269
14112TIP3    H263752   5.875   2.880   5.034 -1.6168 -0.8916 -2.2101
14113TIP3   OH263753   0.307   4.446  12.961  0.5616  0.2507 -0.1522
14113TIP3    H163754   0.364   4.402  12.898  0.6831 -0.5983  0.5252
14113TIP3    H263755   0.228   4.391  12.964  0.6884  0.0983  0.6612
14114TIP3   OH263756   6.718   1.209  14.967  0.3603  0.1213  0.4244
14114TIP3    H163757   6.793   1.209  15.025  0.6979 -1.8166  0.0769
14114TIP3    H263758   6.702   1.116  14.949 -2.4424  0.4276  0.8961
14115TIP3   OH263759   4.996   0.480   2.795 -0.0681 -0.0133  0.1512
14115TIP3    H163760   5.042   0.397   2.782 -1.8607 -1.3431  1.8217
14115TIP3    H263761   4.953   0.470   2.880 -3.5129  1.0660 -1.3293
14116TIP3   OH263762   1.573   0.453  11.780  0.9460 -0.0422 -0.1821
14116TIP3    H163763   1.560   0.384  11.715  0.9438 -0.8678  0.6676
14116TIP3    H263764   1.499   0.444  11.840  0.0317  1.7868 -0.9629
14117TIP3   OH263765   4.395   0.126  13.814 -0.1987  0.1437  0.2286
14117TIP3    H163766   4.438   0.207  13.788 -0.6036  0.3105  0.0628
14117TIP3    H263767   4.326   0.114  13.748 -0.0456 -0.4104  0.1681
14118TIP3   OH263768   4.933   3.696   2.931  0.4214 -0.3312  0.2899
14118TIP3    H163769   4.882   3.616   2.946 -0.1870  0.3022  1.7946
14118TIP3    H263770   4.959   3.724   3.019  4.5817 -1.3275 -0.4008
14119TIP3   OH263771   5.289   5.685  13.646  0.7276  0.1125  0.2605
14119TIP3    H163772   5.359   5.692  13.581  0.0892 -0.0872 -0.4724
14119TIP3    H263773   5.264   5.593  13.643 -1.4967  0.6747 -1.6196
14120TIP3   OH263774   6.450   3.938   5.371 -0.0241 -0.0924 -0.0666
14120TIP3    H163775   6.375   3.996   5.361 -0.7600 -0.6907  1.6340
14120TIP3    H263776   6.511   3.966   5.303 -1.4577  0.9098 -0.9887
14121TIP3   OH263777   3.483   1.007   4.850 -0.0730 -0.2635 -0.3510
14121TIP3    H163778   3.571   0.999   4.887 -0.5649 -3.8334  0.4001
14121TIP3    H263779   3.488   0.959   4.768 -1.1070  0.3544 -0.7837
14122TIP3   OH263780   2.592   5.021  11.913  0.2399  0.0711  0.0622
14122TIP3    H163781   2.642   5.088  11.867  0.3568 -0.1623 -0.1561
14122TIP3    H263782   2.521   4.999  11.852 -0.2710  0.5787  0.4732
14123TIP3   OH263783   1.362   3.385  15.075 -0.0048  0.4843 -0.4684
14123TIP3    H163784   1.342   3.472  15.041 -0.0343  0.3721 -0.7368
14123TIP3    H263785   1.292   3.367  15.138  0.3175  0.8957  0.0229
14124TIP3   OH263786   0.492   4.106  14.565 -0.5816 -0.0676 -0.1206
14124TIP3    H163787   0.456   4.195  14.558  2.1072  1.0598 -0.7872
14124TIP3    H263788   0.502   4.077  14.475 -0.3027 -0.5709  0.0700
14125TIP3   OH263789   4.957   3.631   1.469  0.0400  0.1083  0.0066
14125TIP3    H163790   4.883   3.599   1.521  0.0231 -0.4868 -0.3684
14125TIP3    H263791   4.917   3.691   1.406 -0.4091 -1.4684 -1.2976
14126TIP3   OH263792   4.177   4.657  11.767  0.4629  0.0505  0.0168
14126TIP3    H163793   4.238   4.584  11.780  1.0009  0.7009  1.3080
14126TIP3    H263794   4.091   4.616  11.762  0.7161 -0.6561  1.1292
14127TIP3   OH263795   5.059   4.544   2.759 -0.1723 -0.3324 -0.0943
14127TIP3    H163796   5.025   4.466   2.714 -0.0201 -1.7963  2.1292
14127TIP3    H263797   5.003   4.553   2.837  0.0672  1.5845 -0.0948
14128TIP3   OH263798   2.442   2.880  15.200 -0.4002  0.3969 -0.0692
14128TIP3    H163799   2.527   2.840  15.184 -0.3017  0.3299  0.6172
14128TIP3    H263800   2.408   2.836  15.278 -1.2037  0.1963 -0.5125
14129TIP3   OH263801   0.027   3.290   0.234 -0.2542 -0.2092  0.6471
14129TIP3    H163802   0.024   3.384   0.251  0.2594 -0.3131  1.4092
14129TIP3    H263803   0.115   3.275   0.200 -0.2357 -0.4557  0.8059
14130TIP3   OH263804   6.034   3.382   1.505 -0.0828 -0.4662 -0.1531
14130TIP3    H163805   5.984   3.398   1.585 -0.4948  1.7032 -0.7774
14130TIP3    H263806   6.103   3.449   1.507  1.9953 -2.4600 -0.0373
14131TIP3   OH263807   5.079   5.088  15.094  0.5775 -0.2569  0.1834
14131TIP3    H163808   5.016   5.017  15.095 -1.0223  1.1149  1.1146
14131TIP3    H263809   5.048   5.149  15.161  2.4894  0.8205  0.1618
14132TIP3   OH263810   2.238   5.571   0.656 -0.8209 -0.0670  0.7070
14132TIP3    H163811   2.282   5.596   0.575  0.4225  1.2334  1.7397
14132TIP3    H263812   2.256   5.477   0.665  1.8451  0.4265  1.1128
14133TIP3   OH263813   6.209   2.129   0.624  0.0474 -0.1219 -0.9356
14133TIP3    H163814   6.260   2.052   0.599  0.2984 -0.5926  0.9010
14133TIP3    H263815   6.126   2.093   0.657  0.7055  0.2552  1.2413
14134TIP3   OH263816   4.769   3.653  15.344  0.3226 -0.2937  0.0167
14134TIP3    H163817   4.852   3.678  15.383 -0.0305 -1.2353  1.4529
14134TIP3    H263818   4.739   3.732  15.298  2.1682 -0.0697 -0.8759
14135TIP3   OH263819   2.219   4.088  14.569  0.4726 -0.5961  0.6756
14135TIP3    H163820   2.154   4.147  14.531  1.0002  0.2631  1.0768
14135TIP3    H263821   2.167   4.025  14.619 -0.1320 -0.8430 -0.2395
14136TIP3   OH263822   1.044   2.781  17.339 -0.0218 -0.1106  0.2189
14136TIP3    H163823   1.089   2.703  17.371 -0.5571 -0.8734 -0.8550
14136TIP3    H263824   1.034   2.836  17.417 -0.6179 -1.5826  1.2271
14137TIP3   OH263825   2.745   0.527  11.497 -0.2059 -0.0403 -0.0808
14137TIP3    H163826   2.760   0.456  11.434 -1.3854  0.1320 -0.5804
14137TIP3    H263827   2.665   0.502  11.543 -0.0248  0.4371  0.5025
14138TIP3   OH263828   5.653   2.063   5.868 -0.2567 -0.1380  0.8895
14138TIP3    H163829   5.620   1.987   5.821 -1.2367  0.4988  0.5081
14138TIP3    H263830   5.587   2.081   5.935 -0.3828  0.7662  0.5383
14139TIP3   OH263831   5.259   4.227   4.490 -0.8729  0.5235 -0.4176
14139TIP3    H163832   5.305   4.310   4.500 -1.7574  1.1853 -1.7420
14139TIP3    H263833   5.167   4.248   4.503 -1.0692 -0.3323 -0.3445
14140TIP3   OH263834   6.442   4.434   2.507 -0.0066  0.6428 -0.1674
14140TIP3    H163835   6.452   4.469   2.419  2.3896  1.3120  0.2910
14140TIP3    H263836   6.411   4.344   2.494  1.0719  0.4655 -1.7607
14141TIP3   OH263837   5.563   4.576  13.288  0.0914  0.0562 -0.0099
14141TIP3    H163838   5.516   4.555  13.208  0.6282  0.4964 -0.4472
14141TIP3    H263839   5.540   4.505  13.348 -2.0268  0.8179  0.1900
14142TIP3   OH263840   6.529   2.786  11.823  0.2032 -0.2576 -0.3145
14142TIP3    H163841   6.535   2.882  11.830 -0.2254 -0.2384 -0.1732
14142TIP3    H263842   6.436   2.768  11.817  0.0870 -0.8128  2.0885
14143TIP3   OH263843   5.562   2.699  11.071  0.7451  0.3567  0.2210
14143TIP3    H163844   5.571   2.705  10.976  0.6693  1.2803  0.2614
14143TIP3    H263845   5.643   2.738  11.105  0.8377 -0.1049  0.5315
14144TIP3   OH263846   2.019   6.432  14.787  0.1388  0.2645 -0.2180
14144TIP3    H163847   2.008   6.491  14.861  1.9064 -1.1437  1.2741
14144TIP3    H263848   1.999   6.345  14.822 -1.2903 -0.2263 -2.0558
14145TIP3   OH263849   6.270   3.975  13.932  0.2038 -0.0103  0.2042
14145TIP3    H163850   6.189   3.982  13.983 -0.7021 -1.1332 -1.0096
14145TIP3    H263851   6.262   4.043  13.865  0.0087 -0.4463 -0.2248
14146TIP3   OH263852   2.335   5.662   4.069  0.0790  0.3135  0.5868
14146TIP3    H163853   2.425   5.636   4.090  0.1522  0.4817  0.4752
14146TIP3    H263854   2.294   5.582   4.037  0.5861  0.5618 -0.7080
14147TIP3   OH263855   2.400   6.166  15.374 -0.6047 -0.5766 -0.1702
14147TIP3    H163856   2.373   6.178  15.283 -0.6478  1.9351  0.1067
14147TIP3    H263857   2.495   6.177  15.372 -0.4067 -2.0494 -0.0876
14148TIP3   OH263858   1.996   6.033   4.256  0.6615  0.3580  0.2834
14148TIP3    H163859   2.082   6.069   4.238  0.8865 -0.3261 -0.0342
14148TIP3    H263860   1.951   6.036   4.172  1.2518 -1.6046 -0.1416
14149TIP3   OH263861   2.433   5.421  11.939 -0.3424  1.0416 -0.2186
14149TIP3    H163862   2.469   5.441  11.853  1.2273  1.5695  0.5108
14149TIP3    H263863   2.510   5.413  11.996 -1.3389  0.8348  1.1651
14150TIP3   OH263864   1.227   0.113  12.632 -0.2212 -0.1685 -0.2355
14150TIP3    H163865   1.312   0.122  12.590 -0.2578 -0.7141 -0.4277
14150TIP3    H263866   1.190   0.202  12.630 -0.1976 -0.1724 -1.2869
14151TIP3   OH263867   3.372   0.049   1.154  0.0768 -0.0800  0.0791
14151TIP3    H163868   3.427   0.127   1.152  2.2910 -1.5879 -0.8609
14151TIP3    H263869   3.386   0.007   1.069 -1.7565 -1.0905  0.2104
14152TIP3   OH263870   2.926   1.153   5.924 -0.3216  0.0604  0.3959
14152TIP3    H163871   2.975   1.157   5.842 -0.2717 -0.5944  0.3894
14152TIP3    H263872   2.924   1.244   5.955  1.5433 -0.0073  0.7873
14153TIP3   OH263873   0.803   6.573   2.827 -0.1372 -0.2617  0.2705
14153TIP3    H163874   0.798   6.530   2.913 -0.8726 -0.1702  0.2729
14153TIP3    H263875   0.896   6.598   2.819 -0.2997  0.9380  1.6416
14154TIP3   OH263876   5.339   1.423   3.439  0.7000 -0.1935  0.4284
14154TIP3    H163877   5.432   1.428   3.462  0.3574 -0.4697  2.0145
14154TIP3    H263878   5.338   1.425   3.344  2.5398 -2.8254  0.2247
14155TIP3   OH263879   0.210   0.682  13.924  0.2957  0.0199  0.3182
14155TIP3    H163880   0.292   0.684  13.973  0.3948 -0.3331  0.1715
14155TIP3    H263881   0.233   0.640  13.841 -0.1841 -0.7355  0.5591
14156TIP3   OH263882   2.616   2.595  15.038 -0.4253 -0.1040 -0.1820
14156TIP3    H163883   2.611   2.574  15.131  0.9747 -0.4963 -0.1839
14156TIP3    H263884   2.675   2.671  15.033  1.1271 -1.3047 -0.8976
14157TIP3   OH263885   2.424   5.030   6.711 -0.3245 -0.6160 -0.0988
14157TIP3    H163886   2.511   5.000   6.735 -0.4422 -0.6971  0.2399
14157TIP3    H263887   2.431   5.125   6.708  0.2297 -0.6924 -1.8890
14158TIP3   OH263888   2.595   5.957  15.854 -0.0089  0.3301  0.3403
14158TIP3    H163889   2.605   5.870  15.814  0.1590  1.2099 -1.6520
14158TIP3    H263890   2.502   5.977  15.846  0.3289  1.3224 -1.4743
14159TIP3   OH263891   4.524   1.069  10.954  0.2710  0.1759  0.2714
14159TIP3    H163892   4.453   1.086  11.016 -2.5604  0.7906 -2.7876
14159TIP3    H263893   4.574   1.150  10.950 -1.5877  1.3547 -0.5692
14160TIP3   OH263894   2.557   6.482  17.197  0.0115  0.8961 -0.5098
14160TIP3    H163895   2.516   6.554  17.244 -0.7132  0.1523  0.0444
14160TIP3    H263896   2.587   6.423  17.267  1.4346  1.1061 -0.9269
14161TIP3   OH263897   0.782   2.351  17.049  0.1451 -0.3323  0.5552
14161TIP3    H163898   0.817   2.268  17.018  1.6222 -0.0758  1.4471
14161TIP3    H263899   0.750   2.394  16.970 -0.3923 -1.6200  0.0486
14162TIP3   OH263900   6.160   2.683   4.778  0.4014 -0.1720 -0.0645
14162TIP3    H163901   6.207   2.766   4.772 -1.4948  1.0302  0.7751
14162TIP3    H263902   6.094   2.688   4.709 -0.3949 -0.5128  0.6610
14163TIP3   OH263903   3.069   5.889   1.720  0.5405 -0.0843 -0.0478
14163TIP3    H163904   3.095   5.943   1.794 -0.3880 -0.0784  0.2934
14163TIP3    H263905   2.994   5.839   1.752  1.6731 -1.9623 -0.1979
14164TIP3   OH263906   2.836   3.700   4.997  0.1665 -0.5907  0.1478
14164TIP3    H163907   2.871   3.784   4.968 -0.8858  0.2106  1.0875
14164TIP3    H263908   2.754   3.723   5.042 -1.6923 -2.3758 -2.1052
14165TIP3   OH263909   1.809   4.157   4.796 -0.1381  0.2406  0.9109
14165TIP3    H163910   1.849   4.113   4.871  0.2061  0.6806  0.9877
14165TIP3    H263911   1.716   4.161   4.817 -0.0971  0.0229  1.1398
14166TIP3   OH263912   2.933   5.973  12.233  0.1905  0.2988 -0.4346
14166TIP3    H163913   2.957   6.035  12.164 -0.7208  0.6050 -0.4847
14166TIP3    H263914   2.882   5.906  12.188 -0.3923  0.4904 -0.0724
14167TIP3   OH263915   3.129   6.557  14.594  0.7086 -0.0329 -0.1286
14167TIP3    H163916   3.107   6.572  14.502  0.7585  1.1933  0.0371
14167TIP3    H263917   3.048   6.576  14.642  0.6765 -0.6801  0.0838
14168TIP3   OH263918   2.871   2.000   0.167 -0.1974 -0.3722  0.8035
14168TIP3    H163919   2.882   1.960   0.080  0.0953 -0.6317  0.9552
14168TIP3    H263920   2.815   2.076   0.152  0.1655 -0.1977  0.3259
14169TIP3   OH263921   2.573   4.146   1.536  0.4554 -0.3836 -0.2011
14169TIP3    H163922   2.494   4.121   1.584 -0.7049 -0.0421 -1.8232
14169TIP3    H263923   2.560   4.108   1.449  1.8621  0.1016 -0.6398
14170TIP3   OH263924   6.293   2.401   3.361 -0.5043 -0.3597  0.1657
14170TIP3    H163925   6.280   2.451   3.280 -0.5978 -0.3662  0.1767
14170TIP3    H263926   6.353   2.331   3.337 -1.1390 -0.8200 -0.0804
14171TIP3   OH263927   6.766   6.421   4.262 -0.0679  0.3265 -0.1737
14171TIP3    H163928   6.731   6.357   4.324 -1.3232  0.1945 -1.0001
14171TIP3    H263929   6.761   6.505   4.308 -0.4440  0.1456  0.1140
14172TIP3   OH263930   1.441   4.056  12.387  0.4914  0.5001  0.0789
14172TIP3    H163931   1.348   4.042  12.405  0.6452 -4.3211 -1.3240
14172TIP3    H263932   1.443   4.113  12.310 -1.2930  0.8556  0.2642
14173TIP3   OH263933   1.647   6.163   2.132  0.0953  0.3302 -0.2060
14173TIP3    H163934   1.656   6.190   2.040  0.1753  0.1754 -0.2446
14173TIP3    H263935   1.601   6.079   2.128  1.3347 -0.3769 -0.2012
14174TIP3   OH263936   0.020   3.460   3.376  0.0698 -0.4771  0.7181
14174TIP3    H163937  -0.022   3.374   3.370 -0.0799 -0.3251 -0.7238
14174TIP3    H263938  -0.042   3.520   3.336  1.1723 -0.0754 -0.4250
14175TIP3   OH263939   2.807   5.984  16.454 -0.2384  0.0366  0.1028
14175TIP3    H163940   2.730   6.026  16.494 -0.0458 -0.3732  0.9250
14175TIP3    H263941   2.847   5.935  16.526  1.0067  0.5443 -0.2204
14176TIP3   OH263942   3.959   4.664   3.387 -0.4616 -0.2377  0.1553
14176TIP3    H163943   3.991   4.712   3.464  0.8730 -1.6093  0.4891
14176TIP3    H263944   4.006   4.581   3.389 -3.3907 -2.0223  0.1496
14177TIP3   OH263945   4.293   0.135   5.501 -0.2538  0.0852 -0.1271
14177TIP3    H163946   4.221   0.195   5.485 -0.8756 -0.8636 -0.9655
14177TIP3    H263947   4.369   0.179   5.463 -0.6226  0.5132 -0.3781
14178TIP3   OH263948   4.285   6.769  12.151 -0.3942  0.0782 -0.6677
14178TIP3    H163949   4.260   6.700  12.089 -0.0483  0.6830 -1.4940
14178TIP3    H263950   4.273   6.850  12.103  2.8863  0.4461 -1.0827
14179TIP3   OH263951   0.419   2.629  17.074 -0.2831  0.3704 -0.0602
14179TIP3    H163952   0.405   2.606  17.166 -0.4475  1.1155  0.1081
14179TIP3    H263953   0.475   2.560  17.040 -0.3526  0.0029  0.5612
14180TIP3   OH263954   5.176   4.820  16.869 -0.0672 -0.9148  0.2314
14180TIP3    H163955   5.097   4.805  16.921 -0.4471 -0.0243 -0.0697
14180TIP3    H263956   5.234   4.747  16.891 -1.1344 -1.8106  0.1447
14181TIP3   OH263957   4.437   6.229  16.948 -0.9231 -0.4225  0.1341
14181TIP3    H163958   4.525   6.201  16.924 -0.6665  0.5805 -0.1453
14181TIP3    H263959   4.379   6.168  16.903 -0.3769 -0.9709  0.1688
14182TIP3   OH263960   3.485   1.859  15.504  0.1036  0.0540  0.0455
14182TIP3    H163961   3.494   1.931  15.566  0.2288 -0.4019  0.5627
14182TIP3    H263962   3.573   1.847  15.469 -0.1523  0.9463 -0.9548
14183TIP3   OH263963   3.230   5.439  12.775  0.3894 -0.2934  0.3482
14183TIP3    H163964   3.198   5.529  12.774 -0.5405 -0.5918  1.1892
14183TIP3    H263965   3.240   5.416  12.682 -1.5812 -0.0699  0.0337
14184TIP3   OH263966   3.044   0.804   3.182  0.3135 -0.0795  0.6005
14184TIP3    H163967   3.070   0.846   3.264  2.0510  0.8699 -0.3709
14184TIP3    H263968   3.122   0.810   3.126 -1.1859  0.4432 -1.5678
14185TIP3   OH263969   1.721   4.978   5.169 -0.8151  0.2069 -0.0651
14185TIP3    H163970   1.761   4.936   5.093  0.8545 -0.6483  1.2181
14185TIP3    H263971   1.655   4.917   5.199 -0.2027 -0.3154  0.2427
14186TIP3   OH263972   6.389   3.282   2.472 -0.8654  0.0982 -0.2715
14186TIP3    H163973   6.476   3.262   2.439 -0.8113  2.2654 -1.6337
14186TIP3    H263974   6.367   3.366   2.433 -2.7814  0.5652  1.5961
14187TIP3   OH263975   2.663   5.495   5.632  0.2317 -0.6116  0.8664
14187TIP3    H163976   2.570   5.485   5.614  0.0458 -0.7313  1.8375
14187TIP3    H263977   2.667   5.524   5.723  0.7263  6.6095 -0.7920
14188TIP3   OH263978   3.655   0.006   0.975  0.2763 -0.7131  0.3012
14188TIP3    H163979   3.750   0.011   0.959  0.4966  1.0642  1.8170
14188TIP3    H263980   3.648  -0.033   1.062 -0.2523  0.7758  0.9680
14189TIP3   OH263981   2.311   2.674   4.885 -0.0013 -0.0618  0.3831
14189TIP3    H163982   2.276   2.636   4.805  0.9946 -0.6475  0.2115
14189TIP3    H263983   2.234   2.712   4.929 -0.4270  1.0553 -1.2561
14190TIP3   OH263984   4.364   5.035   5.837  0.1097  0.2796  0.6039
14190TIP3    H163985   4.453   5.065   5.855  0.0037  0.2438  1.2063
14190TIP3    H263986   4.308   5.094   5.887 -0.2096  0.2776  0.2567
14191TIP3   OH263987   2.879   2.777   3.862  0.3261 -0.1339 -0.4798
14191TIP3    H163988   2.874   2.698   3.809  0.9165  0.6781 -1.7789
14191TIP3    H263989   2.788   2.806   3.870  0.4009  1.2995 -3.5328
14192TIP3   OH263990   3.553   5.378  14.112  0.0137  0.6354 -0.6728
14192TIP3    H163991   3.470   5.354  14.073 -1.5823  1.2384  2.0768
14192TIP3    H263992   3.559   5.324  14.191  0.5220  2.9985  1.0198
14193TIP3   OH263993   6.057   0.102   0.746 -0.0655  0.3317 -0.2256
14193TIP3    H163994   6.133   0.044   0.746  0.1041  0.5262  0.9186
14193TIP3    H263995   6.081   0.173   0.805 -1.1223  0.3946  0.1489
14194TIP3   OH263996   5.299   4.518   4.902 -0.0821  0.3514  0.0810
14194TIP3    H163997   5.335   4.606   4.889  2.3139 -0.3820  1.3376
14194TIP3    H263998   5.295   4.507   4.997 -1.0814 -0.6482 -0.0547
14195TIP3   OH263999   6.369   0.691   3.201 -0.4356  0.1960  0.3277
14195TIP3    H164000   6.387   0.677   3.294  1.8283  0.5486 -0.0089
14195TIP3    H264001   6.455   0.689   3.159 -1.3189  0.9806 -1.6431
14196TIP3   OH264002   6.134   0.976  12.200 -0.1093  0.6173  0.0406
14196TIP3    H164003   6.095   1.056  12.236 -0.4745  0.2785  0.3996
14196TIP3    H264004   6.145   0.995  12.107 -0.3476  1.0237  0.0916
14197TIP3   OH264005   4.429   4.486   0.539  0.0524 -0.3436 -0.1023
14197TIP3    H164006   4.419   4.421   0.609 -0.5029  0.6238  0.7289
14197TIP3    H264007   4.344   4.529   0.534  0.6163  0.7931 -0.1782
14198TIP3   OH264008   2.844   2.712   0.797 -0.5325  0.5291  0.1175
14198TIP3    H164009   2.862   2.701   0.704 -2.1164  1.6419 -0.3777
14198TIP3    H264010   2.839   2.623   0.832  2.9234  0.1072 -0.1971
14199TIP3   OH264011   4.238   5.015   4.480 -0.3111 -0.2732 -0.0598
14199TIP3    H164012   4.289   4.934   4.470  1.6449  0.8975 -0.0717
14199TIP3    H264013   4.251   5.041   4.571 -1.0758 -0.0580 -0.0054
14200TIP3   OH264014   0.449   2.234   1.665 -0.1078 -0.7325  0.3861
14200TIP3    H164015   0.530   2.269   1.627  0.0621 -0.5030  0.9562
14200TIP3    H264016   0.405   2.193   1.591  0.3975 -0.6171  0.0097
14201TIP3   OH264017   5.150   5.261  14.023 -0.0732 -0.4351 -0.6786
14201TIP3    H164018   5.241   5.245  14.045 -0.5203  0.0184  1.7591
14201TIP3    H264019   5.101   5.228  14.098 -1.8700  0.1464 -1.5302
14202TIP3   OH264020   5.887   3.659   1.758  0.4159 -0.0425  0.6495
14202TIP3    H164021   5.975   3.694   1.769  0.2573  0.8606 -0.7514
14202TIP3    H264022   5.894   3.568   1.785  2.2958 -0.5776 -1.3382
14203TIP3   OH264023   4.323   6.144   5.295  0.7263  0.1294  0.4688
14203TIP3    H164024   4.241   6.186   5.322  0.1317 -0.6730 -0.0477
14203TIP3    H264025   4.349   6.091   5.370 -0.1036 -0.8913  0.0540
14204TIP3   OH264026   0.972   6.566   5.994 -0.3369 -0.1504 -0.4562
14204TIP3    H164027   1.033   6.587   6.064  0.2754  2.7049 -1.6977
14204TIP3    H264028   0.886   6.564   6.036  0.1367  0.3202  0.5692
14205TIP3   OH264029   5.002   0.977   0.498 -0.2403 -0.1592 -0.1661
14205TIP3    H164030   4.968   0.898   0.457  0.9413 -0.9376  0.3247
14205TIP3    H264031   4.981   1.047   0.435 -1.5147 -0.7913 -0.4868
14206TIP3   OH264032   1.123   1.351   5.062  0.1781  0.1839  0.0676
14206TIP3    H164033   1.131   1.427   5.004 -0.3880 -0.5247 -0.9675
14206TIP3    H264034   1.213   1.336   5.093  0.4556  0.6904 -0.4696
14207TIP3   OH264035   2.462   0.835  12.346 -0.1871 -0.1503  0.0481
14207TIP3    H164036   2.439   0.862  12.257 -0.8292 -0.1520  0.2096
14207TIP3    H264037   2.534   0.893  12.371  0.2955 -0.4389 -0.6296
14208TIP3   OH264038   4.461   2.813  12.045  0.0976  0.6044 -0.1867
14208TIP3    H164039   4.377   2.782  12.012 -0.0019  0.4576  0.2032
14208TIP3    H264040   4.470   2.772  12.131  1.6428 -1.3207 -1.1814
14209TIP3   OH264041   1.497   0.987   4.265 -0.0947 -0.6715 -0.0674
14209TIP3    H164042   1.570   1.014   4.320 -1.2420  0.4516  0.9856
14209TIP3    H264043   1.423   0.980   4.325 -1.6620  1.6836 -1.5635
14210TIP3   OH264044   1.251   4.298   5.598  0.3238 -0.1982 -0.1289
14210TIP3    H164045   1.200   4.277   5.676 -0.9109  0.5117 -0.7199
14210TIP3    H264046   1.255   4.394   5.597  1.4495 -0.2395 -0.2406
14211TIP3   OH264047   2.323   6.733   2.952 -0.2982 -0.6409  0.2348
14211TIP3    H164048   2.293   6.690   2.872 -0.7997 -1.0623  0.6477
14211TIP3    H264049   2.244   6.742   3.006  0.0319 -0.3422  0.6764
14212TIP3   OH264050   2.020   2.865   4.248 -0.5243 -1.0733 -0.1315
14212TIP3    H164051   1.931   2.891   4.224 -1.0837 -0.7115  2.1737
14212TIP3    H264052   2.020   2.864   4.343  1.8989 -1.2848 -0.0834
14213TIP3   OH264053   4.249   6.289  17.184  0.1956  0.5637 -0.3043
14213TIP3    H164054   4.233   6.201  17.220  0.1606  0.8348  0.3582
14213TIP3    H264055   4.297   6.273  17.103  0.1634 -0.0744 -0.2053
14214TIP3   OH264056   5.353   4.732   0.901 -0.4105 -0.2325  0.0930
14214TIP3    H164057   5.437   4.702   0.934 -0.1436 -0.2074 -0.5532
14214TIP3    H264058   5.330   4.670   0.832 -0.1812  0.6391 -0.7836
14215TIP3   OH264059   4.413   2.809   1.773  0.5813 -0.1132 -0.3852
14215TIP3    H164060   4.364   2.730   1.798  0.3807  0.2535  0.3908
14215TIP3    H264061   4.435   2.794   1.681  0.0790 -0.8371 -0.4016
14216TIP3   OH264062   1.692   0.055   5.151  0.1423  0.1356 -0.4015
14216TIP3    H164063   1.727  -0.034   5.147  0.7513  0.2957  0.9688
14216TIP3    H264064   1.768   0.111   5.136  0.1584  0.4602  0.8388
14217TIP3   OH264065   0.008   4.630  13.286  0.1518  0.7754  0.1069
14217TIP3    H164066   0.087   4.582  13.311 -0.2591  0.7529  1.4300
14217TIP3    H264067  -0.028   4.663  13.368 -2.3947 -1.0223 -0.1506
14218TIP3   OH264068   2.822   2.325   4.936  0.2106 -0.0348  0.1752
14218TIP3    H164069   2.789   2.236   4.950 -0.1297  0.1759  0.7315
14218TIP3    H264070   2.860   2.350   5.021  1.0725  0.0325 -0.2216
14219TIP3   OH264071   0.620   3.906   5.101  0.1060 -0.2113 -0.6781
14219TIP3    H164072   0.708   3.917   5.136  1.0169  0.0863 -2.8511
14219TIP3    H264073   0.569   3.976   5.140  1.0997  0.2337 -0.1453
14220TIP3   OH264074   4.002   1.301  14.407 -0.2188  0.5561  0.1339
14220TIP3    H164075   3.921   1.261  14.437  0.4806 -0.0299  1.2883
14220TIP3    H264076   3.983   1.395  14.406 -1.2381  0.3631 -0.6679
14221TIP3   OH264077   6.693   3.591   0.934 -0.0799 -0.4228  0.2546
14221TIP3    H164078   6.653   3.546   0.860  0.9861  1.3045 -1.4813
14221TIP3    H264079   6.622   3.644   0.972 -0.5561 -1.0735  0.2769
14222TIP3   OH264080   1.361   2.062  16.269 -0.1298 -0.3992 -0.0907
14222TIP3    H164081   1.448   2.040  16.302 -0.0023  0.6184  0.2732
14222TIP3    H264082   1.323   1.978  16.245 -0.0743 -1.1542  2.2474
14223TIP3   OH264083   4.145   2.444  14.552  0.2669 -0.0925  0.1469
14223TIP3    H164084   4.223   2.476  14.598 -0.2935  1.8952 -0.2021
14223TIP3    H264085   4.083   2.424  14.621 -0.3890  2.3953  0.3651
14224TIP3   OH264086   4.042   6.275   0.094 -0.4648  0.3178 -0.3376
14224TIP3    H164087   4.079   6.361   0.070 -0.2051 -0.2489 -2.1280
14224TIP3    H264088   4.116   6.215   0.085 -0.8071 -0.1953  0.2739
14225TIP3   OH264089   4.942   4.279   3.786  0.1102 -0.4517 -0.0268
14225TIP3    H164090   4.952   4.219   3.712  1.4749  0.3552 -0.5342
14225TIP3    H264091   5.006   4.248   3.850 -0.7019 -0.8271  0.6212
14226TIP3   OH264092   0.385   4.827   0.610 -0.1040  0.6307  0.3843
14226TIP3    H164093   0.387   4.923   0.604  0.3772  0.7027  1.4939
14226TIP3    H264094   0.428   4.807   0.693 -2.0243 -0.4582  1.1774
14227TIP3   OH264095   6.000   3.954   2.969 -0.2117  0.1168  0.2515
14227TIP3    H164096   5.995   3.972   3.063 -0.7249  0.4979  0.1495
14227TIP3    H264097   5.951   4.024   2.928  1.2706  0.8046 -0.4105
14228TIP3   OH264098   1.373   0.445  16.810  0.1034 -0.1276 -0.2208
14228TIP3    H164099   1.385   0.500  16.888 -1.4110  2.5382 -1.7041
14228TIP3    H264100   1.419   0.364  16.830 -0.0383  0.5130  3.3482
14229TIP3   OH264101   3.377   5.159  14.194 -0.1980 -0.1609 -0.8358
14229TIP3    H164102   3.300   5.215  14.198  1.0180  1.5792 -0.2875
14229TIP3    H264103   3.437   5.197  14.259  1.1245 -1.4409 -1.2586
14230TIP3   OH264104   5.806   3.960  15.929 -0.0846  0.4034 -0.2827
14230TIP3    H164105   5.888   4.006  15.912 -0.1140  0.2658 -0.8159
14230TIP3    H264106   5.818   3.873  15.891 -0.9109  0.7749 -1.4802
14231TIP3   OH264107   5.751   4.100   5.623 -0.4664  0.3617  0.4262
14231TIP3    H164108   5.796   4.049   5.690 -1.7136 -0.7598  0.4781
14231TIP3    H264109   5.763   4.050   5.542  0.2379  1.2145 -0.0109
14232TIP3   OH264110   2.355   1.415  13.690 -0.4106  0.2307  0.5150
14232TIP3    H164111   2.400   1.461  13.619 -3.8160  3.4595  0.0996
14232TIP3    H264112   2.302   1.349  13.645  0.5874 -0.6245  0.5630
14233TIP3   OH264113   2.743   4.654  13.801 -0.0489 -0.6362  0.6972
14233TIP3    H164114   2.783   4.569  13.779  1.1473 -0.2333  1.2098
14233TIP3    H264115   2.813   4.702  13.846 -0.3437  1.0713 -0.5762
14234TIP3   OH264116   3.888   3.225  16.765 -0.3458  0.7950 -0.6112
14234TIP3    H164117   3.892   3.252  16.673 -0.2601 -2.0338 -1.5492
14234TIP3    H264118   3.964   3.265  16.806 -0.4100  2.1414 -1.7351
14235TIP3   OH264119   1.203   0.495   3.789  0.2202  0.4131  0.1715
14235TIP3    H164120   1.197   0.549   3.868 -1.1476  1.3635 -0.5358
14235TIP3    H264121   1.176   0.408   3.817 -0.8072  0.8684  0.6584
14236TIP3   OH264122   6.611   2.635   4.292 -0.2044 -0.3130  0.5454
14236TIP3    H164123   6.615   2.730   4.280  1.2619 -0.4439 -0.1826
14236TIP3    H264124   6.631   2.599   4.206  2.5383 -1.2743  1.4943
14237TIP3   OH264125   6.051   1.943   4.900  1.1466  0.4842 -0.1478
14237TIP3    H164126   6.068   2.006   4.970  0.3716  1.5774 -0.9111
14237TIP3    H264127   6.133   1.939   4.850  1.4820  0.2042  0.4166
14238TIP3   OH264128   4.914   1.817   0.186  0.3977 -0.1916  0.6981
14238TIP3    H164129   4.983   1.812   0.120  0.6135  1.0148  0.8174
14238TIP3    H264130   4.876   1.904   0.176  1.7501  0.8462  3.4200
14239TIP3   OH264131   6.028   3.182  12.885 -0.4911  0.0221  0.0515
14239TIP3    H164132   5.998   3.091  12.882 -2.8624  0.7836 -1.6619
14239TIP3    H264133   6.111   3.181  12.838 -0.7710 -1.1665 -0.4646
14240TIP3   OH264134   3.098   4.763   1.704 -0.5887  0.2492 -0.5019
14240TIP3    H164135   3.182   4.792   1.740 -0.3933  1.0358 -1.5293
14240TIP3    H264136   3.123   4.705   1.632 -0.9634 -0.9895  0.3300
14241TIP3   OH264137   0.903   1.420  16.157  0.4646 -0.4110  0.8952
14241TIP3    H164138   0.976   1.362  16.178 -0.1615 -0.9154  1.7467
14241TIP3    H264139   0.943   1.507  16.149  1.2285 -0.7621  0.8069
14242TIP3   OH264140   1.086   1.897  11.940 -0.2460  0.0661 -0.0543
14242TIP3    H164141   1.055   1.940  12.019  0.9057  0.6885  0.0852
14242TIP3    H264142   1.127   1.816  11.970  1.5955  1.0410  0.2000
14243TIP3   OH264143   5.199   3.853   7.080 -0.0579 -0.2908  0.3166
14243TIP3    H164144   5.224   3.864   6.989 -0.4318 -1.1017  0.1130
14243TIP3    H264145   5.250   3.920   7.127 -1.4528  1.6208 -0.7388
14244TIP3   OH264146   5.489   2.833   2.810  0.9327  0.3814 -0.1209
14244TIP3    H164147   5.458   2.792   2.730 -1.6439  1.0989  0.4129
14244TIP3    H264148   5.572   2.875   2.786  1.3699 -1.3285 -1.7688
14245TIP3   OH264149   0.948   5.138  17.006  0.0618  0.4345 -0.3972
14245TIP3    H164150   0.903   5.221  17.026  0.1337  0.5420 -0.6683
14245TIP3    H264151   0.894   5.098  16.938 -1.2857 -0.8797  1.3726
14246TIP3   OH264152   2.067   3.960  12.193  0.1649 -0.1665 -0.1024
14246TIP3    H164153   2.018   3.908  12.256  1.0112 -0.6509  0.1769
14246TIP3    H264154   2.133   3.900  12.158  1.2230  0.7091  0.2926
14247TIP3   OH264155   0.263   5.202  11.961 -0.0490 -0.0199 -0.4791
14247TIP3    H164156   0.278   5.296  11.958 -1.3174  0.1771 -2.3957
14247TIP3    H264157   0.172   5.191  11.932  0.5327 -1.9081 -1.7810
14248TIP3   OH264158   2.490   6.361  13.216  0.0654 -0.3741 -0.1163
14248TIP3    H164159   2.454   6.278  13.247 -0.8989 -0.1337 -0.5486
14248TIP3    H264160   2.528   6.401  13.294  1.8023 -1.8169 -0.1554
14249TIP3   OH264161   5.734   6.550  15.085 -0.1357 -0.4571  0.2566
14249TIP3    H164162   5.684   6.475  15.117  1.0012 -2.0733 -1.6134
14249TIP3    H264163   5.819   6.543  15.129  0.8247 -1.7181 -1.6607
14250TIP3   OH264164   0.354   0.918   3.497 -0.1038  0.1495 -0.1882
14250TIP3    H164165   0.271   0.908   3.545  0.1061  0.9137  0.3665
14250TIP3    H264166   0.411   0.851   3.534 -0.0200  0.5791  0.4735
14251TIP3   OH264167   6.699   1.483  13.240  0.4293  0.3931  0.0793
14251TIP3    H164168   6.637   1.555  13.256 -0.5392 -0.2560 -0.6055
14251TIP3    H264169   6.689   1.463  13.147  3.7110  2.0790 -0.7628
14252TIP3   OH264170   2.813   0.704   0.479  0.5193 -0.2837  0.0435
14252TIP3    H164171   2.829   0.798   0.485 -0.3049 -0.1459  0.2251
14252TIP3    H264172   2.719   0.694   0.496  0.5951 -1.1396  0.0314
14253TIP3   OH264173   6.645   4.397  13.369  0.1232 -0.3160 -0.1620
14253TIP3    H164174   6.718   4.441  13.326 -0.1326  0.2179 -0.0556
14253TIP3    H264175   6.667   4.397  13.462  0.7365 -1.5860 -0.2795
14254TIP3   OH264176   0.088   2.369  16.864  0.0461  0.7809 -0.1771
14254TIP3    H164177   0.117   2.342  16.777  0.2104  0.0142  0.1051
14254TIP3    H264178   0.137   2.449  16.882  1.0824  0.1749 -0.2186
14255TIP3   OH264179   0.595   2.644  14.611 -0.5232  0.2230 -0.0804
14255TIP3    H164180   0.584   2.730  14.650 -0.9421  0.1664 -0.0726
14255TIP3    H264181   0.588   2.583  14.684  2.6149  0.2912  0.4294
14256TIP3   OH264182   6.154   6.256  10.864  0.1497  0.5730 -0.3095
14256TIP3    H164183   6.185   6.315  10.796  1.1552  0.5650  0.1252
14256TIP3    H264184   6.209   6.178  10.856 -1.6020 -0.6231 -1.3178
14257TIP3   OH264185   6.579   1.519   2.415 -0.1539  0.0933  0.3461
14257TIP3    H164186   6.637   1.518   2.491  0.6979  1.5963 -0.2447
14257TIP3    H264187   6.609   1.593   2.363 -1.1944 -0.4603 -1.0996
14258TIP3   OH264188   6.293   1.720   4.699 -0.0912  0.0203  0.1531
14258TIP3    H164189   6.367   1.724   4.759 -0.2715  0.9588  0.3281
14258TIP3    H264190   6.268   1.811   4.685  0.1539 -0.1360 -1.6188
14259TIP3   OH264191   5.353   3.308   2.668 -0.3990  0.2452  0.0493
14259TIP3    H164192   5.335   3.253   2.592  0.5675 -0.1816  0.1118
14259TIP3    H264193   5.398   3.250   2.729 -2.1346  0.2931  1.4280
14260TIP3   OH264194   5.682   6.451  13.224  0.2016  0.3851 -0.0346
14260TIP3    H164195   5.750   6.479  13.162  0.6752 -0.5223  0.0447
14260TIP3    H264196   5.727   6.449  13.309  0.5745 -1.7486 -0.2140
14261TIP3   OH264197   2.746   4.217  15.764  0.3815 -0.7338  0.2925
14261TIP3    H164198   2.702   4.260  15.837 -1.0011 -1.8094  0.1443
14261TIP3    H264199   2.829   4.186  15.801 -0.0834 -0.8365  1.2893
14262TIP3   OH264200   1.602   4.174  11.703 -0.5555 -0.4580 -0.1137
14262TIP3    H164201   1.530   4.217  11.749  0.4143 -0.6492  1.6892
14262TIP3    H264202   1.561   4.101  11.657 -1.5489 -0.4591  0.7364
14263TIP3   OH264203   6.307   1.821  15.067 -0.2940 -0.1991  0.7290
14263TIP3    H164204   6.347   1.735  15.080 -0.7276 -0.4892  0.1927
14263TIP3    H264205   6.224   1.817  15.115  0.0684  0.2154  1.3994
14264TIP3   OH264206   2.874   5.203  16.986 -0.5190 -0.5508 -0.4059
14264TIP3    H164207   2.917   5.261  17.048 -0.5189 -1.0302  0.0562
14264TIP3    H264208   2.912   5.225  16.901 -1.1159  0.6914 -0.3762
14265TIP3   OH264209   2.033   0.019   2.011 -0.0090  0.5892  0.5612
14265TIP3    H164210   2.076   0.082   2.069 -2.4304  1.5238  1.5242
14265TIP3    H264211   2.046   0.055   1.923  1.7262  0.4284  0.7254
14266TIP3   OH264212   0.037   3.518   5.609  0.0975  0.1503  0.1074
14266TIP3    H164213   0.032   3.609   5.639 -2.1957 -0.2343  1.1355
14266TIP3    H264214   0.014   3.522   5.516 -2.5391  0.4644  0.6815
14267TIP3   OH264215   5.724   4.915   5.199 -0.8086 -0.0630 -0.4924
14267TIP3    H164216   5.756   4.875   5.280 -0.0374  0.2305 -0.6473
14267TIP3    H264217   5.797   4.967   5.167 -1.8994  1.8042 -0.0997
14268TIP3   OH264218   1.675   0.295   4.715 -0.0442 -0.3358  0.2825
14268TIP3    H164219   1.595   0.316   4.667 -0.1189 -0.4311  0.3629
14268TIP3    H264220   1.706   0.379   4.748 -0.1317 -0.3035  0.2829
14269TIP3   OH264221   6.279   6.566   3.286  0.4804  0.8264  0.3479
14269TIP3    H164222   6.247   6.542   3.373  0.9270  1.5310  0.7115
14269TIP3    H264223   6.317   6.485   3.252  1.2248  0.7896  1.2225
14270TIP3   OH264224   0.606   5.226   2.883  0.0269  0.0297  0.2302
14270TIP3    H164225   0.522   5.226   2.838 -1.1276  0.1031  2.2677
14270TIP3    H264226   0.631   5.134   2.889 -0.2687 -0.0465  0.2645
14271TIP3   OH264227   6.615   1.071  13.886 -0.1734  0.2915 -0.4864
14271TIP3    H164228   6.548   1.005  13.870  0.6025 -0.1299 -2.2410
14271TIP3    H264229   6.586   1.147  13.835 -0.6637  1.0627  0.8985
14272TIP3   OH264230   2.710   3.345  11.668  0.5865  0.0186 -0.6022
14272TIP3    H164231   2.719   3.441  11.676  0.3491  0.0831 -1.1193
14272TIP3    H264232   2.634   3.332  11.612  1.5658 -0.4473 -1.8882
14273TIP3   OH264233   6.157   2.029   2.541 -0.4360 -0.3815  0.8084
14273TIP3    H164234   6.077   1.989   2.506 -0.2453 -0.0406 -0.0598
14273TIP3    H264235   6.182   2.093   2.474  0.9999 -1.0349  0.6891
14274TIP3   OH264236   0.080   4.908   0.262 -0.1560 -0.5368  0.4106
14274TIP3    H164237   0.052   4.979   0.320 -0.4258 -0.1658 -0.1543
14274TIP3    H264238   0.175   4.907   0.269 -0.0782  0.5030 -0.2643
14275TIP3   OH264239   4.692   4.725  16.326  0.1300  0.4436 -0.0869
14275TIP3    H164240   4.749   4.650  16.339  0.4424  0.7149  0.1053
14275TIP3    H264241   4.747   4.802  16.343 -0.3329  0.7002  0.2734
14276TIP3   OH264242   1.718   5.517   4.811 -0.8804 -0.2282  0.0781
14276TIP3    H164243   1.765   5.594   4.779  0.1534 -0.4970  0.8854
14276TIP3    H264244   1.787   5.458   4.841 -1.7217 -0.8597  0.8157
14277TIP3   OH264245   0.171   3.887  13.183  0.4380  0.6252  0.0026
14277TIP3    H164246   0.123   3.879  13.265 -0.0184 -0.8761 -0.3829
14277TIP3    H264247   0.253   3.929  13.207  0.0431  0.7665  1.1277
14278TIP3   OH264248   3.380   1.589  13.997  0.1888 -0.0912 -0.0305
14278TIP3    H164249   3.328   1.550  14.068  0.5387 -2.8468 -1.1478
14278TIP3    H264250   3.471   1.576  14.024  0.3227  0.5178 -0.1762
14279TIP3   OH264251   5.399   5.307   0.456 -0.3189 -0.3393  0.2423
14279TIP3    H164252   5.372   5.254   0.381 -0.5267 -0.3205  0.3031
14279TIP3    H264253   5.408   5.245   0.528  1.6374 -0.6589 -0.2055
14280TIP3   OH264254   5.148   4.880  11.512 -0.2686  0.0064 -0.0743
14280TIP3    H164255   5.167   4.819  11.582  0.0053  1.0024  0.7449
14280TIP3    H264256   5.113   4.826  11.441 -0.3671 -1.0360  0.7514
14281TIP3   OH264257   1.763   5.799   2.421 -0.3492 -0.1630 -0.6737
14281TIP3    H164258   1.689   5.825   2.476  1.3561 -0.6793  2.0160
14281TIP3    H264259   1.834   5.859   2.444  1.1037 -1.8162 -0.5886
14282TIP3   OH264260   4.165   4.182  10.864 -0.4565  0.0007 -0.2196
14282TIP3    H164261   4.101   4.136  10.809  0.2435 -3.8677  1.8630
14282TIP3    H264262   4.128   4.178  10.952  1.5815 -0.3032  0.6700
14283TIP3   OH264263   3.583   5.948  15.220  0.1378 -0.2061  0.0039
14283TIP3    H164264   3.509   5.964  15.161 -0.3385  1.4009  0.9798
14283TIP3    H264265   3.658   5.987  15.175  0.0193 -0.1432 -0.1407
14284TIP3   OH264266   1.283   2.379   7.116 -0.2743 -0.2399  0.5157
14284TIP3    H164267   1.341   2.362   7.042 -0.6001  1.3994 -0.1542
14284TIP3    H264268   1.220   2.443   7.084 -0.8533 -0.0113  2.0056
14285TIP3   OH264269   6.302   2.316   2.666 -0.1000 -0.0113 -0.2613
14285TIP3    H164270   6.256   2.246   2.713  0.1786  0.4761  0.7698
14285TIP3    H264271   6.313   2.385   2.731 -0.8514  1.2356 -1.4089
14286TIP3   OH264272   5.502   5.282   3.164 -0.1937 -0.1666 -0.3672
14286TIP3    H164273   5.577   5.228   3.191 -0.8989 -0.3051  1.4908
14286TIP3    H264274   5.427   5.223   3.173 -0.4940 -0.2803 -3.0105
14287TIP3   OH264275   5.457   5.727  11.378  0.7948 -0.4071  0.9033
14287TIP3    H164276   5.404   5.806  11.391  1.1263 -0.2047  1.0350
14287TIP3    H264277   5.456   5.712  11.284 -0.4144 -1.0426  0.9931
14288TIP3   OH264278   3.804   0.768   6.711 -0.1723 -0.7906 -0.9966
14288TIP3    H164279   3.849   0.851   6.699 -1.4598  0.1950  0.5487
14288TIP3    H264280   3.766   0.773   6.799 -1.3357 -2.4950 -1.3327
14289TIP3   OH264281   5.630   0.536   3.693 -0.1880 -0.4871 -0.3131
14289TIP3    H164282   5.566   0.580   3.637 -0.4832 -0.9409 -0.3362
14289TIP3    H264283   5.696   0.603   3.710 -1.5523  0.5654  1.1810
14290TIP3   OH264284   5.668   0.698  15.625  0.2933  0.6271  0.2189
14290TIP3    H164285   5.626   0.629  15.675  0.4948  0.4981  0.2104
14290TIP3    H264286   5.729   0.652  15.567 -0.4090  0.7113 -0.6224
14291TIP3   OH264287   1.648   3.572   5.930  0.1868 -0.2554 -0.7329
14291TIP3    H164288   1.693   3.644   5.973  0.1394 -0.4228 -0.4005
14291TIP3    H264289   1.670   3.495   5.982 -1.1268 -0.2232 -0.0765
14292TIP3   OH264290   6.023   0.617  14.460 -0.2655  0.1837  0.2347
14292TIP3    H164291   6.008   0.527  14.491  1.7969  0.0664  1.0540
14292TIP3    H264292   5.936   0.657  14.462 -1.0672 -1.4596  0.9563
14293TIP3   OH264293   1.539   5.689  14.587 -0.3404  0.2132  0.2293
14293TIP3    H164294   1.480   5.764  14.574 -1.1195  0.1858  2.9851
14293TIP3    H264295   1.539   5.675  14.681  2.3531 -1.2602  0.1032
14294TIP3   OH264296   1.813   0.345  14.158 -0.1324  0.0055  0.2946
14294TIP3    H164297   1.776   0.416  14.106  0.6114 -0.2421 -0.6084
14294TIP3    H264298   1.758   0.269  14.138 -1.9300  0.6435  2.5035
14295TIP3   OH264299   5.723   1.204   2.721 -0.8243  0.4792  0.0967
14295TIP3    H164300   5.692   1.137   2.660 -1.3004 -0.5990  1.4811
14295TIP3    H264301   5.643   1.236   2.764 -0.3021 -0.7468  2.1002
14296TIP3   OH264302   0.623   0.999  11.328 -0.1853 -0.3624  0.7320
14296TIP3    H164303   0.558   0.999  11.398  0.3169  0.3104  1.2191
14296TIP3    H264304   0.689   1.063  11.357  1.2630 -1.8010  0.7925
14297TIP3   OH264305   3.211   4.393  12.428  0.1221  0.0438 -0.3309
14297TIP3    H164306   3.151   4.367  12.497  0.9359 -2.4818 -0.4771
14297TIP3    H264307   3.190   4.485  12.411 -2.2953 -0.1915  0.9826
14298TIP3   OH264308   4.974   1.290   2.817 -0.3963 -0.1693 -0.3897
14298TIP3    H164309   4.931   1.207   2.794  0.4939 -0.4712 -1.0137
14298TIP3    H264310   4.988   1.285   2.911  0.5004 -1.1424 -0.5628
14299TIP3   OH264311   5.979   3.441  14.763  1.0380 -0.1204  1.1359
14299TIP3    H164312   5.994   3.530  14.796  1.9210 -0.0574  0.5866
14299TIP3    H264313   6.032   3.385  14.821  1.4348 -0.1609  0.7358
14300TIP3   OH264314   3.170   0.066  15.780  0.1848 -0.7795 -0.1005
14300TIP3    H164315   3.208   0.140  15.827 -1.1349  0.5148 -0.9873
14300TIP3    H264316   3.214   0.067  15.694 -1.6295  0.6595 -1.0920
14301TIP3   OH264317   4.405   2.372  11.534 -0.3762  0.1007  0.4699
14301TIP3    H164318   4.441   2.418  11.458  0.9501 -1.4180  0.1216
14301TIP3    H264319   4.405   2.438  11.603  1.9750  0.5581  0.1255
14302TIP3   OH264320   3.693   5.377  14.905  0.5211  0.7296 -0.0650
14302TIP3    H164321   3.687   5.445  14.972  0.2810  0.5235  0.1249
14302TIP3    H264322   3.785   5.375  14.881  0.2110  2.5822 -1.5901
14303TIP3   OH264323   1.756   6.030  11.434  0.5351 -0.4305  0.5339
14303TIP3    H164324   1.793   5.993  11.354 -1.2855 -1.7196  0.2123
14303TIP3    H264325   1.798   5.980  11.505  0.2269 -1.1297  0.2361
14304TIP3   OH264326   4.051   2.080  13.727  0.4987  0.1520  0.2060
14304TIP3    H164327   3.989   2.147  13.757 -0.3824 -0.3216 -0.5117
14304TIP3    H264328   4.098   2.053  13.806  0.1679  0.8929  0.6708
14305TIP3   OH264329   0.465   3.611  10.963 -0.2294  0.5774  0.1807
14305TIP3    H164330   0.375   3.616  10.996 -0.7381 -0.1256 -1.0182
14305TIP3    H264331   0.503   3.536  11.009 -0.3156  0.7474  0.5364
14306TIP3   OH264332   3.258   2.699  16.166  0.9789 -0.2534  0.2044
14306TIP3    H164333   3.192   2.749  16.118  0.1421 -1.2001  0.3566
14306TIP3    H264334   3.328   2.685  16.102  0.9948  0.6448  0.0038
14307TIP3   OH264335   5.050   3.568  15.511 -0.3413 -0.1345  0.1578
14307TIP3    H164336   5.042   3.487  15.562  0.0146  0.7403  1.6552
14307TIP3    H264337   5.085   3.632  15.573 -1.2707  1.3552 -0.8077
14308TIP3   OH264338   2.075   1.410  14.856 -0.0521  0.4187  0.2454
14308TIP3    H164339   2.065   1.410  14.761 -0.9749  0.8121  0.3240
14308TIP3    H264340   2.043   1.496  14.883  2.7288  1.4101  0.7074
14309TIP3   OH264341   4.506   5.084  15.297 -0.0250  0.6923  0.4325
14309TIP3    H164342   4.467   5.145  15.360  0.7016  0.8804  0.7098
14309TIP3    H264343   4.437   5.019  15.282 -1.4905  2.4934 -1.2110
14310TIP3   OH264344   1.662   2.313   5.994  0.0103 -0.2551 -0.4394
14310TIP3    H164345   1.655   2.237   5.937  2.5676 -0.4942 -0.5389
14310TIP3    H264346   1.674   2.277   6.082  0.3380  0.0403 -0.3607
14311TIP3   OH264347   4.806   3.837   1.343  0.4840  0.2469  0.3037
14311TIP3    H164348   4.805   3.815   1.249 -0.6640 -2.9809  0.9269
14311TIP3    H264349   4.714   3.831   1.370  1.1057 -3.8128  2.4196
14312TIP3   OH264350   3.524   2.036   0.900 -0.2687  0.0794  0.3342
14312TIP3    H164351   3.512   2.113   0.955  0.1575 -0.5893  1.3936
14312TIP3    H264352   3.566   2.069   0.821 -1.7970  1.2167 -0.0630
14313TIP3   OH264353   4.709   1.715  13.246 -0.0591 -0.4055 -0.1200
14313TIP3    H164354   4.709   1.671  13.330  0.3364 -2.6575 -1.2203
14313TIP3    H264355   4.780   1.779  13.252 -0.4359 -0.1006  1.4254
14314TIP3   OH264356   6.076   3.375   5.811  0.0298  0.3555  0.0842
14314TIP3    H164357   6.019   3.303   5.785  0.0729  0.6480 -0.8452
14314TIP3    H264358   6.053   3.391   5.903 -0.8956  0.0209 -0.0741
14315TIP3   OH264359   3.733   4.427   3.301 -0.8729 -0.0955 -0.0388
14315TIP3    H164360   3.663   4.479   3.262  0.2052  1.5640  0.1748
14315TIP3    H264361   3.724   4.441   3.395 -0.0599  0.3945 -0.0286
14316TIP3   OH264362   1.974   0.394   1.240 -0.5802  0.6990 -0.5907
14316TIP3    H164363   1.896   0.433   1.199  0.0016  0.5334 -1.8944
14316TIP3    H264364   1.979   0.436   1.326 -1.5779  1.4014 -0.8561
14317TIP3   OH264365   5.537   3.941   0.108 -0.2769 -0.5013  1.2433
14317TIP3    H164366   5.575   4.017   0.154 -1.3740  0.9912 -0.1941
14317TIP3    H264367   5.613   3.892   0.078  0.4706 -0.0440  2.3044
14318TIP3   OH264368   2.605   1.362   1.064  0.5532 -0.0863  0.1548
14318TIP3    H164369   2.632   1.285   1.015  0.5160 -0.4869  0.7514
14318TIP3    H264370   2.681   1.386   1.116  0.8890  0.8743 -0.7458
14319TIP3   OH264371   0.748   6.599   3.953 -0.2824  0.2200  0.2928
14319TIP3    H164372   0.802   6.587   4.031 -0.3763 -0.3161  0.2769
14319TIP3    H264373   0.757   6.692   3.932 -1.0823  0.6215  1.5537
14320TIP3   OH264374   6.178   6.724  16.307 -0.2840 -0.0050  0.1943
14320TIP3    H164375   6.232   6.713  16.228  0.8601  0.2526  0.9184
14320TIP3    H264376   6.102   6.774  16.277 -1.4552 -2.5499 -1.4059
14321TIP3   OH264377   1.428   0.145  15.604 -0.0386  0.7732  0.2807
14321TIP3    H164378   1.494   0.210  15.581  0.7205 -0.9734 -3.1106
14321TIP3    H264379   1.451   0.068  15.553 -3.1062 -0.8872  1.1316
14322TIP3   OH264380   4.113   1.791   1.242 -0.1910  0.5781  1.0870
14322TIP3    H164381   4.120   1.703   1.279 -0.1325  0.2903  0.4058
14322TIP3    H264382   4.043   1.832   1.292 -0.8170 -0.1590  0.8365
14323TIP3   OH264383   2.677   5.120   4.587 -0.0097 -0.0624 -0.1162
14323TIP3    H164384   2.651   5.206   4.619  0.6685  0.0515  0.1444
14323TIP3    H264385   2.594   5.076   4.566 -0.3226  1.5057 -2.5816
14324TIP3   OH264386   1.958   0.554   6.402 -0.3317  0.5116 -0.2612
14324TIP3    H164387   1.938   0.485   6.339  0.5722 -0.4451  0.4627
14324TIP3    H264388   2.033   0.521   6.451 -0.4939  1.5911  0.7701
14325TIP3   OH264389   0.755   3.668   4.671  0.1321 -0.4574 -0.4637
14325TIP3    H164390   0.843   3.655   4.634  0.6308  1.0683  0.0955
14325TIP3    H264391   0.761   3.752   4.715 -1.2363 -0.9814  0.7666
14326TIP3   OH264392   4.456   4.195  12.974  0.4409  0.0021 -0.2273
14326TIP3    H164393   4.386   4.172  12.913 -1.0015 -1.2426  1.7801
14326TIP3    H264394   4.414   4.255  13.036  1.4296  0.0203  0.4356
14327TIP3   OH264395   0.386   4.479   3.783  0.0996 -0.2379 -0.3726
14327TIP3    H164396   0.471   4.447   3.752  1.1873 -1.1517  3.0987
14327TIP3    H264397   0.322   4.419   3.745  0.9743  0.1689 -2.6576
14328TIP3   OH264398   0.822   6.699  16.660  0.1935 -0.3715 -0.5407
14328TIP3    H164399   0.806   6.756  16.735  1.2025  0.0666 -0.6277
14328TIP3    H264400   0.738   6.693  16.616 -0.4680 -0.8312  0.7505
14329TIP3   OH264401   3.296   5.747  12.813  0.3922 -0.7666 -0.3620
14329TIP3    H164402   3.383   5.733  12.778  0.6894 -1.1616  0.5018
14329TIP3    H264403   3.308   5.747  12.908 -0.3617  0.3840 -0.2478
14330TIP3   OH264404   1.099   3.857   5.812  0.0034 -0.1621 -0.5909
14330TIP3    H164405   1.090   3.764   5.831 -1.1925 -0.4440 -2.3230
14330TIP3    H264406   1.182   3.864   5.764  0.5817 -0.1611  0.3791
14331TIP3   OH264407   4.724   1.995   1.036 -0.4128 -0.0459  0.0479
14331TIP3    H164408   4.673   1.939   0.978  1.9506 -0.7022 -1.5129
14331TIP3    H264409   4.781   1.935   1.084  0.3634  0.8089  0.2240
14332TIP3   OH264410   2.035   3.555  12.972 -0.5231 -0.1061 -0.4586
14332TIP3    H164411   2.088   3.481  12.942 -1.9274 -1.1892 -0.3680
14332TIP3    H264412   1.978   3.575  12.897 -1.8664 -0.7731  0.3394
14333TIP3   OH264413   2.285   6.674  14.387  0.3055  0.1739  0.0860
14333TIP3    H164414   2.249   6.675  14.299 -2.2476 -1.9684  0.9747
14333TIP3    H264415   2.358   6.612  14.382 -0.0354 -0.1917 -0.4625
14334TIP3   OH264416   3.745   4.909  12.164 -0.2059  0.7732 -0.2839
14334TIP3    H164417   3.719   4.837  12.221 -0.9333  1.7957  0.7072
14334TIP3    H264418   3.832   4.884  12.132 -1.0047 -1.1586 -1.0556
14335TIP3   OH264419   3.480   6.724  17.010  0.1546  0.2545  0.3784
14335TIP3    H164420   3.535   6.650  16.984  1.8643  1.3236  0.7801
14335TIP3    H264421   3.393   6.702  16.977  1.3402 -0.2506 -2.7640
14336TIP3   OH264422   5.086   1.371   3.572  0.2670  0.4152 -0.2582
14336TIP3    H164423   5.092   1.405   3.661  2.1037 -0.2098 -0.1108
14336TIP3    H264424   5.170   1.395   3.531  0.9438 -2.3762 -0.6796
14337TIP3   OH264425   1.763   1.471  13.611  0.0009 -0.2055 -0.0212
14337TIP3    H164426   1.835   1.417  13.578  3.0916  3.1564  0.4719
14337TIP3    H264427   1.777   1.473  13.706 -0.0026  1.3761 -0.0260
14338TIP3   OH264428   5.702   1.115  11.422  0.2069 -0.3253  0.1663
14338TIP3    H164429   5.660   1.057  11.358  0.3719  0.9760 -1.1822
14338TIP3    H264430   5.706   1.063  11.502 -1.5419 -1.4273 -0.3960
14339TIP3   OH264431   0.505   1.339   2.436 -0.1700  0.0544 -0.2320
14339TIP3    H164432   0.491   1.266   2.497  2.6854 -0.4413 -0.0290
14339TIP3    H264433   0.481   1.304   2.351 -4.2720  0.7676  0.4400
14340TIP3   OH264434   1.321   3.955  11.798  0.3716 -0.4784  0.0108
14340TIP3    H164435   1.303   3.924  11.887  0.9239 -1.1109 -0.0942
14340TIP3    H264436   1.253   3.913  11.745 -0.1855  0.1905  0.1781
14341TIP3   OH264437   3.504   3.061   2.741 -0.2345  0.1866  0.1769
14341TIP3    H164438   3.475   2.981   2.699  0.5154 -0.6487  1.2060
14341TIP3    H264439   3.562   3.102   2.677  0.7930 -1.0018  0.3113
14342TIP3   OH264440   1.940   3.861   4.588 -0.1243  0.5258 -0.4026
14342TIP3    H164441   1.972   3.787   4.641 -2.6185  0.5150  1.2475
14342TIP3    H264442   1.895   3.917   4.651 -0.2758  2.3044 -2.0199
14343TIP3   OH264443   4.313   5.924  13.441 -0.5705 -0.4983  0.1753
14343TIP3    H164444   4.323   5.854  13.505  1.0869 -0.8409 -0.3979
14343TIP3    H264445   4.259   5.886  13.372  0.3464 -1.2480 -0.1496
14344TIP3   OH264446   4.623   5.366  15.240 -0.6340  0.5065 -0.0658
14344TIP3    H164447   4.694   5.306  15.219 -0.8159  0.7370 -1.4597
14344TIP3    H264448   4.635   5.440  15.180 -1.3694  1.0884  0.4794
14345TIP3   OH264449   4.991   5.770  17.311  0.4651  0.0369  0.1032
14345TIP3    H164450   4.991   5.676  17.327 -1.1546  0.1929  1.3163
14345TIP3    H264451   4.915   5.785  17.254  0.9328  0.5703 -0.3977
14346TIP3   OH264452   3.426   6.112  12.660  0.0196  0.0105 -0.4246
14346TIP3    H164453   3.392   6.028  12.632  0.0632 -0.1046 -0.1328
14346TIP3    H264454   3.501   6.091  12.716 -1.6068  0.1532  1.9283
14347TIP3   OH264455   5.912   0.906  13.675  0.4238 -0.5596  0.4821
14347TIP3    H164456   5.877   0.977  13.621  1.5978 -0.6364 -0.4492
14347TIP3    H264457   6.001   0.934  13.696  0.4514 -1.1686  1.2315
14348TIP3   OH264458   4.639   2.294  12.035  0.4423  0.4484 -0.0962
14348TIP3    H164459   4.695   2.347  12.092 -0.0802  0.3941  0.4734
14348TIP3    H264460   4.550   2.322  12.055  0.1092 -0.9990  0.6185
14349TIP3   OH264461   5.776   2.508   4.872  0.4111 -0.0364  0.2060
14349TIP3    H164462   5.793   2.598   4.902  2.9824 -0.2663 -0.2976
14349TIP3    H264463   5.841   2.455   4.918  1.5828 -1.0282 -2.3796
14350TIP3   OH264464   0.754   6.122   3.444  0.0304 -0.1658 -0.0887
14350TIP3    H164465   0.712   6.043   3.478  1.0617 -0.3373  0.8250
14350TIP3    H264466   0.683   6.170   3.401 -1.1088 -0.4530  1.3988
14351TIP3   OH264467   6.709   0.768  15.833  0.1096  0.5860  0.6403
14351TIP3    H164468   6.667   0.691  15.870  0.4259  0.9442  1.8142
14351TIP3    H264469   6.774   0.734  15.772  0.6689 -0.1106  1.6040
14352TIP3   OH264470   6.594   5.104  11.424  0.0332  0.2832  0.7616
14352TIP3    H164471   6.537   5.181  11.432 -0.2750  0.0577  0.7652
14352TIP3    H264472   6.682   5.140  11.427 -0.1067  0.6399  0.7587
14353TIP3   OH264473   5.370   2.773   2.580 -0.2700 -0.2087 -0.3898
14353TIP3    H164474   5.333   2.689   2.552  1.2063 -1.2880  0.7426
14353TIP3    H264475   5.388   2.820   2.499 -1.7432 -0.6851 -1.0268
14354TIP3   OH264476   6.512   6.260   5.048  0.7508 -0.8624 -0.0591
14354TIP3    H164477   6.547   6.203   4.979  2.1843 -0.6818  0.4686
14354TIP3    H264478   6.557   6.232   5.128 -0.2859 -0.5399  0.6514
14355TIP3   OH264479   6.328   2.336  13.343 -0.6481 -0.2037  0.1395
14355TIP3    H164480   6.279   2.406  13.301  0.1343  0.1634 -0.1787
14355TIP3    H264481   6.261   2.275  13.375 -1.3741  1.0793  1.1204
14356TIP3   OH264482   3.032   3.572   0.568  0.2942  0.8031 -0.3135
14356TIP3    H164483   3.116   3.527   0.576 -0.3762 -0.6610 -1.1032
14356TIP3    H264484   3.009   3.564   0.476 -0.8815  0.8531 -0.0428
14357TIP3   OH264485   6.122   6.709   4.972 -0.2449 -0.3574  0.6816
14357TIP3    H164486   6.128   6.764   5.051  4.0259  0.2813  0.1712
14357TIP3    H264487   6.083   6.766   4.906  0.3910  0.7309  1.2075
14358TIP3   OH264488   2.673   5.722   1.670  0.2270  0.3016 -0.2073
14358TIP3    H164489   2.609   5.765   1.726 -1.4965 -1.6317 -0.5846
14358TIP3    H264490   2.742   5.694   1.731 -0.1384  0.8287  0.4724
14359TIP3   OH264491   1.141   3.688   1.226  0.2380 -0.2492  0.1519
14359TIP3    H164492   1.112   3.598   1.215  1.1369 -0.7552  1.7145
14359TIP3    H264493   1.218   3.683   1.282  0.7776  1.4304 -0.3553
14360TIP3   OH264494   0.780   5.996   5.351 -0.0144  0.7428  0.2812
14360TIP3    H164495   0.686   6.011   5.338 -0.4901 -1.4318  0.7646
14360TIP3    H264496   0.785   5.942   5.430  1.4460 -0.9078 -0.8463
14361TIP3   OH264497   1.507   2.756   4.767 -0.2602  0.1535 -0.5790
14361TIP3    H164498   1.586   2.752   4.712  0.3506  1.8108  0.1125
14361TIP3    H264499   1.532   2.710   4.847 -0.3200 -0.1560 -0.7382
14362TIP3   OH264500   1.177   4.070   0.272  0.1024 -0.1497 -1.0291
14362TIP3    H164501   1.165   4.002   0.338 -1.5211  0.2479 -0.8843
14362TIP3    H264502   1.272   4.081   0.267  0.4193 -2.4603 -1.1145
14363TIP3   OH264503   1.898   2.331   5.693  0.2582 -0.2705 -0.0437
14363TIP3    H164504   1.919   2.334   5.786 -0.8774  0.7443  0.2006
14363TIP3    H264505   1.966   2.276   5.655  0.7654 -0.6648  1.3727
14364TIP3   OH264506   6.765   6.520   5.261  0.5379 -0.0686  0.5225
14364TIP3    H164507   6.798   6.603   5.229  0.2234 -0.2642 -0.3371
14364TIP3    H264508   6.688   6.542   5.313 -1.6286 -0.0002 -2.4880
14365TIP3   OH264509   6.013   0.119   4.806 -0.0553 -0.2661  0.2289
14365TIP3    H164510   5.998   0.148   4.717  1.0386  2.1293  0.7475
14365TIP3    H264511   5.938   0.152   4.856 -0.6477 -1.5656  0.2473
14366TIP3   OH264512   3.233   3.636   1.952 -0.1452  0.1295  0.0308
14366TIP3    H164513   3.156   3.640   2.009 -1.7944 -2.0505 -1.8858
14366TIP3    H264514   3.216   3.701   1.884  0.4530  0.6756  0.3852
14367TIP3   OH264515   5.673   4.311   4.087  0.1073  0.0943  0.0871
14367TIP3    H164516   5.641   4.334   3.999  0.5042  0.1209 -0.0529
14367TIP3    H264517   5.594   4.294   4.137 -0.0897 -1.4209 -0.6743
14368TIP3   OH264518   3.185   5.041   2.025  0.2978  0.7957  0.2679
14368TIP3    H164519   3.126   4.966   2.020  4.5597 -2.8283 -1.4585
14368TIP3    H264520   3.258   5.011   2.079  2.5437  3.4330 -1.0778
14369TIP3   OH264521   4.840   3.555  12.327 -0.7972  0.7525  0.7119
14369TIP3    H164522   4.893   3.635  12.326  1.5752 -0.7358 -0.1877
14369TIP3    H264523   4.880   3.501  12.396 -0.8216 -0.5937 -0.2967
14370TIP3   OH264524   5.158   6.598   2.138  0.4373 -0.1327  0.4719
14370TIP3    H164525   5.175   6.651   2.216 -1.6883  2.4170 -0.6513
14370TIP3    H264526   5.126   6.515   2.172  3.1191 -0.5494  2.2941
14371TIP3   OH264527   0.048   5.431  10.445  0.9336 -0.0925 -0.7624
14371TIP3    H164528  -0.021   5.432  10.512 -0.3685  0.9071 -2.0367
14371TIP3    H264529   0.044   5.343  10.408  1.7671 -0.7061  0.5195
14372TIP3   OH264530   2.324   2.781  17.045 -0.1718  0.1825  0.2546
14372TIP3    H164531   2.298   2.741  16.962  1.3513  1.9763 -1.1827
14372TIP3    H264532   2.394   2.725  17.079 -0.7826 -0.5429  0.3181
14373TIP3   OH264533   4.058   3.203   5.595  0.0185 -0.0421  0.1281
14373TIP3    H164534   4.132   3.167   5.643  2.0778  1.9925 -1.2724
14373TIP3    H264535   4.029   3.278   5.647  0.0675  0.1843 -0.1666
14374TIP3   OH264536   1.768   3.272   3.787  0.0682  0.8569 -0.4221
14374TIP3    H164537   1.811   3.356   3.802 -0.5752  0.8852  1.5118
14374TIP3    H264538   1.693   3.294   3.732 -2.0829  2.2536  2.7458
14375TIP3   OH264539   5.973   3.377   0.294  0.5439  0.0426  0.3716
14375TIP3    H164540   5.986   3.300   0.239 -0.5312  0.5500 -0.6376
14375TIP3    H264541   6.061   3.404   0.320  0.9289 -1.7341  1.0692
14376TIP3   OH264542   3.647   4.065  11.697  0.1728 -0.1983  0.4831
14376TIP3    H164543   3.710   4.135  11.679 -0.5818  0.6452  1.0453
14376TIP3    H264544   3.698   4.000  11.745  0.8755 -0.0223 -0.0010
14377TIP3   OH264545   1.031   3.258  14.273  0.2187  0.1726  0.7369
14377TIP3    H164546   0.985   3.257  14.357 -1.8446  1.9389 -0.2889
14377TIP3    H264547   0.991   3.329  14.224  2.5241  0.2995 -1.1483
14378TIP3   OH264548   6.386   5.043   3.045  0.4234 -0.7826 -0.0442
14378TIP3    H164549   6.311   5.056   2.986  0.6002  0.6265  0.0199
14378TIP3    H264550   6.412   4.952   3.029  0.1415 -0.6057 -1.7680
14379TIP3   OH264551   6.427   1.468  12.008 -0.2568  0.2306 -0.5505
14379TIP3    H164552   6.432   1.433  12.097  0.7761 -1.6880 -1.3127
14379TIP3    H264553   6.441   1.562  12.018  2.6964 -0.2817  1.0678
14380TIP3   OH264554   4.583   0.692  12.789  0.4941  0.1511 -0.4070
14380TIP3    H164555   4.662   0.745  12.777  0.7478 -0.2234 -0.4192
14380TIP3    H264556   4.572   0.686  12.884  1.1314 -0.7313 -0.3724
14381TIP3   OH264557   6.643   3.977   5.194  0.0193  0.0045 -0.4708
14381TIP3    H164558   6.691   3.928   5.127  0.0519 -2.1810  1.0442
14381TIP3    H264559   6.701   3.977   5.270  0.0229  2.5066 -0.4135
14382TIP3   OH264560   4.074   2.572   2.589 -0.1354  0.0885  0.7587
14382TIP3    H164561   3.990   2.571   2.543 -0.9117  1.7514  2.0213
14382TIP3    H264562   4.096   2.664   2.597  0.4747 -0.1719  2.7242
14383TIP3   OH264563   5.577   6.150  12.469  0.2063 -0.5143 -0.1470
14383TIP3    H164564   5.509   6.203  12.426  1.5872  0.1118 -1.6627
14383TIP3    H264565   5.583   6.185  12.557  0.6505  1.4942 -0.9233
14384TIP3   OH264566   3.608   1.038  14.255  0.3464  0.5241  0.0305
14384TIP3    H164567   3.637   1.071  14.170  1.2294  0.1557  0.1799
14384TIP3    H264568   3.531   0.985  14.235  2.7436 -2.8108 -1.1082
14385TIP3   OH264569   0.289   3.294  11.467  0.1299  0.0728 -1.1145
14385TIP3    H164570   0.283   3.363  11.402  1.8469  1.3852  0.0597
14385TIP3    H264571   0.306   3.214  11.416  0.4992  0.8982 -2.3126
14386TIP3   OH264572   4.345   6.377   5.931  0.2770  0.7249 -0.1439
14386TIP3    H164573   4.400   6.454   5.942 -1.8021  2.2056  0.6676
14386TIP3    H264574   4.307   6.388   5.844 -0.6958  1.1233  0.3151
14387TIP3   OH264575   2.841   3.095  12.879 -0.6131 -0.0814  0.6445
14387TIP3    H164576   2.757   3.136  12.898 -0.7778 -0.0776 -0.0709
14387TIP3    H264577   2.905   3.151  12.922 -1.0506 -0.7857  2.2906
14388TIP3   OH264578   3.023   2.925  11.517  0.2594  0.3535  0.2660
14388TIP3    H164579   3.040   2.917  11.423 -0.1558  1.8852  0.0365
14388TIP3    H264580   3.094   2.980  11.550  1.1767 -1.2718  1.1397
14389TIP3   OH264581   3.476   3.142  11.212 -0.1922 -0.0550  0.3437
14389TIP3    H164582   3.454   3.224  11.167 -2.1898  0.7174  2.5389
14389TIP3    H264583   3.392   3.097  11.222  0.6112 -1.5084  0.8662
14390TIP3   OH264584   3.650   4.159   5.898  0.2686 -0.2772  0.4129
14390TIP3    H164585   3.587   4.171   5.827  1.7573 -1.3883 -1.1629
14390TIP3    H264586   3.624   4.077   5.939  0.4740 -0.5446  0.0068
14391TIP3   OH264587   3.443   2.116  14.367 -0.3598 -0.1440  0.3458
14391TIP3    H164588   3.454   2.148  14.457 -1.6076 -1.2375  0.9264
14391TIP3    H264589   3.516   2.056  14.354  0.5967  1.0311  0.1212
14392TIP3   OH264590   6.717   1.149   2.907 -0.1485 -0.2470  0.2361
14392TIP3    H164591   6.807   1.165   2.935 -0.9026 -0.1123  2.9083
14392TIP3    H264592   6.672   1.120   2.986 -2.2449 -1.2992 -1.2432
14393TIP3   OH264593   2.182   6.610  13.786  0.2267  0.3745  0.1717
14393TIP3    H164594   2.184   6.696  13.745 -0.8307 -0.1444 -1.0292
14393TIP3    H264595   2.222   6.624  13.872  2.1967  1.5603 -0.8626
14394TIP3   OH264596   0.187   1.234   2.729 -0.4592 -0.3917 -0.2164
14394TIP3    H164597   0.149   1.312   2.769 -1.2091 -0.4572 -0.7846
14394TIP3    H264598   0.112   1.183   2.698  0.0800 -0.6197 -1.1891
14395TIP3   OH264599   3.830   6.349  14.858  0.0384  0.0496 -0.0707
14395TIP3    H164600   3.907   6.335  14.802  0.6161  0.1163  0.6990
14395TIP3    H264601   3.761   6.373  14.796  0.9720  1.3635 -0.6667
14396TIP3   OH264602   1.253   0.583   4.278  0.3920 -0.5005 -0.5421
14396TIP3    H164603   1.312   0.610   4.348 -0.2886 -2.2820  0.8016
14396TIP3    H264604   1.167   0.575   4.321 -0.1749 -1.0210 -1.7187
14397TIP3   OH264605   3.046   5.859   2.827 -0.0654 -0.3918  0.0936
14397TIP3    H164606   2.962   5.815   2.822 -0.3131  0.0385  0.3885
14397TIP3    H264607   3.038   5.934   2.767  0.3093 -0.6725 -0.3135
14398TIP3   OH264608   2.383   4.015   1.685 -0.1744  0.3758 -0.0257
14398TIP3    H164609   2.408   3.943   1.627 -1.1080  0.1874 -0.2080
14398TIP3    H264610   2.418   3.991   1.770  0.0727  0.0149 -0.2287
14399TIP3   OH264611   3.634   5.081   3.959 -0.1819 -0.4328 -0.1103
14399TIP3    H164612   3.705   5.037   4.007  2.5891  2.2386 -1.4228
14399TIP3    H264613   3.667   5.088   3.870 -1.3253  2.3526 -0.4141
14400TIP3   OH264614   2.134   1.308   4.661  0.0170  0.3295  0.4415
14400TIP3    H164615   2.214   1.276   4.621 -0.7158 -0.1486 -0.6956
14400TIP3    H264616   2.119   1.393   4.621  0.1650  0.6051  0.9593
14401TIP3   OH264617   4.253   3.247  13.105  0.0619  0.1107  0.3156
14401TIP3    H164618   4.313   3.182  13.071 -2.4317 -1.7029 -0.9264
14401TIP3    H264619   4.222   3.211  13.188  1.2223  1.4248  1.3705
14402TIP3   OH264620   3.095   1.446   5.787 -0.6089 -0.0860 -0.0547
14402TIP3    H164621   3.179   1.413   5.821  0.5265  1.4606 -1.1767
14402TIP3    H264622   3.031   1.423   5.854  0.6871 -1.4569  0.7678
14403TIP3   OH264623   3.761   4.135   3.427  0.4281  0.5777  0.0234
14403TIP3    H164624   3.832   4.160   3.485  0.3012 -1.4046  1.1162
14403TIP3    H264625   3.692   4.200   3.443  1.2123  1.3185  0.4537
14404TIP3   OH264626   0.181   3.516   0.848  0.1770 -0.4179  0.5826
14404TIP3    H164627   0.107   3.496   0.907 -0.4000 -4.8364 -1.2368
14404TIP3    H264628   0.151   3.592   0.798 -1.6214  0.0537  2.2068
14405TIP3   OH264629   0.519   2.013   5.718  0.2458  0.0768 -0.0568
14405TIP3    H164630   0.549   1.933   5.674 -0.7126  0.3843 -1.3309
14405TIP3    H264631   0.454   2.050   5.658  0.9686  2.0449  0.3024
14406TIP3   OH264632   6.728   2.476   0.693  0.7002  0.5622 -0.4841
14406TIP3    H164633   6.642   2.494   0.731  0.0751 -0.5338 -1.3107
14406TIP3    H264634   6.782   2.549   0.722 -0.5544  1.3897 -0.1028
14407TIP3   OH264635   6.037   4.548   2.399  0.0787 -0.0134 -0.1260
14407TIP3    H164636   6.126   4.574   2.421  0.2282 -0.2490 -0.4399
14407TIP3    H264637   5.982   4.591   2.465  0.5722 -1.3983  1.2348
14408TIP3   OH264638   5.464   4.432  16.778 -0.3968  0.0724 -0.2243
14408TIP3    H164639   5.437   4.520  16.806 -1.1974  0.3706 -1.8325
14408TIP3    H264640   5.464   4.436  16.682  2.2017 -0.9049 -0.3566
14409TIP3   OH264641   3.740   6.619   1.195  0.4576 -0.1836 -0.2552
14409TIP3    H164642   3.822   6.601   1.240  0.0907 -0.4042  0.3450
14409TIP3    H264643   3.723   6.539   1.144  1.1817  0.3039 -1.2824
14410TIP3   OH264644   0.955   3.752  15.566  0.6074  0.3649 -0.0625
14410TIP3    H164645   0.961   3.808  15.489  2.6101  0.9219  0.4441
14410TIP3    H264646   1.001   3.672  15.540 -1.3662 -0.6898 -0.4404
14411TIP3   OH264647   0.782   0.064  12.022 -0.1926 -0.2759  0.3308
14411TIP3    H164648   0.725   0.030  11.953 -0.7681 -0.3662  0.8432
14411TIP3    H264649   0.745   0.029  12.104  1.7301 -1.9838  0.5601
14412TIP3   OH264650   5.166   5.479  11.807 -0.0040  0.5795 -0.2916
14412TIP3    H164651   5.191   5.570  11.816  0.1836  0.6603 -1.4714
14412TIP3    H264652   5.215   5.448  11.731 -0.4504 -0.3620 -0.2111
14413TIP3   OH264653   0.451   1.945  12.128 -0.2436  0.4077  0.4620
14413TIP3    H164654   0.527   1.893  12.152  0.2982  0.5046 -0.9668
14413TIP3    H264655   0.416   1.902  12.049  0.0285  1.9921 -0.5629
14414TIP3   OH264656   5.099   3.897  16.718 -0.1316  0.4165  0.1597
14414TIP3    H164657   5.128   3.930  16.803 -0.5773 -2.9467  1.8094
14414TIP3    H264658   5.133   3.807  16.715 -2.3704 -0.4723 -2.0475
14415TIP3   OH264659   4.084   6.720  14.825  0.0310  0.4408  0.2840
14415TIP3    H164660   4.133   6.713  14.744 -0.3234 -1.8859  0.1991
14415TIP3    H264661   4.110   6.805  14.862  2.6656  0.1270 -0.6461
14416TIP3   OH264662   6.524   1.385  15.984  0.6328 -0.1335  0.1850
14416TIP3    H164663   6.433   1.375  16.012  0.7804 -0.5601  0.5229
14416TIP3    H264664   6.576   1.350  16.057  1.1322  1.5455  0.6827
14417TIP3   OH264665   6.400   3.203  11.060  0.0588  0.2965  0.6062
14417TIP3    H164666   6.334   3.150  11.015  0.5122 -1.2167  1.6201
14417TIP3    H264667   6.476   3.203  11.001 -0.0091 -0.0442  0.5169
14418TIP3   OH264668   4.595   6.052  14.613 -0.1303  0.1318  0.6515
14418TIP3    H164669   4.646   6.060  14.533  0.3251 -1.8765  0.6970
14418TIP3    H264670   4.508   6.086  14.590  0.5354  1.3907 -0.0974
14419TIP3   OH264671   0.235   4.338   3.215 -0.0086 -0.3358  0.3517
14419TIP3    H164672   0.308   4.286   3.248  1.3544  1.1390 -0.1860
14419TIP3    H264673   0.256   4.428   3.240 -1.2864  0.2166 -0.4320
14420TIP3   OH264674   4.107   5.975   3.617 -0.0686 -1.0148 -0.3566
14420TIP3    H164675   4.043   6.007   3.681  2.3715 -0.5162  2.0047
14420TIP3    H264676   4.106   6.040   3.547 -0.0038  0.6474  1.1207
14421TIP3   OH264677   0.424   0.875   2.801  0.5576 -0.1177  0.0500
14421TIP3    H164678   0.374   0.932   2.860  0.1699 -0.3288 -0.0706
14421TIP3    H264679   0.453   0.803   2.857 -1.0674 -1.0935 -0.3083
14422TIP3   OH264680   5.705   1.095  15.000 -0.4045  0.3963 -0.2909
14422TIP3    H164681   5.719   1.032  15.071  0.6484  2.2143  1.1898
14422TIP3    H264682   5.623   1.139  15.022  1.1908  2.7659  1.3214
14423TIP3   OH264683   0.985   0.153  16.017  0.4882 -1.3383  0.0800
14423TIP3    H164684   1.037   0.209  15.959  1.3810  0.1315  2.1785
14423TIP3    H264685   0.953   0.083  15.960 -3.5436  2.8633 -3.6519
14424TIP3   OH264686   4.808   2.020  15.702 -0.0178 -0.3146 -0.1983
14424TIP3    H164687   4.779   2.064  15.782  0.5665 -0.4084  0.0763
14424TIP3    H264688   4.835   2.091  15.644  0.7631 -0.2912  0.1801
14425TIP3   OH264689   0.847   0.878   1.160 -0.2591  0.3883 -0.1373
14425TIP3    H164690   0.772   0.818   1.168  0.3450 -0.2563  0.8610
14425TIP3    H264691   0.815   0.961   1.193 -0.4711  0.0507  0.5213
14426TIP3   OH264692   6.719   6.715  14.034 -0.1666 -0.1485  0.3756
14426TIP3    H164693   6.702   6.621  14.027  0.6694 -0.5701  3.0564
14426TIP3    H264694   6.673   6.742  14.113  0.3335  1.5274  0.1250
14427TIP3   OH264695   3.035   2.532  14.824 -0.2357 -0.4105  0.2429
14427TIP3    H164696   3.083   2.513  14.744  1.6826  0.7518  1.0451
14427TIP3    H264697   2.973   2.601  14.800  1.5675  1.2296  0.0866
14428TIP3   OH264698   2.974   2.275  11.050  0.2466 -0.6078  0.7692
14428TIP3    H164699   3.014   2.216  10.986 -0.1254  1.6413 -1.7071
14428TIP3    H264700   2.881   2.252  11.049  0.3663 -1.1503  1.2170
14429TIP3   OH264701   1.631   4.869   5.714  0.1540 -0.2645  0.0395
14429TIP3    H164702   1.597   4.868   5.624 -2.5695  2.6744  0.8412
14429TIP3    H264703   1.691   4.944   5.717  0.4005 -0.4797  0.6098
14430TIP3   OH264704   3.776   2.219   1.597 -0.3444 -0.3535 -0.9263
14430TIP3    H164705   3.767   2.301   1.548 -1.4776 -0.0959 -0.3239
14430TIP3    H264706   3.687   2.199   1.627  0.1877 -0.9525  0.3117
14431TIP3   OH264707   5.102   1.025  15.532  0.5809 -0.1735  0.2325
14431TIP3    H164708   5.163   1.007  15.460  1.3829  0.6180  0.6955
14431TIP3    H264709   5.152   1.003  15.611  0.2649  0.4947  0.6204
14432TIP3   OH264710   0.710   6.096   4.743 -0.3336 -0.4267 -0.4473
14432TIP3    H164711   0.768   6.171   4.751  0.1650 -0.9109  0.6416
14432TIP3    H264712   0.625   6.127   4.776 -0.4663  0.0075 -1.1728
14433TIP3   OH264713   3.357   2.306  17.207 -0.5384  0.2148  0.0963
14433TIP3    H164714   3.371   2.362  17.131 -0.0314  1.5812  1.1425
14433TIP3    H264715   3.271   2.332  17.240 -0.3494  0.3193  0.5202
14434TIP3   OH264716   6.265   2.083  16.714  0.6336  0.2302  0.3207
14434TIP3    H164717   6.291   2.069  16.805 -0.4793 -0.5131  0.5408
14434TIP3    H264718   6.347   2.075  16.665  1.0195 -0.8832  1.0901
14435TIP3   OH264719   3.708   5.397  13.201  1.0043 -0.1411 -0.8677
14435TIP3    H164720   3.705   5.459  13.274  0.2919 -0.8316 -0.2856
14435TIP3    H264721   3.616   5.383  13.179  1.2112 -0.0797 -1.7916
14436TIP3   OH264722   3.327   4.309   6.448  0.2891  1.1718 -0.6289
14436TIP3    H164723   3.351   4.401   6.438  0.3717  1.1561 -0.5767
14436TIP3    H264724   3.259   4.309   6.516  1.1407  1.0695  0.2361
14437TIP3   OH264725   2.387   5.481  14.191 -0.6591 -0.3128 -0.1779
14437TIP3    H164726   2.382   5.386  14.178 -0.2262 -0.2597 -0.7636
14437TIP3    H264727   2.327   5.498  14.264 -0.2826 -1.1212  0.3478
14438TIP3   OH264728   6.163   0.660   6.664  0.0172 -1.5868  0.0336
14438TIP3    H164729   6.247   0.703   6.673 -0.2069 -1.4511  1.7484
14438TIP3    H264730   6.142   0.667   6.571  1.5980 -1.0848 -0.3027
14439TIP3   OH264731   0.179   2.513   4.671  0.2011  0.6973 -0.1978
14439TIP3    H164732   0.120   2.544   4.602 -0.2428  0.6236  0.1463
14439TIP3    H264733   0.150   2.559   4.750  0.0764  0.0479  0.1448
14440TIP3   OH264734   4.874   6.015  11.585 -0.5829  0.0764  0.6191
14440TIP3    H164735   4.911   5.976  11.664  0.2001 -0.0746  0.1826
14440TIP3    H264736   4.869   6.109  11.604  0.3174  0.1390  0.5682
14441TIP3   OH264737   5.654   6.305  13.914 -0.7910 -0.4064  0.0144
14441TIP3    H164738   5.681   6.218  13.883 -0.2572 -0.5408  0.8425
14441TIP3    H264739   5.561   6.311  13.890 -1.0243 -1.4961  0.6060
14442TIP3   OH264740   1.635   5.383  11.703 -0.0648  0.7132  0.1465
14442TIP3    H164741   1.547   5.354  11.679 -0.9271  1.0942  2.5007
14442TIP3    H264742   1.652   5.458  11.646 -0.1659 -0.8362 -2.0500
14443TIP3   OH264743   3.369   1.417   5.813 -0.3325  0.5920  0.2553
14443TIP3    H164744   3.430   1.358   5.857  2.4547  2.0099 -1.3768
14443TIP3    H264745   3.385   1.403   5.720 -1.8714  1.7018 -0.2187
14444TIP3   OH264746   2.115   4.891   0.435  0.1637  0.1004  0.3277
14444TIP3    H164747   2.186   4.942   0.396 -0.5759  0.2578 -0.8747
14444TIP3    H264748   2.057   4.871   0.361 -1.5301  0.7834  1.4185
14445TIP3   OH264749   5.066   2.847   2.045 -0.5193  0.0292 -0.0923
14445TIP3    H164750   4.975   2.847   2.017 -0.9668  1.8525  1.1656
14445TIP3    H264751   5.068   2.907   2.119  1.4282 -1.1803  0.9137
14446TIP3   OH264752   3.834   0.887   4.790  0.0492  0.2658  0.6557
14446TIP3    H164753   3.803   0.797   4.798 -2.3791  0.9082 -0.4741
14446TIP3    H264754   3.840   0.902   4.696  3.7400  0.3383  0.7659
14447TIP3   OH264755   3.501   1.211   5.185  0.2423 -0.1595  0.3015
14447TIP3    H164756   3.580   1.246   5.225 -0.0293  0.4947  0.2657
14447TIP3    H264757   3.533   1.162   5.109  0.5528  0.8066 -0.2035
14448TIP3   OH264758   1.003   6.517  15.333 -0.2381  0.0453 -0.1160
14448TIP3    H164759   1.033   6.427  15.341 -1.1201 -0.2373  0.0257
14448TIP3    H264760   1.036   6.561  15.412 -0.5955 -0.3718  0.2646
14449TIP3   OH264761   6.144   2.038   1.194  0.1975 -0.0484  0.0330
14449TIP3    H164762   6.073   2.087   1.236  1.8799  1.2046  1.5717
14449TIP3    H264763   6.214   2.036   1.259  2.2093  0.1887 -1.9833
14450TIP3   OH264764   2.521   3.788   4.792 -0.0027 -0.2268  0.8750
14450TIP3    H164765   2.589   3.789   4.725 -1.8521 -1.0742 -1.1187
14450TIP3    H264766   2.468   3.865   4.774 -0.6337 -0.5680  1.2458
14451TIP3   OH264767   0.782   4.276   5.220  0.0532 -0.1686  0.2389
14451TIP3    H164768   0.824   4.269   5.134 -1.6053 -0.1376 -0.6045
14451TIP3    H264769   0.778   4.370   5.237 -0.2433 -0.1440  0.0328
14452TIP3   OH264770   6.571   0.975  16.412  0.0342 -0.1786 -0.4785
14452TIP3    H164771   6.589   0.884  16.435 -0.3110 -0.0677  0.2407
14452TIP3    H264772   6.567   1.021  16.496  0.6204  0.5816 -0.8533
14453TIP3   OH264773   6.715   0.271   2.148  0.9187 -0.4975  0.1184
14453TIP3    H164774   6.643   0.208   2.143 -0.7205  1.1311  1.6351
14453TIP3    H264775   6.700   0.330   2.075  1.1816 -0.5994 -0.0192
14454TIP3   OH264776   0.479   1.146  15.627 -0.2767  0.2190 -0.1168
14454TIP3    H164777   0.388   1.175  15.628 -0.9112 -1.5817 -1.1932
14454TIP3    H264778   0.499   1.132  15.534  1.3736  1.3057  0.0268
14455TIP3   OH264779   2.266   2.587  16.379  0.0710 -0.1441  0.0036
14455TIP3    H164780   2.189   2.565  16.327  0.3776  0.7013 -0.8384
14455TIP3    H264781   2.324   2.512  16.369  0.1691  0.0511 -0.9802
14456TIP3   OH264782   5.878   5.307   5.613  0.1097 -0.1294 -0.1251
14456TIP3    H164783   5.927   5.304   5.531  0.8697  1.3193  0.2395
14456TIP3    H264784   5.945   5.299   5.681 -0.3450  0.2133  0.3688
14457TIP3   OH264785   6.240   3.201   4.220  0.2072  0.7574  0.1717
14457TIP3    H164786   6.180   3.254   4.272 -1.5706  0.0639 -1.0780
14457TIP3    H264787   6.261   3.255   4.144 -0.9252  0.0514 -0.6747
14458TIP3   OH264788   1.280   3.313   4.890 -0.5120 -0.2978 -0.5677
14458TIP3    H164789   1.341   3.240   4.879  1.5829  0.9369  1.8861
14458TIP3    H264790   1.235   3.295   4.973  0.0943  1.1769  0.1194
14459TIP3   OH264791   3.760   3.285  17.135 -0.0046 -0.9577 -0.0317
14459TIP3    H164792   3.683   3.285  17.078  0.2132 -0.0264 -0.3436
14459TIP3    H264793   3.791   3.195  17.134 -0.1961 -1.0221 -1.1207
14460TIP3   OH264794   3.157   1.151   5.214 -0.0990  0.1709  0.1453
14460TIP3    H164795   3.233   1.136   5.157 -0.2062 -2.5258  0.6076
14460TIP3    H264796   3.192   1.141   5.303 -0.6342  0.8807  0.4486
14461TIP3   OH264797   3.615   1.579   5.619  0.1357 -0.1313 -0.3127
14461TIP3    H164798   3.600   1.664   5.578  0.3473 -0.3891 -0.9290
14461TIP3    H264799   3.710   1.573   5.629  0.2115 -0.7338 -1.2443
14462TIP3   OH264800   5.549   0.497  15.747 -0.1085 -0.0410 -0.8265
14462TIP3    H164801   5.464   0.483  15.705 -0.1266  1.7377 -1.4383
14462TIP3    H264802   5.553   0.429  15.814 -1.9519 -0.2690 -0.8862
14463TIP3   OH264803   6.120   6.075   2.812 -0.5606  0.0498  0.5028
14463TIP3    H164804   6.108   6.056   2.718 -3.4168 -0.6107  0.9076
14463TIP3    H264805   6.127   5.990   2.853  0.4623  0.3336  0.9366
14464TIP3   OH264806   0.598   0.894  16.507 -0.4574  0.0452  0.6903
14464TIP3    H164807   0.517   0.890  16.557 -0.2275  0.4070  1.1016
14464TIP3    H264808   0.570   0.922  16.420 -0.9485 -1.3436  0.3843
14465TIP3   OH264809   1.984   0.131  13.547 -0.6236 -0.1560  0.4719
14465TIP3    H164810   2.006   0.103  13.458  1.8705  2.0907  0.2428
14465TIP3    H264811   1.971   0.050  13.595  1.9264 -1.6463 -1.0772
14466TIP3   OH264812   1.514   0.832   1.364  0.8048  0.0184 -0.0687
14466TIP3    H164813   1.451   0.774   1.408  0.6221  1.2065  1.3116
14466TIP3    H264814   1.587   0.774   1.342 -1.0109 -1.5645 -2.4474
14467TIP3   OH264815   3.174   5.770  13.501 -0.0327 -0.3664 -0.0115
14467TIP3    H164816   3.187   5.855  13.459  0.3285 -0.3771  0.0754
14467TIP3    H264817   3.097   5.733  13.458 -1.4156  0.8666  1.3284
14468TIP3   OH264818   0.505   1.697   2.780 -0.0018 -0.2913 -0.3760
14468TIP3    H164819   0.489   1.755   2.706  0.8568  0.1790 -0.2122
14468TIP3    H264820   0.595   1.717   2.807 -0.1396 -0.7873  0.4987
14469TIP3   OH264821   4.986   6.611  11.882  0.0132 -0.1043  0.1171
14469TIP3    H164822   4.919   6.584  11.944  0.9633  0.8577  1.6123
14469TIP3    H264823   4.970   6.556  11.805 -1.5219 -0.9602  0.9926
14470TIP3   OH264824   4.910   5.121   5.264  0.0454  0.1009 -0.0427
14470TIP3    H164825   4.863   5.084   5.190 -0.9840 -1.0440  1.1204
14470TIP3    H264826   5.002   5.105   5.245 -0.2937 -1.7272 -0.3152
14471TIP3   OH264827   5.397   2.576  15.241  0.1614 -0.3644  0.6973
14471TIP3    H164828   5.410   2.614  15.154 -0.0887 -0.6506  0.5302
14471TIP3    H264829   5.420   2.484  15.231 -1.3575 -0.7550  0.5296
14472TIP3   OH264830   3.538   5.735  11.987 -0.0115 -0.6683 -0.9050
14472TIP3    H164831   3.498   5.822  11.991  0.3890 -0.5144 -0.1104
14472TIP3    H264832   3.470   5.675  12.017  0.1521 -0.4721 -0.1239
14473TIP3   OH264833   5.753   5.688   5.285 -0.2666  0.4796 -0.4696
14473TIP3    H164834   5.778   5.768   5.332 -1.8364  2.0098 -2.0628
14473TIP3    H264835   5.821   5.678   5.218 -0.1548  0.5906 -0.3729
14474TIP3   OH264836   0.268   4.730   5.809 -1.2057  0.8895  0.3765
14474TIP3    H164837   0.233   4.731   5.898 -2.4981 -1.3529 -0.0535
14474TIP3    H264838   0.194   4.706   5.753  0.6532 -3.1603 -0.6856
14475TIP3   OH264839   4.996   4.908  12.067  0.1851 -0.8820 -0.1942
14475TIP3    H164840   4.978   4.996  12.036  1.1675 -1.0573 -1.3527
14475TIP3    H264841   5.088   4.893  12.045 -0.1655 -2.4601 -0.7263
14476TIP3   OH264842   3.239   3.864  14.927  0.1672  0.0042 -0.2194
14476TIP3    H164843   3.239   3.772  14.954 -0.1522 -0.2156 -0.9610
14476TIP3    H264844   3.158   3.900  14.964  0.1287 -0.0904 -0.2120
14477TIP3   OH264845   3.270   2.176  12.305 -0.6925 -0.0361  0.1641
14477TIP3    H164846   3.261   2.104  12.242 -0.1221  0.5401 -0.5903
14477TIP3    H264847   3.197   2.235  12.284 -0.3303  0.3028 -0.1666
14478TIP3   OH264848   3.557   1.935   5.842 -0.9579 -0.3715 -0.3212
14478TIP3    H164849   3.530   1.848   5.873  0.7543 -0.9435 -0.3013
14478TIP3    H264850   3.492   1.995   5.879 -2.2952 -1.6456 -0.4979
14479TIP3   OH264851   3.807   6.401   5.964  0.1549 -0.4213  0.6080
14479TIP3    H164852   3.745   6.405   6.036 -0.2731 -0.0520  0.2286
14479TIP3    H264853   3.762   6.444   5.891  0.4025 -1.1862 -0.0115
14480TIP3   OH264854   1.455   2.200   0.137  0.2139  0.3119 -0.1984
14480TIP3    H164855   1.537   2.218   0.091  0.2648  1.0189  0.1656
14480TIP3    H264856   1.470   2.229   0.227 -0.4393  0.4520 -0.1277
14481TIP3   OH264857   6.342   1.925  12.197 -0.0019  0.2229  0.0342
14481TIP3    H164858   6.260   1.878  12.177 -0.8412  0.7580  1.9719
14481TIP3    H264859   6.314   2.015  12.216  0.9755  0.3399  1.0421
14482TIP3   OH264860   1.775   3.292  13.237 -0.7309  0.3741 -0.2028
14482TIP3    H164861   1.725   3.223  13.193  1.3987 -0.8008 -0.9038
14482TIP3    H264862   1.786   3.261  13.327 -2.0775  1.1276  0.2531
14483TIP3   OH264863   3.086   1.248   2.131  0.2848  0.1505  0.5875
14483TIP3    H164864   3.024   1.280   2.065  0.4648  0.3217  0.4978
14483TIP3    H264865   3.166   1.231   2.081  0.2224 -0.3450  0.6518
14484TIP3   OH264866   5.684   6.393   3.348  0.6754  0.1664 -0.3059
14484TIP3    H164867   5.675   6.300   3.367 -1.3501  0.2081 -0.7784
14484TIP3    H264868   5.741   6.396   3.271  2.0557 -0.5380  0.6456
14485TIP3   OH264869   3.826   3.123   5.969 -0.1545 -0.0654 -0.0320
14485TIP3    H164870   3.918   3.100   5.969  0.1746  1.1477  0.3570
14485TIP3    H264871   3.797   3.106   5.880 -0.0478 -2.1834  0.2860
14486TIP3   OH264872   6.726   3.037  16.778 -0.0535  0.3489  0.3815
14486TIP3    H164873   6.732   2.950  16.817 -1.1036  0.2477  0.3661
14486TIP3    H264874   6.815   3.072  16.782 -0.1577  0.4906  3.2084
14487TIP3   OH264875   3.993   2.663  12.632  0.3821 -0.1507  0.1835
14487TIP3    H164876   4.004   2.758  12.626  2.4647 -0.2702  1.1921
14487TIP3    H264877   4.070   2.627  12.587 -0.1937 -1.3589  0.1172
14488TIP3   OH264878   4.162   2.632  17.186  0.5390 -0.2473  0.0199
14488TIP3    H164879   4.190   2.542  17.206 -0.7790 -1.0058 -1.3340
14488TIP3    H264880   4.076   2.639  17.228  0.5524  0.3118 -0.0475
14489TIP3   OH264881   5.759   5.770  12.385 -0.4716 -0.3034 -0.6066
14489TIP3    H164882   5.763   5.687  12.432  1.2745  0.7947  1.3316
14489TIP3    H264883   5.667   5.795  12.389 -1.1184 -2.2889 -1.5999
14490TIP3   OH264884   1.106   2.372  15.118  0.5583 -0.3756 -0.0991
14490TIP3    H164885   1.087   2.375  15.212  0.9607  1.7246 -0.0207
14490TIP3    H264886   1.137   2.283  15.102  0.4737 -0.7788  1.7620
14491TIP3   OH264887   6.171   2.939   5.841  0.3077  0.0832 -0.9897
14491TIP3    H164888   6.137   2.851   5.827 -0.9003  0.5129 -0.9333
14491TIP3    H264889   6.194   2.970   5.753 -3.2653  1.2069 -1.7215
14492TIP3   OH264890   0.905   4.895   1.852 -0.1910  0.2682  0.1407
14492TIP3    H164891   0.940   4.897   1.763 -0.5473  1.3136  0.0031
14492TIP3    H264892   0.911   4.804   1.879 -0.6589 -0.1744 -1.1899
14493TIP3   OH264893   3.390   4.020  11.738 -0.0511  0.5380  0.6966
14493TIP3    H164894   3.485   4.028  11.729 -0.1386  0.7242 -0.2240
14493TIP3    H264895   3.360   3.998  11.649 -0.9977  1.7657  0.6957
14494TIP3   OH264896   5.845   0.460   3.444  0.6610  0.1502  0.2073
14494TIP3    H164897   5.761   0.483   3.485  0.9917  1.1943  0.3036
14494TIP3    H264898   5.826   0.378   3.398 -1.0252  1.4759 -1.6405
14495TIP3   OH264899   1.126   1.021  16.770 -0.4352 -0.0051 -0.1199
14495TIP3    H164900   1.114   0.937  16.726  0.3477 -0.6140  0.8023
14495TIP3    H264901   1.109   1.002  16.862 -1.4621  1.1240 -0.0545
14496TIP3   OH264902   0.279   6.594   4.862 -0.2176  0.0307  0.5506
14496TIP3    H164903   0.355   6.562   4.813  0.5125 -0.8042  2.1580
14496TIP3    H264904   0.234   6.652   4.801  0.8750 -0.6337 -0.9557
14497TIP3   OH264905   6.163   5.927   5.473 -0.5270 -0.2346  0.8310
14497TIP3    H164906   6.138   5.935   5.381 -0.0288  3.4604  0.8784
14497TIP3    H264907   6.258   5.920   5.473 -0.5567 -0.7999  1.1058
14498TIP3   OH264908   6.761   4.078  17.220  0.4319  0.4617 -0.5149
14498TIP3    H164909   6.674   4.042  17.238  0.3602 -0.7485 -2.8867
14498TIP3    H264910   6.757   4.106  17.129  2.7977 -0.5265 -0.9845
14499TIP3   OH264911   5.978   5.659   5.113  0.1799  0.5093  0.0764
14499TIP3    H164912   5.993   5.625   5.024 -0.5915 -0.7989  0.4234
14499TIP3    H264913   6.014   5.748   5.110 -0.1729  0.6461 -1.6650
14500TIP3   OH264914   5.209   3.551   3.730 -0.2817 -0.4893  0.8168
14500TIP3    H164915   5.204   3.523   3.821 -0.6741 -3.2649  0.0372
14500TIP3    H264916   5.149   3.493   3.683  0.8255  0.0188 -1.3907
14501TIP3   OH264917   1.261   6.743  13.384 -0.1304  0.2664  0.0149
14501TIP3    H164918   1.266   6.661  13.434  2.7998  0.4223  0.1707
14501TIP3    H264919   1.218   6.805  13.443  1.6946 -0.0154  1.7624
14502TIP3   OH264920   4.730   1.870   4.903 -0.7397 -0.2094 -1.4344
14502TIP3    H164921   4.718   1.964   4.920 -1.2691 -0.4975 -0.0590
14502TIP3    H264922   4.776   1.838   4.981 -0.7515 -1.1334 -1.8011
14503TIP3   OH264923   6.456   3.896  14.114  0.1575 -0.5560 -0.1099
14503TIP3    H164924   6.400   3.890  14.191  0.4976 -0.3104  0.1610
14503TIP3    H264925   6.400   3.937  14.047 -0.2144 -0.9966 -0.0760
14504TIP3   OH264926   0.775   6.170   5.079  0.2524  0.1101 -0.2352
14504TIP3    H164927   0.796   6.214   5.161  0.1243  0.3344 -0.3234
14504TIP3    H264928   0.850   6.186   5.022 -0.3713  1.3664 -0.7372
14505TIP3   OH264929   3.566   0.708   1.632  0.1826  0.3175  0.2100
14505TIP3    H164930   3.580   0.789   1.680 -0.5130  1.1247 -0.9251
14505TIP3    H264931   3.511   0.655   1.690  1.0458  0.4372  1.1661
14506TIP3   OH264932   2.565   6.037  13.867 -0.0699  0.3427  0.2784
14506TIP3    H164933   2.632   6.095  13.831  0.5237 -2.0037 -2.7792
14506TIP3    H264934   2.611   5.983  13.931  0.5341  0.0693 -0.3766
14507TIP3   OH264935   5.081   1.263   5.449  0.1947 -0.3209 -0.5405
14507TIP3    H164936   5.145   1.333   5.463  0.4528 -0.6292 -0.1688
14507TIP3    H264937   5.113   1.190   5.502  0.7069 -1.2232 -2.0257
14508TIP3   OH264938   3.399   1.628   2.708 -0.4904  0.3622  0.4164
14508TIP3    H164939   3.475   1.679   2.737  0.7387 -1.1404 -0.0560
14508TIP3    H264940   3.353   1.606   2.788  1.6213 -1.8195  1.1428
14509TIP3   OH264941   3.514   0.242   2.690  0.2362  0.4195  0.3370
14509TIP3    H164942   3.568   0.163   2.700  0.3260  0.5516  0.9179
14509TIP3    H264943   3.479   0.236   2.601  2.3873  1.0505 -0.6342
14510TIP3   OH264944   2.773   0.200   3.015 -0.3427 -0.2016  0.1819
14510TIP3    H164945   2.770   0.140   3.090  0.0263 -1.0504 -0.4605
14510TIP3    H264946   2.771   0.287   3.054 -0.2701 -0.6268  1.1781
14511TIP3   OH264947   4.107   4.646   5.506  0.0572 -0.1317  0.9506
14511TIP3    H164948   4.090   4.712   5.573 -2.5043  0.5846 -0.2713
14511TIP3    H264949   4.104   4.563   5.553  1.1978  0.4663  2.1532
14512TIP3   OH264950   5.713   1.984  12.977 -0.2142  0.1422  0.3843
14512TIP3    H164951   5.674   2.070  12.994  1.8818  1.3974 -0.6938
14512TIP3    H264952   5.724   1.982  12.882  2.5086  0.0279  0.6160
14513TIP3   OH264953   4.299   3.850   1.536  0.3008  0.1246 -0.7972
14513TIP3    H164954   4.331   3.763   1.513  0.6024  0.4198 -1.5465
14513TIP3    H264955   4.326   3.863   1.627 -0.7606 -1.0150 -0.2848
14514TIP3   OH264956   4.136   4.212   6.118 -0.0064  0.6467 -0.0650
14514TIP3    H164957   4.224   4.190   6.089  0.3666  0.5734  1.0679
14514TIP3    H264958   4.079   4.188   6.045  0.7344 -0.8622 -0.1766
14515TIP3   OH264959   0.728   2.008   1.608  0.3449  0.0862  0.0593
14515TIP3    H164960   0.790   1.951   1.654  0.5946  0.0481 -0.3218
14515TIP3    H264961   0.766   2.096   1.617 -0.9291  0.4909  2.1810
14516TIP3   OH264962   6.562   3.362   1.922 -0.0411 -0.0279  0.0622
14516TIP3    H164963   6.654   3.342   1.939 -0.2995 -1.1650  0.2127
14516TIP3    H264964   6.538   3.306   1.848 -1.2214 -1.5218  1.5084
14517TIP3   OH264965   1.635   4.732  16.570  0.3122 -0.3822  0.2221
14517TIP3    H164966   1.583   4.665  16.615 -1.0387  1.8494  2.2346
14517TIP3    H264967   1.571   4.797  16.541  1.6531  0.6015 -0.6635
14518TIP3   OH264968   2.662   5.816  17.018 -0.1667 -0.0437  0.0002
14518TIP3    H164969   2.664   5.732  16.973 -0.8399  0.6613 -1.3912
14518TIP3    H264970   2.604   5.801  17.093 -1.4356 -0.4780 -1.0252
14519TIP3   OH264971   6.189   2.123  15.193 -0.7410 -0.0566 -0.0357
14519TIP3    H164972   6.140   2.050  15.229  1.6798 -1.0626  1.4559
14519TIP3    H264973   6.171   2.196  15.252 -1.5104 -0.0280 -0.3031
14520TIP3   OH264974   6.730   2.333   4.397  0.5180 -0.3048 -0.7224
14520TIP3    H164975   6.821   2.361   4.401  0.0844  1.1044 -0.2138
14520TIP3    H264976   6.712   2.301   4.486  0.2886  0.1886 -0.5886
14521TIP3   OH264977   4.118   2.860   1.276  0.1096  0.5940 -0.0188
14521TIP3    H164978   4.123   2.923   1.204 -0.1927  0.6105 -0.0274
14521TIP3    H264979   4.170   2.898   1.346 -0.0962  0.8653 -0.0145
14522TIP3   OH264980   2.578   2.877   4.933 -0.7198  0.4922  0.0777
14522TIP3    H164981   2.489   2.850   4.956 -1.2601  1.9271 -0.2264
14522TIP3    H264982   2.583   2.864   4.839 -0.9459  1.3141 -0.0531
14523TIP3   OH264983   1.996   4.194   1.327  0.2243 -0.3751 -0.1219
14523TIP3    H164984   2.076   4.141   1.331 -1.1834 -2.6444 -0.3074
14523TIP3    H264985   1.955   4.182   1.412 -0.3595  0.0641 -0.3342
14524TIP3   OH264986   0.941   1.712   5.489  0.0561 -0.1155 -0.0514
14524TIP3    H164987   0.882   1.638   5.506 -0.3292 -0.1256 -1.3128
14524TIP3    H264988   1.028   1.673   5.487 -0.0773 -0.4240 -0.0222
14525TIP3   OH264989   6.095   6.051  13.332  0.4249 -0.0985  1.0827
14525TIP3    H164990   5.999   6.052  13.342  0.0826 -1.7371 -1.3845
14525TIP3    H264991   6.110   6.074  13.241  2.5911  2.3108  1.9049
14526TIP3   OH264992   1.104   5.906  16.853  0.1729 -0.0749 -0.2409
14526TIP3    H164993   1.079   5.839  16.916 -0.9921 -0.2330 -0.8345
14526TIP3    H264994   1.054   5.983  16.878 -0.8504 -0.3485 -1.3633
14527TIP3   OH264995   3.855   5.881   5.289  0.1474  0.1878  0.0360
14527TIP3    H164996   3.802   5.956   5.318 -0.5225 -0.2218 -0.1105
14527TIP3    H264997   3.791   5.819   5.254  0.8518  0.3720 -1.6997
14528TIP3   OH264998   5.933   0.256   4.310  0.0587 -0.0527  0.1136
14528TIP3    H164999   5.975   0.216   4.234  0.7102  1.6362 -0.4512
14528TIP3    H265000   5.839   0.253   4.290  0.1623 -0.4336 -0.3293
14529TIP3   OH265001   1.238   2.304  12.531  0.0784 -0.2739 -0.0363
14529TIP3    H165002   1.285   2.304  12.448  0.3367  0.1572  0.1049
14529TIP3    H265003   1.168   2.240  12.519  0.4014 -0.5627 -0.4197
14530TIP3   OH265004   3.303   5.009  15.537  0.5267 -0.3793 -0.5604
14530TIP3    H165005   3.253   5.072  15.486 -0.1898 -0.7607 -0.3385
14530TIP3    H265006   3.313   5.050  15.623 -2.3576 -1.6824  0.5042
14531TIP3   OH265007   4.532   4.518  12.997  0.0688  0.5568 -0.2687
14531TIP3    H165008   4.448   4.544  12.959  0.0251  1.1507  0.2116
14531TIP3    H265009   4.550   4.585  13.064  0.3027 -0.2727  0.5241
14532TIP3   OH265010   6.147   0.035   1.281 -0.5310  0.3869 -0.1686
14532TIP3    H165011   6.116  -0.043   1.327 -1.0187  0.4155 -0.4378
14532TIP3    H265012   6.185   0.002   1.200  0.9631  0.2765  0.5483
14533TIP3   OH265013   2.354   2.898  11.915  0.1802 -0.1080 -0.2897
14533TIP3    H165014   2.354   2.969  11.979  0.4654 -0.4950  0.1456
14533TIP3    H265015   2.282   2.841  11.942  1.1059 -0.9467  0.4557
14534TIP3   OH265016   2.978   3.665  13.590  0.1954  0.1252  0.0054
14534TIP3    H165017   2.934   3.608  13.528 -0.2471 -1.3882  1.6170
14534TIP3    H265018   3.007   3.606  13.660 -1.3339  1.9914  2.3517
14535TIP3   OH265019   0.869   3.717  16.197 -0.7392  0.0559  0.1333
14535TIP3    H165020   0.849   3.643  16.253 -2.1632 -0.9233 -1.5669
14535TIP3    H265021   0.886   3.679  16.111  0.3711  1.5687 -0.3692
14536TIP3   OH265022   5.481   4.394  10.553  0.1235 -0.5583 -0.2060
14536TIP3    H165023   5.478   4.472  10.608 -2.6418 -0.8275  0.1713
14536TIP3    H265024   5.428   4.415  10.477 -2.4025 -2.6225  0.8312
14537TIP3   OH265025   2.081   5.964  16.790 -0.7375 -0.0179  0.0071
14537TIP3    H165026   2.082   5.928  16.879  0.2213  0.5687  0.2372
14537TIP3    H265027   1.987   5.971  16.769 -0.9722 -0.2999  0.9059
14538TIP3   OH265028   4.031   4.473  13.627 -0.4147  0.1331  0.8619
14538TIP3    H165029   3.973   4.524  13.684  0.9025  1.9281  0.6805
14538TIP3    H265030   4.023   4.516  13.541 -0.9845 -1.4111  0.0959
14539TIP3   OH265031   0.941   2.968   1.899 -0.0320 -0.2627  0.6622
14539TIP3    H165032   0.890   2.980   1.818  0.7013  0.3466  0.2754
14539TIP3    H265033   1.015   2.914   1.872  1.5367  1.9052  0.3156
14540TIP3   OH265034   0.851   5.696  14.148  0.0070 -0.4687 -0.3967
14540TIP3    H165035   0.821   5.716  14.237 -1.1546  0.0280 -0.8803
14540TIP3    H265036   0.852   5.600  14.144  0.3164 -0.4996  0.2194
14541TIP3   OH265037   3.024   2.465   3.038  1.1802 -0.4319  0.0180
14541TIP3    H165038   2.981   2.389   3.076 -0.5375  1.1526  1.4659
14541TIP3    H265039   3.060   2.512   3.113  0.2161  1.3217 -0.5574
14542TIP3   OH265040   5.993   1.428   5.341  0.0956  0.8254 -0.0523
14542TIP3    H165041   6.020   1.341   5.369 -1.5956 -0.5034 -2.2029
14542TIP3    H265042   5.919   1.412   5.282  1.7587  3.4440 -3.1824
14543TIP3   OH265043   2.966   4.346  12.579  0.0150  0.0008  0.3309
14543TIP3    H165044   2.877   4.376  12.560  0.3691  1.8816  1.3973
14543TIP3    H265045   2.957   4.294  12.659 -0.1203  0.2270  0.4643
14544TIP3   OH265046   2.226   1.726  14.375  0.2897  0.4744 -0.7091
14544TIP3    H165047   2.214   1.784  14.451 -1.8050  0.9215 -1.3081
14544TIP3    H265048   2.227   1.785  14.300 -1.0064 -0.1734 -1.2643
14545TIP3   OH265049   6.700   3.219   5.207 -0.2428  0.5783  0.2838
14545TIP3    H165050   6.672   3.192   5.119  1.5799 -0.3820 -0.0420
14545TIP3    H265051   6.766   3.286   5.192  0.8210 -0.3105  0.8598
14546TIP3   OH265052   2.432   1.966   1.693 -0.0109 -0.6654  0.4625
14546TIP3    H165053   2.478   2.039   1.651  0.6594 -0.7352  1.0565
14546TIP3    H265054   2.374   1.932   1.624  0.7314 -0.4905 -0.2661
14547TIP3   OH265055   1.349   3.917   0.552 -0.5071  0.2024  0.0788
14547TIP3    H165056   1.376   3.994   0.601 -0.6253  0.0924  0.3195
14547TIP3    H265057   1.431   3.875   0.526 -0.4066 -0.7347  1.7532
14548TIP3   OH265058   4.804   2.839  15.050 -0.3510 -0.1498 -0.5295
14548TIP3    H165059   4.862   2.883  14.988 -0.3844 -3.1592 -2.9264
14548TIP3    H265060   4.716   2.868  15.026 -0.2110  0.4214 -0.3593
14549TIP3   OH265061   6.330   4.877   3.397  0.0751 -0.0649  0.9983
14549TIP3    H165062   6.381   4.937   3.342 -1.1445 -0.5411 -0.7343
14549TIP3    H265063   6.279   4.825   3.335 -0.4157 -1.5250  2.5526
14550TIP3   OH265064   4.263   2.137  12.175 -0.2279  0.8485 -0.2474
14550TIP3    H165065   4.267   2.065  12.112 -3.4158  1.6923 -1.6053
14550TIP3    H265066   4.313   2.106  12.250 -1.4750 -2.8348 -0.7288
14551TIP3   OH265067   3.096   2.068   1.781  0.1002 -0.3743 -0.2463
14551TIP3    H165068   3.066   2.122   1.855  0.4871  0.0372 -0.3855
14551TIP3    H265069   3.090   2.126   1.705 -0.0471 -0.7156 -0.4987
14552TIP3   OH265070   6.598   5.670  16.322 -0.0201 -0.2873 -0.1735
14552TIP3    H165071   6.558   5.755  16.343 -0.4831  0.2955 -2.9181
14552TIP3    H265072   6.534   5.606  16.351 -0.7751  0.4404 -0.1785
14553TIP3   OH265073   1.627   0.002   2.632 -0.1902  0.7130  0.3828
14553TIP3    H165074   1.593   0.036   2.549 -1.3931  3.4512  1.8575
14553TIP3    H265075   1.558  -0.058   2.663 -0.5256  0.9795  0.1601
14554TIP3   OH265076   0.555   0.934  11.078 -0.4823  0.3795  0.0571
14554TIP3    H165077   0.564   0.952  11.172 -1.0102  1.4762 -0.0845
14554TIP3    H265078   0.501   0.855  11.074 -0.3234  0.2335  0.6799
14555TIP3   OH265079   1.423   6.565  14.211  0.4172 -0.5661  0.2069
14555TIP3    H165080   1.435   6.660  14.210 -0.2785 -0.4778 -0.0298
14555TIP3    H265081   1.449   6.538  14.299  2.0201 -0.3529 -0.1688
14556TIP3   OH265082   4.361   5.201   3.105  0.2703  0.2194  0.2837
14556TIP3    H165083   4.374   5.278   3.161 -0.6519  0.9031 -0.4111
14556TIP3    H265084   4.408   5.223   3.024 -0.6036  0.3850 -0.1910
14557TIP3   OH265085   6.508   1.204   3.273  0.5357 -0.1818 -0.5622
14557TIP3    H165086   6.573   1.146   3.234 -0.6231 -0.5218 -2.0695
14557TIP3    H265087   6.425   1.179   3.232 -0.5355  0.3813  1.1494
14558TIP3   OH265088   2.281   2.439  14.651 -0.3159 -0.0326  0.4454
14558TIP3    H165089   2.357   2.496  14.649 -0.5137  0.2320 -1.2525
14558TIP3    H265090   2.276   2.408  14.742  0.7588  1.3257  1.0050
14559TIP3   OH265091   1.542   6.218   4.052 -0.0838  0.0095  0.7703
14559TIP3    H165092   1.606   6.159   4.092 -1.1134 -0.8237  1.2670
14559TIP3    H265093   1.542   6.194   3.960 -1.0285 -1.3572  1.0855
14560TIP3   OH265094   2.735   5.878   4.437  0.0711  0.3598 -0.0498
14560TIP3    H165095   2.787   5.872   4.357  2.0007  2.0893  0.9745
14560TIP3    H265096   2.717   5.972   4.447 -0.3800  0.1384  1.3861
14561TIP3   OH265097   2.516   2.489   2.822  0.2269 -0.0213 -0.2515
14561TIP3    H165098   2.611   2.474   2.830  0.5466  1.3922 -1.0188
14561TIP3    H265099   2.508   2.552   2.751 -1.2493  0.4205  0.2696
14562TIP3   OH265100   2.637   2.121   1.254  0.1340 -0.0726 -0.1822
14562TIP3    H165101   2.702   2.096   1.188  0.1327 -0.2560 -0.1130
14562TIP3    H265102   2.560   2.069   1.233  0.1977 -0.2777  0.0833
14563TIP3   OH265103   6.634   4.236   4.274 -0.2696  0.2401  0.1196
14563TIP3    H165104   6.571   4.307   4.261  0.9565  1.1835 -1.1141
14563TIP3    H265105   6.615   4.173   4.205 -0.5968 -0.0341  0.4624
14564TIP3   OH265106   2.325   6.030  15.838 -0.1062  0.2281 -0.5274
14564TIP3    H165107   2.280   6.022  15.754 -1.6847 -0.1177  0.3201
14564TIP3    H265108   2.289   6.110  15.877 -0.1853 -0.1900  0.2736
14565TIP3   OH265109   0.198   1.616  13.060 -1.0081  0.1105 -0.1712
14565TIP3    H165110   0.189   1.610  13.155 -1.8263  0.6796 -0.2010
14565TIP3    H265111   0.108   1.608  13.027 -1.0373  2.1636 -0.7456
14566TIP3   OH265112   3.133   2.921  17.307 -0.7137 -0.3681 -0.7525
14566TIP3    H165113   3.169   3.006  17.336 -0.4984 -0.8807  0.5473
14566TIP3    H265114   3.042   2.940  17.285 -0.4650  0.3481 -1.2192
14567TIP3   OH265115   4.655   0.514  14.929  0.5277 -0.1133 -0.3077
14567TIP3    H165116   4.611   0.429  14.927  0.0129  0.0371  1.9045
14567TIP3    H265117   4.712   0.510  15.006 -1.4536  2.4008  1.4798
14568TIP3   OH265118   1.620   4.223   4.032 -0.5532  0.3581  0.2831
14568TIP3    H165119   1.568   4.207   3.953 -0.7261  0.5961  0.3441
14568TIP3    H265120   1.578   4.171   4.100 -0.0724 -0.2794  0.0976
14569TIP3   OH265121   1.937   2.354   1.322 -0.2175  0.3747 -0.2136
14569TIP3    H165122   1.954   2.431   1.267  1.1946 -0.2901 -0.7608
14569TIP3    H265123   2.024   2.325   1.350 -0.6940 -1.2458 -0.3302
14570TIP3   OH265124   1.331   3.278  11.544  0.4711 -0.0208  0.3706
14570TIP3    H165125   1.323   3.205  11.483  1.8821 -0.0930  0.2283
14570TIP3    H265126   1.305   3.355  11.493 -0.7811 -0.3874  0.4467
14571TIP3   OH265127   4.168   6.693  15.235 -0.4917 -0.1462  0.3328
14571TIP3    H165128   4.205   6.605  15.244 -0.6017 -0.1537  0.7027
14571TIP3    H265129   4.088   6.691  15.288 -0.5279  0.1593  0.2902
14572TIP3   OH265130   4.731   1.469   4.720 -0.1476  0.1233  0.2869
14572TIP3    H165131   4.636   1.466   4.709  0.0469 -0.7259 -1.5342
14572TIP3    H265132   4.748   1.416   4.797 -1.1318 -0.0274  0.4141
14573TIP3   OH265133   3.702   5.125   2.702 -0.0456  0.4242  0.2637
14573TIP3    H165134   3.623   5.076   2.680 -0.1904  0.6510  0.2777
14573TIP3    H265135   3.774   5.072   2.668 -0.2470  0.5728 -0.4040
14574TIP3   OH265136   3.830   6.024  13.788 -0.0555  0.7770  0.1834
14574TIP3    H165137   3.811   6.027  13.694  0.6525 -0.5497 -0.0330
14574TIP3    H265138   3.744   6.023  13.831 -0.4251 -0.4069 -0.5428
14575TIP3   OH265139   1.245   5.009   1.528  0.1494  0.8897  0.2649
14575TIP3    H165140   1.252   5.097   1.565  0.8486  0.3740  1.4207
14575TIP3    H265141   1.232   5.023   1.435 -0.5326  2.2269  0.5435
14576TIP3   OH265142   5.807   1.649   1.968  0.1587 -0.1998  0.4099
14576TIP3    H165143   5.830   1.591   1.896 -0.0662 -0.1469  0.2965
14576TIP3    H265144   5.775   1.590   2.037 -0.1805 -0.2007  0.2522
14577TIP3   OH265145   4.534   1.301   0.695 -0.4711  0.2721  0.0951
14577TIP3    H165146   4.529   1.386   0.738 -1.0909 -0.2217  1.0185
14577TIP3    H265147   4.507   1.238   0.761  1.2957 -0.8094 -0.1486
14578TIP3   OH265148   1.897   3.817  11.871 -0.0005 -0.1192  0.4303
14578TIP3    H165149   1.975   3.762  11.862 -0.5719 -1.2646  1.9449
14578TIP3    H265150   1.912   3.890  11.811  0.5883 -2.1562 -2.0806
14579TIP3   OH265151   2.325   2.899   5.238  0.4827 -0.0802  0.0240
14579TIP3    H165152   2.290   2.944   5.161 -2.1698 -0.9759  0.5875
14579TIP3    H265153   2.364   2.968   5.291  1.1320  0.7438 -1.4916
14580TIP3   OH265154   1.084   4.603   5.242  0.2562  0.0572 -0.5718
14580TIP3    H165155   1.017   4.630   5.180  0.0874 -3.0527 -1.9539
14580TIP3    H265156   1.044   4.614   5.328 -1.2364  0.2264 -1.2572
14581TIP3   OH265157   5.983   3.723   1.371 -0.2710 -0.2782 -0.7911
14581TIP3    H165158   5.912   3.727   1.435 -0.5355  0.2007 -1.1065
14581TIP3    H265159   5.983   3.809   1.329  1.8676  0.5368  0.6717
14582TIP3   OH265160   6.039   2.222   1.703  0.1990  0.3364 -0.2943
14582TIP3    H165161   6.135   2.229   1.703  0.1368  1.5474  0.2905
14582TIP3    H265162   6.010   2.302   1.747 -1.0879 -0.0065 -0.4917
14583TIP3   OH265163   1.408   4.130  17.256  0.5695  0.0065  0.0440
14583TIP3    H165164   1.329   4.076  17.262  0.1594  0.4341 -1.2915
14583TIP3    H265165   1.431   4.128  17.163  1.4055  0.9250  0.2204
14584TIP3   OH265166   3.645   0.560   2.106  0.3891  0.4939 -0.1820
14584TIP3    H165167   3.674   0.481   2.061  0.0034  0.2995 -0.0924
14584TIP3    H265168   3.679   0.632   2.053  1.5360  0.2799  0.2358
14585TIP3   OH265169   6.062   5.559  13.541  0.1551  0.2510  0.1529
14585TIP3    H165170   6.067   5.497  13.468  1.7139  0.4151  0.0911
14585TIP3    H265171   6.104   5.515  13.614 -2.9375 -0.6202  1.5744
14586TIP3   OH265172   4.223   0.346   1.168  0.1557 -0.0883  0.3071
14586TIP3    H165173   4.184   0.397   1.096 -0.6354 -2.3782 -0.9678
14586TIP3    H265174   4.233   0.410   1.238  0.9747  2.2819 -1.7846
14587TIP3   OH265175   5.370   4.734   0.206 -0.1821 -0.3183 -0.5650
14587TIP3    H165176   5.426   4.698   0.137 -0.1896 -1.0919 -0.1780
14587TIP3    H265177   5.414   4.710   0.288 -1.3583 -1.4626 -0.2317
14588TIP3   OH265178   4.975   0.307  10.901  0.2292  0.4838 -0.0357
14588TIP3    H165179   4.922   0.385  10.886  0.3235  0.4954 -0.3061
14588TIP3    H265180   4.938   0.269  10.981 -0.0880  0.5777 -0.1328
14589TIP3   OH265181   2.593   3.590  13.942  0.1593  0.4773 -0.0463
14589TIP3    H165182   2.528   3.660  13.951 -2.1484 -1.7890  3.2102
14589TIP3    H265183   2.675   3.630  13.972 -0.6277  2.2817 -0.1457
14590TIP3   OH265184   6.327   1.294  13.924  0.0775  0.6412 -0.2999
14590TIP3    H165185   6.391   1.335  13.983  0.2810 -0.5459  0.3353
14590TIP3    H265186   6.378   1.262  13.850  0.1961 -0.0822  0.0865
14591TIP3   OH265187   0.132   5.105   3.669 -0.0746  0.5152 -0.1536
14591TIP3    H165188   0.075   5.044   3.715 -0.4890  0.0691 -1.2228
14591TIP3    H265189   0.078   5.139   3.598  0.1887  2.0391  0.3243
14592TIP3   OH265190   4.635   5.933  12.385 -0.0983  0.1671 -0.4103
14592TIP3    H165191   4.685   5.871  12.332 -2.3843 -1.0756 -1.2980
14592TIP3    H265192   4.646   6.017  12.340  0.7378 -0.1774 -0.8745
14593TIP3   OH265193   4.314   6.289  10.187 -0.1020  0.2171  0.6308
14593TIP3    H165194   4.406   6.288  10.213 -0.2968 -1.1877  1.3434
14593TIP3    H265195   4.266   6.263  10.266 -0.7738 -3.2103 -0.7123
14594TIP3   OH265196   3.452   1.119  11.779 -0.2796 -0.2317  0.6123
14594TIP3    H165197   3.396   1.123  11.856 -1.9261 -1.8641 -0.3984
14594TIP3    H265198   3.396   1.151  11.708  1.6888  2.7088  0.2553
14595TIP3   OH265199   1.455   3.792   2.679  0.0569 -0.0186 -0.3391
14595TIP3    H165200   1.515   3.848   2.729 -0.8195 -0.0918  0.8401
14595TIP3    H265201   1.496   3.706   2.681  1.3092  0.4837 -1.9840
14596TIP3   OH265202   1.486   2.463  11.633  0.3702 -0.3615 -0.3087
14596TIP3    H165203   1.477   2.395  11.566  0.8225  0.0327 -0.7875
14596TIP3    H265204   1.547   2.426  11.697 -2.3274 -1.9496  1.5184
14597TIP3   OH265205   0.830   2.089   3.377  0.1732 -0.0729 -0.1324
14597TIP3    H165206   0.872   2.089   3.463 -1.3664 -0.1723  0.6538
14597TIP3    H265207   0.838   2.179   3.347 -0.3734  0.2575  0.6869
14598TIP3   OH265208   0.287   1.604   6.042  0.5324  0.0333  0.2852
14598TIP3    H165209   0.264   1.680   5.989 -2.7857 -0.5028  0.7292
14598TIP3    H265210   0.232   1.612   6.120  0.4853 -2.5019  0.6059
14599TIP3   OH265211   5.946   5.633  11.136  0.0032 -0.8303 -0.5574
14599TIP3    H165212   5.926   5.539  11.136 -0.3750 -0.7836  1.4782
14599TIP3    H265213   5.866   5.674  11.169 -0.1146  0.3065 -2.1460
14600TIP3   OH265214   3.105   3.055   4.137  0.2632  0.1033  0.4730
14600TIP3    H165215   3.024   3.081   4.179 -0.2550  1.2317 -1.1111
14600TIP3    H265216   3.083   2.975   4.089  0.4283 -0.2835  1.0350
14601TIP3   OH265217   0.096   3.527  12.985  0.6652 -0.3707 -0.2781
14601TIP3    H165218   0.034   3.472  13.032  0.1154 -0.5219 -1.1515
14601TIP3    H265219   0.051   3.611  12.973  0.8032 -0.3286 -0.5223
14602TIP3   OH265220   1.845   1.157  16.932  0.5821  0.7038 -0.6810
14602TIP3    H165221   1.906   1.100  16.885  1.0704  0.3929  0.3027
14602TIP3    H265222   1.787   1.191  16.864  1.7252  0.8528 -1.6194
14603TIP3   OH265223   1.473   1.305  14.277 -0.2264  0.0549  0.4188
14603TIP3    H165224   1.481   1.400  14.275 -0.0210  0.0345  0.1932
14603TIP3    H265225   1.499   1.276  14.190 -0.8847 -0.1698  0.2921
14604TIP3   OH265226   1.840   0.565   2.763  0.1436  0.1059 -0.4111
14604TIP3    H165227   1.808   0.538   2.849  1.8887  0.6896  0.4552
14604TIP3    H265228   1.899   0.495   2.736 -2.8337 -1.8203 -2.7630
14605TIP3   OH265229   4.374   1.896  16.425  0.0697 -0.1070  0.3482
14605TIP3    H165230   4.300   1.848  16.390  0.8065 -1.0591  0.0419
14605TIP3    H265231   4.411   1.837  16.491  1.1607 -0.1110 -0.2417
14606TIP3   OH265232   3.233   1.873  15.389  0.3479 -0.4054  0.4195
14606TIP3    H165233   3.325   1.867  15.414  0.0282 -0.3395  1.6763
14606TIP3    H265234   3.234   1.909  15.300  1.5393 -0.6500  0.3258
14607TIP3   OH265235   5.985   5.455   2.856 -0.1309 -0.1943 -0.1826
14607TIP3    H165236   6.006   5.490   2.942  1.5911  0.0488 -0.6677
14607TIP3    H265237   5.895   5.423   2.865  0.2006 -0.7330  1.8817
14608TIP3   OH265238   5.168   6.529  15.412  0.4299  0.3539  0.2228
14608TIP3    H165239   5.214   6.570  15.339  1.3059  1.4458  1.3494
14608TIP3    H265240   5.188   6.584  15.488 -0.7015 -0.5693  1.2422
14609TIP3   OH265241   4.735   3.968  15.760  0.1900  0.4799  0.2953
14609TIP3    H165242   4.682   4.037  15.719 -0.7475  0.5628  1.5759
14609TIP3    H265243   4.796   4.015  15.817  1.9011  0.3979 -1.3693
14610TIP3   OH265244   0.019   5.599   5.390  0.4846  0.3000 -0.0271
14610TIP3    H165245   0.097   5.570   5.437 -0.2322  0.8086  1.5266
14610TIP3    H265246   0.018   5.546   5.311  2.4377  0.3278 -0.1263
14611TIP3   OH265247   4.498   5.182  10.914  0.8178 -0.1393 -0.0848
14611TIP3    H165248   4.418   5.214  10.955  2.1642 -0.0396  2.7467
14611TIP3    H265249   4.547   5.262  10.893  0.6460 -0.2246 -0.8526
14612TIP3   OH265250   3.944   1.599  14.968 -0.1501 -0.0742  0.0282
14612TIP3    H165251   4.008   1.668  14.987 -0.7969  0.7545 -0.7006
14612TIP3    H265252   3.863   1.630  15.008 -0.2603 -0.8209  0.4076
14613TIP3   OH265253   0.753   2.267   1.187 -0.6661  0.8733  0.2158
14613TIP3    H165254   0.748   2.336   1.253 -2.0161  1.9140 -0.9299
14613TIP3    H265255   0.708   2.303   1.110  0.2432 -0.5624 -1.0539
14614TIP3   OH265256   4.094   4.773   6.541 -0.0327 -0.0021 -0.2021
14614TIP3    H165257   4.117   4.685   6.571 -0.2383  0.1715  0.4879
14614TIP3    H265258   4.006   4.787   6.575  0.0212  0.4915 -0.2655
14615TIP3   OH265259   4.193   1.650   4.748  0.1240 -0.2811 -0.2000
14615TIP3    H165260   4.232   1.562   4.747  1.0712  0.1279 -1.4064
14615TIP3    H265261   4.266   1.707   4.772  0.0379  0.3914 -1.4656
14616TIP3   OH265262   1.370   0.756   0.404 -0.9131  0.1592  0.1597
14616TIP3    H165263   1.410   0.719   0.325 -1.6467  0.2444 -0.2604
14616TIP3    H265264   1.356   0.680   0.461  1.7989  0.3543  1.2474
14617TIP3   OH265265   5.385   3.650   6.353 -0.0437  0.0849 -0.2312
14617TIP3    H165266   5.371   3.745   6.350  0.3110  0.2092  1.2634
14617TIP3    H265267   5.307   3.616   6.398 -0.8279 -0.5139 -1.9703
14618TIP3   OH265268   2.870   4.095   0.109  0.1612  0.3158 -0.7548
14618TIP3    H165269   2.920   4.104   0.190 -1.6895 -0.4029  0.5246
14618TIP3    H265270   2.906   4.015   0.068 -0.8112 -1.0109  0.8561
14619TIP3   OH265271   4.483   4.563   5.190  1.0029 -0.2182  0.6286
14619TIP3    H165272   4.452   4.592   5.276  0.6765 -0.9654  0.7738
14619TIP3    H265273   4.429   4.486   5.170 -0.0725  0.9037 -0.9996
14620TIP3   OH265274   2.309   0.254   5.956 -0.1478 -0.1091 -0.2784
14620TIP3    H165275   2.377   0.295   5.902 -0.8814  1.2088 -0.2448
14620TIP3    H265276   2.249   0.325   5.978 -0.4630 -0.8318  1.3892
14621TIP3   OH265277   3.861   3.915  12.116  0.3104 -0.2391 -0.4930
14621TIP3    H165278   3.944   3.893  12.073  0.6161  0.5305 -0.3058
14621TIP3    H265279   3.828   3.831  12.148  1.3198 -0.4681 -0.0225
14622TIP3   OH265280   4.027   1.081  11.250 -0.3592  0.2665  0.1767
14622TIP3    H165281   3.947   1.028  11.247 -0.0407 -0.1736 -2.4854
14622TIP3    H265282   4.011   1.144  11.320 -2.6007 -0.4547  0.3896
14623TIP3   OH265283   0.574   0.406   5.581  0.3487  0.7057  0.6495
14623TIP3    H165284   0.597   0.498   5.571  0.3719  0.6801  0.4686
14623TIP3    H265285   0.559   0.395   5.675 -1.6571  1.3518  0.4506
14624TIP3   OH265286   1.466   2.122  11.118  0.0269 -0.3282 -0.2168
14624TIP3    H165287   1.414   2.127  11.037  0.4979  1.8498 -0.4478
14624TIP3    H265288   1.557   2.127  11.088  0.3241 -1.9927  0.3259
14625TIP3   OH265289   2.150   1.550   2.626  0.2986 -0.4690 -0.4321
14625TIP3    H165290   2.097   1.534   2.548 -1.1264  0.2569  0.3620
14625TIP3    H265291   2.223   1.488   2.618 -0.3138 -1.0590 -1.8589
14626TIP3   OH265292   0.707   6.349   0.621 -0.2366 -0.3138  0.4453
14626TIP3    H165293   0.769   6.421   0.633 -1.6731  1.2122 -0.7676
14626TIP3    H265294   0.755   6.271   0.650  1.4806  1.0616  1.5303
14627TIP3   OH265295   6.493   4.432  16.074 -0.1536  0.5371 -0.2958
14627TIP3    H165296   6.549   4.416  15.998  0.9647 -2.5533  0.9839
14627TIP3    H265297   6.404   4.414  16.043  0.2170 -0.0237 -1.0774
14628TIP3   OH265298   0.550   2.045  10.579  0.1213 -0.0837  0.1566
14628TIP3    H165299   0.601   2.030  10.658  0.1363 -0.0006  0.1630
14628TIP3    H265300   0.496   2.122  10.599 -0.6066 -0.6576  0.4496
14629TIP3   OH265301   5.138   1.133  13.844 -0.1485 -0.3770 -0.3477
14629TIP3    H165302   5.043   1.124  13.842 -0.0994 -0.8881 -0.4194
14629TIP3    H265303   5.153   1.209  13.900 -0.5783 -0.6393  0.1317
14630TIP3   OH265304   3.894   2.576   5.922 -0.4696  0.0585 -0.1941
14630TIP3    H165305   3.938   2.593   5.838 -1.0814  2.1433 -0.1584
14630TIP3    H265306   3.801   2.571   5.899 -0.8233  2.2942  0.4892
14631TIP3   OH265307   1.727   0.200   1.312  0.2137  0.4603 -0.1035
14631TIP3    H165308   1.714   0.124   1.369  0.8947  1.3023  1.2164
14631TIP3    H265309   1.818   0.193   1.283  0.8879  1.6861  1.5080
14632TIP3   OH265310   0.108   3.524  14.510 -0.4481  0.4210  0.0508
14632TIP3    H165311   0.117   3.465  14.585 -0.2053 -0.1746 -0.4312
14632TIP3    H265312   0.105   3.465  14.434 -0.6076  1.0156 -0.4095
14633TIP3   OH265313   0.746   0.588   1.308 -0.2330 -0.2166  0.2570
14633TIP3    H165314   0.708   0.500   1.301 -0.3123 -0.0648 -5.4328
14633TIP3    H265315   0.840   0.574   1.307 -0.1571 -0.1859  2.2910
14634TIP3   OH265316   3.717   3.757  14.052  0.5141  0.2854  0.5360
14634TIP3    H165317   3.713   3.843  14.010  1.8966 -0.1733 -0.6149
14634TIP3    H265318   3.686   3.772  14.141  0.1933  1.8604  0.1848
14635TIP3   OH265319   4.154   1.832  10.683 -0.1880 -0.8751 -0.0999
14635TIP3    H165320   4.166   1.917  10.641  1.0755  0.0558  2.0087
14635TIP3    H265321   4.062   1.831  10.710 -0.4014 -0.5179 -0.7908
14636TIP3   OH265322   2.881   0.403   6.319 -0.9999  0.3641  0.2278
14636TIP3    H165323   2.852   0.459   6.391 -0.8635 -1.0259  1.4066
14636TIP3    H265324   2.836   0.320   6.333  1.2277 -0.8876  0.4111
14637TIP3   OH265325   5.981   1.354  13.586  0.0453  0.1981 -0.2392
14637TIP3    H165326   6.008   1.444  13.571 -0.7011  0.7076  1.3036
14637TIP3    H265327   6.044   1.320  13.650  1.2834 -0.9191 -1.9563
14638TIP3   OH265328   6.760   6.474  15.121  0.0563 -0.3008  0.3630
14638TIP3    H165329   6.717   6.396  15.154  0.6341 -0.9907 -0.4809
14638TIP3    H265330   6.734   6.480  15.029  1.7310 -0.7657 -0.1939
14639TIP3   OH265331   1.346   3.925  14.143 -0.2067  0.0654 -0.1945
14639TIP3    H165332   1.363   3.868  14.069 -0.9960  0.5089 -0.7306
14639TIP3    H265333   1.423   3.914  14.200 -0.6625 -2.0641  0.0853
14640TIP3   OH265334   3.209   5.175  12.531  0.4016 -0.4555  0.8899
14640TIP3    H165335   3.263   5.138  12.602  0.7163 -1.8067 -0.0034
14640TIP3    H265336   3.266   5.238  12.488  0.3989 -0.0367  1.4862
14641TIP3   OH265337   4.162   1.537   1.353 -0.0475 -0.0266  0.3080
14641TIP3    H165338   4.117   1.470   1.301  0.7964 -1.9878  1.9400
14641TIP3    H265339   4.230   1.488   1.400  0.9924  2.1142  1.1587
14642TIP3   OH265340   3.613   4.346   4.779 -0.1781  0.5475  0.0158
14642TIP3    H165341   3.645   4.430   4.810  0.7738  0.7743 -1.4635
14642TIP3    H265342   3.690   4.305   4.738 -0.3647 -1.4519  1.4719
14643TIP3   OH265343   5.721   2.260   3.850 -0.7354 -0.5423 -0.1986
14643TIP3    H165344   5.640   2.296   3.888 -0.5896 -1.9301  1.5504
14643TIP3    H265345   5.786   2.270   3.920  0.2935 -0.6104 -1.1300
14644TIP3   OH265346   5.493   2.199   6.029 -0.2121  0.0221 -0.2094
14644TIP3    H165347   5.447   2.179   6.111  0.5183 -1.1596 -0.0665
14644TIP3    H265348   5.547   2.275   6.050  0.8856 -0.9790  0.8020
14645TIP3   OH265349   0.694   4.267  14.844  0.0563  0.3092  0.2289
14645TIP3    H165350   0.703   4.333  14.776 -0.4317 -0.2196 -0.3514
14645TIP3    H265351   0.618   4.295  14.895 -0.7721 -0.3334 -0.6283
14646TIP3   OH265352   6.682   6.540  12.514 -0.0598 -0.0081 -0.2853
14646TIP3    H165353   6.608   6.525  12.573  0.6156  1.0893  0.9107
14646TIP3    H265354   6.706   6.453  12.482 -1.4362 -0.4502 -0.1739
14647TIP3   OH265355   0.182   5.912  11.958  0.2868 -0.5912  0.5511
14647TIP3    H165356   0.244   5.984  11.970  0.7806 -1.1384  1.4289
14647TIP3    H265357   0.173   5.904  11.863 -2.2086  2.6244  0.3403
14648TIP3   OH265358   5.983   4.534  12.352 -0.1954 -0.3297  0.5852
14648TIP3    H165359   6.041   4.533  12.428 -0.5176  0.4621  0.8483
14648TIP3    H265360   5.956   4.626  12.343 -1.9971 -0.7888  0.9240
14649TIP3   OH265361   5.384   5.125   2.849 -0.4678 -0.7652  0.0735
14649TIP3    H165362   5.347   5.182   2.917  0.9580  0.1349  0.1398
14649TIP3    H265363   5.309   5.102   2.794 -1.8033 -2.1431  2.3440
14650TIP3   OH265364   6.282   1.547   2.374 -0.1321 -0.2376 -0.6880
14650TIP3    H165365   6.377   1.533   2.381  0.1576  1.7779  0.1415
14650TIP3    H265366   6.271   1.641   2.384 -2.3833 -0.6102  1.1042
14651TIP3   OH265367   3.279   0.223  16.889  0.3635  0.6158  0.2983
14651TIP3    H165368   3.360   0.246  16.936  0.5970  0.2896  0.0594
14651TIP3    H265369   3.298   0.138  16.850 -0.9418 -0.6889  2.2912
14652TIP3   OH265370   1.693   6.386  11.808 -0.2975  0.0915  0.1169
14652TIP3    H165371   1.656   6.353  11.726  1.3676  0.0810 -0.6742
14652TIP3    H265372   1.666   6.477  11.812  0.7703  0.4909 -1.1888
14653TIP3   OH265373   6.502   1.667  12.270 -0.3005 -0.0329 -0.0774
14653TIP3    H165374   6.435   1.718  12.224 -0.4925 -1.1782 -1.1333
14653TIP3    H265375   6.456   1.590  12.302  0.4162 -0.6465 -0.4763
14654TIP3   OH265376   1.982   4.785   5.595 -0.2109 -0.5244 -0.1751
14654TIP3    H165377   1.944   4.794   5.683 -0.8162  0.2369 -0.5022
14654TIP3    H265378   2.077   4.792   5.610 -0.2831 -0.7840  0.4580
14655TIP3   OH265379   1.309   2.824  11.071  1.0284  0.3915 -0.5281
14655TIP3    H165380   1.293   2.767  11.146  2.9670 -0.4673 -0.7147
14655TIP3    H265381   1.222   2.856  11.047 -0.0144 -1.6868  0.2062
14656TIP3   OH265382   3.056   6.585   3.437  0.2116  0.5189  0.6462
14656TIP3    H165383   3.095   6.590   3.523  1.9834  0.4237 -0.1178
14656TIP3    H265384   3.103   6.515   3.392 -0.9157  0.3165 -0.2854
14657TIP3   OH265385   5.492   5.331  13.075 -0.4013  0.4320 -0.4331
14657TIP3    H165386   5.511   5.237  13.085  2.3667  0.7518 -1.8070
14657TIP3    H265387   5.491   5.364  13.165 -0.3580 -0.7347  0.0231
14658TIP3   OH265388   4.852   4.915  11.377 -0.8644 -0.0368  0.0039
14658TIP3    H165389   4.921   4.869  11.329 -1.7126 -0.1044 -1.2019
14658TIP3    H265390   4.886   4.923  11.466  0.6241 -0.1980 -0.5241
14659TIP3   OH265391   3.716   1.382  12.917  0.2166 -0.1480 -0.5035
14659TIP3    H165392   3.655   1.414  12.983  0.2199  0.7835 -0.9428
14659TIP3    H265393   3.720   1.452  12.852  2.8990  0.5190  0.2539
14660TIP3   OH265394   1.496   1.247  16.993 -0.2986 -0.3680 -0.2952
14660TIP3    H165395   1.531   1.246  16.904 -0.9662  1.2460 -0.6083
14660TIP3    H265396   1.445   1.166  16.999 -0.1343 -0.5678 -1.3317
14661TIP3   OH265397   3.952   0.230  11.485 -0.2439  0.0547  0.1631
14661TIP3    H165398   3.975   0.323  11.477 -1.4041  0.4605  1.2934
14661TIP3    H265399   4.033   0.184  11.461  0.0736  1.3171 -1.3392
14662TIP3   OH265400   3.882   6.123  11.382  0.5797 -0.2308 -0.5462
14662TIP3    H165401   3.804   6.078  11.352 -0.3004  0.7920  0.1090
14662TIP3    H265402   3.924   6.156  11.303  0.8507 -1.5284 -0.9714
14663TIP3   OH265403   3.572   3.196  16.440  0.3381  0.2492  0.0231
14663TIP3    H165404   3.627   3.147  16.501  1.0256  0.4331 -0.4266
14663TIP3    H265405   3.535   3.129  16.382  1.9223  0.2886 -1.1027
14664TIP3   OH265406   3.131   0.800  11.366  0.0169  0.3460 -0.5770
14664TIP3    H165407   3.172   0.822  11.282 -1.8538  1.6787 -1.1862
14664TIP3    H265408   3.095   0.712  11.353 -1.4409  1.0667 -1.6779
14665TIP3   OH265409   1.897   3.730   0.890  0.1010 -0.2212 -0.3981
14665TIP3    H165410   1.930   3.786   0.820  0.6443 -1.4635 -1.1856
14665TIP3    H265411   1.965   3.734   0.958 -0.0659  0.3959 -0.2647
14666TIP3   OH265412   1.201   0.119  11.033  0.4010 -0.4085 -0.3880
14666TIP3    H165413   1.214   0.027  11.053  0.3554 -0.2346  0.4874
14666TIP3    H265414   1.287   0.151  11.005  1.1410 -0.0584  2.0938
14667TIP3   OH265415   5.403   4.569   3.218 -0.0656  0.0505 -0.4799
14667TIP3    H165416   5.480   4.523   3.251 -0.9641  0.5251  2.5657
14667TIP3    H265417   5.339   4.500   3.201  0.4799 -0.2150 -1.5664
14668TIP3   OH265418   4.961   4.200  10.814 -0.0543  0.7484 -0.4371
14668TIP3    H165419   4.902   4.127  10.832  0.9527  0.3353  1.4591
14668TIP3    H265420   5.044   4.159  10.791 -0.0741  1.3270 -1.6213
14669TIP3   OH265421   6.595   0.590  11.470 -0.3820 -0.1285  0.3158
14669TIP3    H165422   6.624   0.517  11.414 -0.4674 -0.2657  0.4494
14669TIP3    H265423   6.519   0.556  11.517 -0.0014 -0.1919  0.9013
14670TIP3   OH265424   0.788   5.581  16.533  0.1982  0.9638 -0.2838
14670TIP3    H165425   0.793   5.654  16.594  0.1888  1.8561 -1.3154
14670TIP3    H265426   0.698   5.548  16.543  0.4670  0.5319  0.8012
14671TIP3   OH265427   4.678   3.882  13.525 -0.1344 -0.1706 -0.3805
14671TIP3    H165428   4.612   3.817  13.546 -0.7899  0.7664  0.5258
14671TIP3    H265429   4.757   3.831  13.506 -0.8292 -1.2462 -0.4441
14672TIP3   OH265430   1.855   3.265  11.363 -0.4831  0.1584  0.6987
14672TIP3    H165431   1.843   3.280  11.269 -1.5797 -0.6229  0.6855
14672TIP3    H265432   1.870   3.352  11.400  0.0088  0.4692 -0.1983
14673TIP3   OH265433   1.032   3.069  12.358  0.0029  0.5349 -0.3507
14673TIP3    H165434   0.969   3.021  12.412  0.3058 -0.0253 -0.4931
14673TIP3    H265435   1.066   3.138  12.415 -1.6095  1.6177 -0.6109
14674TIP3   OH265436   3.583   1.740   1.707 -0.2236  0.5417 -0.1726
14674TIP3    H165437   3.574   1.708   1.617 -1.3946  1.4951 -0.4192
14674TIP3    H265438   3.508   1.702   1.753  0.9629 -0.8386  0.7094
14675TIP3   OH265439   4.142   3.309  12.316  0.1384  0.1429  0.1347
14675TIP3    H165440   4.047   3.307  12.315  0.1478 -1.8392 -0.3105
14675TIP3    H265441   4.165   3.393  12.276 -1.4110  0.1814 -0.7358
14676TIP3   OH265442   6.028   3.510  15.107 -0.1251  0.0479  0.4231
14676TIP3    H165443   5.970   3.495  15.033  0.6983 -1.1697  0.0012
14676TIP3    H265444   5.979   3.570  15.164 -2.8244 -2.7133  1.2491
14677TIP3   OH265445   3.273   3.118  12.328  0.0956  0.1625  0.1953
14677TIP3    H165446   3.237   3.159  12.407 -1.8001 -0.0348 -0.5145
14677TIP3    H265447   3.288   3.027  12.353  0.1947  0.2707  0.5406
14678TIP3   OH265448   5.440   1.926  11.271  0.4677 -0.2842 -0.2060
14678TIP3    H165449   5.346   1.915  11.259  0.5006 -0.4746 -0.2824
14678TIP3    H265450   5.477   1.839  11.258  0.4523 -0.6316  1.8152
14679TIP3   OH265451   3.464   1.604   5.094 -0.3873 -0.3599 -0.3554
14679TIP3    H165452   3.389   1.544   5.086 -0.3236 -0.4944  0.0559
14679TIP3    H265453   3.508   1.576   5.174  0.7632 -1.0331 -1.1848
14680TIP3   OH265454   5.410   3.242   3.647  0.6792  0.0746 -0.0195
14680TIP3    H165455   5.445   3.323   3.683  1.3793 -0.2645  0.0916
14680TIP3    H265456   5.338   3.218   3.705  0.3494  0.7035 -0.1579
14681TIP3   OH265457   0.340   2.539  12.759 -0.1513 -0.0150 -0.2372
14681TIP3    H165458   0.334   2.628  12.724  2.2837 -0.0068 -0.8261
14681TIP3    H265459   0.265   2.493  12.722 -0.4369  1.3301 -1.4054
14682TIP3   OH265460   3.867   1.133   5.232 -1.0784 -0.6898  0.2212
14682TIP3    H165461   3.886   1.039   5.235  1.0718 -0.3937 -1.2072
14682TIP3    H265462   3.941   1.174   5.278 -0.1813  0.4031 -2.0380
14683TIP3   OH265463   0.506   5.854  16.549  0.0946  0.0086 -0.1255
14683TIP3    H165464   0.547   5.804  16.478  0.2062 -0.4332  0.2458
14683TIP3    H265465   0.538   5.943  16.536  2.1840 -0.5264  0.8553
14684TIP3   OH265466   5.584   2.646  13.826 -0.2477  0.4433 -0.8993
14684TIP3    H165467   5.573   2.721  13.768 -0.4807  0.8616 -0.3298
14684TIP3    H265468   5.594   2.685  13.913 -0.1232 -0.1782 -0.6306
14685TIP3   OH265469   3.474   2.598   5.582  0.5492  0.2945 -0.4858
14685TIP3    H165470   3.522   2.600   5.665  1.4821  2.0575 -1.0281
14685TIP3    H265471   3.479   2.506   5.555  0.2662 -0.3173  1.3547
14686TIP3   OH265472   3.198   2.091   2.493 -1.1922  0.4579 -0.4914
14686TIP3    H165473   3.189   2.132   2.579 -1.5082 -1.8499  0.6577
14686TIP3    H265474   3.109   2.085   2.460 -1.5240 -1.6801  0.6012
14687TIP3   OH265475   5.900   1.491   1.769  0.6264 -0.2716  0.2003
14687TIP3    H165476   5.990   1.489   1.736  0.1462 -1.7020 -1.1683
14687TIP3    H265477   5.846   1.488   1.690 -0.6587  1.3672  0.9607
14688TIP3   OH265478   3.857   5.421  15.915  0.4514  0.2321  0.2272
14688TIP3    H165479   3.837   5.380  15.999 -1.2075 -0.1051 -0.3009
14688TIP3    H265480   3.882   5.511  15.937 -0.6456  0.3524  1.0408
14689TIP3   OH265481   0.614   5.052  15.189 -0.5737 -0.6526  0.4707
14689TIP3    H165482   0.520   5.034  15.185 -0.5659 -0.4121 -1.5986
14689TIP3    H265483   0.645   4.998  15.262 -2.4923  0.3027  2.1121
14690TIP3   OH265484   1.242   0.243   1.801 -0.0441 -0.2632  0.2962
14690TIP3    H165485   1.161   0.287   1.827  1.8900  3.3687  0.9554
14690TIP3    H265486   1.234   0.231   1.707 -1.1135  0.6482  0.2514
14691TIP3   OH265487   3.186   0.784   3.450  0.2553 -0.1516 -0.0323
14691TIP3    H165488   3.102   0.738   3.459 -0.6641  0.9791 -2.0440
14691TIP3    H265489   3.252   0.720   3.477 -1.2222 -1.1788  1.3119
14692TIP3   OH265490   4.912   5.146   4.885 -0.2644  0.2351 -0.1773
14692TIP3    H165491   4.889   5.225   4.935 -2.2601 -0.6616  0.3925
14692TIP3    H265492   4.901   5.074   4.947 -1.1842 -0.7561 -1.4341
14693TIP3   OH265493   0.583   1.654  13.535 -0.8124  0.2141  0.6019
14693TIP3    H165494   0.633   1.635  13.455 -1.5114 -0.5881  0.3477
14693TIP3    H265495   0.528   1.728  13.511 -0.5854  0.3618  0.5300
14694TIP3   OH265496   3.085   6.555  12.853 -0.1052  0.7669 -0.0866
14694TIP3    H165497   2.989   6.549  12.855 -0.0614  0.1885  0.9262
14694TIP3    H265498   3.103   6.646  12.876 -0.4152  0.8601 -0.2036
14695TIP3   OH265499   4.799   2.081   0.158 -0.4279  0.3417  0.6681
14695TIP3    H165500   4.819   2.115   0.245  0.2327 -1.4576  1.2729
14695TIP3    H265501   4.715   2.036   0.169 -0.5226  0.4220  0.2792
14696TIP3   OH265502   3.090   3.255   3.909  0.8005 -0.0559  0.7547
14696TIP3    H165503   3.119   3.179   3.959 -0.1653 -0.3025  0.9609
14696TIP3    H265504   3.144   3.327   3.942  0.3712 -0.2680  1.9718
14697TIP3   OH265505   5.325   2.118  12.206  0.5466  0.5216 -0.0046
14697TIP3    H165506   5.411   2.156  12.192  0.2198  2.1535  1.9277
14697TIP3    H265507   5.269   2.157  12.138  0.9786  0.7244 -0.2427
14698TIP3   OH265508   5.830   2.801   4.035  0.6080 -0.3576 -0.5063
14698TIP3    H165509   5.824   2.710   4.066  1.8274  0.3055  1.9375
14698TIP3    H265510   5.762   2.848   4.085 -1.8423 -0.2444 -3.6136
14699TIP3   OH265511   5.321   1.908   2.194 -0.7847  0.2890 -0.7712
14699TIP3    H165512   5.340   1.838   2.256 -0.6429  0.1922 -0.9220
14699TIP3    H265513   5.289   1.980   2.248 -0.9319  0.1082 -0.6163
14700TIP3   OH265514   1.783   3.086  12.724  1.0255 -0.1151 -0.0591
14700TIP3    H165515   1.764   3.064  12.816 -1.0662 -0.9875 -0.6242
14700TIP3    H265516   1.754   3.176  12.715 -0.4519 -0.5723 -0.2329
14701TIP3   OH265517   5.824   2.792  15.664 -0.1127 -0.6822  0.2311
14701TIP3    H165518   5.750   2.835  15.622 -0.8263 -0.3097  1.7988
14701TIP3    H265519   5.886   2.776  15.593 -1.0549  0.3358 -0.8623
14702TIP3   OH265520   3.573   5.979  16.567  0.2327  0.0441 -0.2211
14702TIP3    H165521   3.477   5.980  16.564  0.2124  1.2951  0.0705
14702TIP3    H265522   3.597   6.072  16.571  1.4647 -0.2522 -0.4110
14703TIP3   OH265523   0.253   3.564  12.203 -0.4136  0.6102 -0.1385
14703TIP3    H165524   0.178   3.510  12.227 -1.2522  1.8915  0.2409
14703TIP3    H265525   0.278   3.533  12.116  0.2339 -1.5085  0.7351
14704TIP3   OH265526   2.624   4.496   0.628 -0.1176 -0.5591  0.6489
14704TIP3    H165527   2.646   4.527   0.539 -2.5779 -2.2251 -0.6460
14704TIP3    H265528   2.705   4.507   0.677  1.0182  1.5494 -1.4592
14705TIP3   OH265529   2.892   4.799   4.967 -0.0092 -0.0538 -0.5499
14705TIP3    H165530   2.847   4.724   4.928 -2.2962  0.2705  1.3119
14705TIP3    H265531   2.867   4.873   4.912 -0.3434 -0.1456 -0.5218
14706TIP3   OH265532   1.598   3.802  12.642 -0.1141 -0.3016  0.5627
14706TIP3    H165533   1.515   3.777  12.601  1.1245 -1.8467 -1.1840
14706TIP3    H265534   1.624   3.882  12.597 -1.5272  1.3212  2.4750
14707TIP3   OH265535   6.528   6.125   2.891 -0.4690  0.0115 -0.2898
14707TIP3    H165536   6.452   6.153   2.942 -0.0281  0.9855 -0.1475
14707TIP3    H265537   6.496   6.118   2.801 -0.9975 -0.7100 -0.0514
14708TIP3   OH265538   5.117   4.745   0.113 -0.0303  0.0502  0.1902
14708TIP3    H165539   5.212   4.732   0.117 -0.0025  0.4138  0.9975
14708TIP3    H265540   5.090   4.748   0.205 -0.7890  0.1902 -0.0344
14709TIP3   OH265541   0.025   2.788  14.695  0.3620  0.3775  0.4625
14709TIP3    H165542   0.011   2.722  14.763 -0.8024  0.0042 -0.1197
14709TIP3    H265543  -0.039   2.767  14.627  1.2501  0.9699 -0.5935
14710TIP3   OH265544   5.049   6.194   1.517  0.0801  0.2180 -0.1921
14710TIP3    H165545   5.130   6.159   1.479  1.5483  2.3997  0.7313
14710TIP3    H265546   5.072   6.216   1.607 -1.3073  1.6078 -0.1280
14711TIP3   OH265547   2.630   2.380  10.650 -0.2267 -0.2037 -0.2963
14711TIP3    H165548   2.587   2.448  10.702  2.0455  2.0022 -1.1525
14711TIP3    H265549   2.720   2.378  10.682  0.2787 -1.4319 -1.6808
14712TIP3   OH265550   2.075   4.007  11.368 -0.6284  0.0275 -0.2880
14712TIP3    H165551   1.993   4.007  11.417 -1.0152  0.9524 -0.9125
14712TIP3    H265552   2.125   4.080  11.404 -0.2282 -0.3026 -0.1637
14713TIP3   OH265553   5.774   6.005   2.779  0.1962  0.5198  0.5132
14713TIP3    H165554   5.792   5.923   2.826 -1.3196  0.7294  1.5186
14713TIP3    H265555   5.692   5.989   2.732 -0.2222  1.5100  0.8786
14714TIP3   OH265556   0.735   2.315  12.238 -0.0416  0.0299  0.1224
14714TIP3    H165557   0.749   2.222  12.254 -0.8394 -0.2895 -0.9329
14714TIP3    H265558   0.739   2.324  12.143  1.1487  1.2779  0.2547
14715TIP3   OH265559   1.904   1.509   1.319  0.3953  0.1623  0.1134
14715TIP3    H165560   1.946   1.436   1.273  1.2769  0.2825  0.7113
14715TIP3    H265561   1.961   1.584   1.302  1.1375  0.0704  1.9488
14716TIP3   OH265562   0.190   0.460   3.957 -0.0471 -0.5241 -0.1351
14716TIP3    H165563   0.134   0.498   3.890 -1.3219 -2.7419 -0.4186
14716TIP3    H265564   0.266   0.426   3.909  0.8524  1.1208  0.0591
14717TIP3   OH265565   1.172   4.407   2.895  0.0236  0.0921  0.2729
14717TIP3    H165566   1.262   4.408   2.928  0.4587  1.3220 -0.8524
14717TIP3    H265567   1.125   4.468   2.952 -0.4237 -1.4261  1.6035
14718TIP3   OH265568   2.371   6.323   0.712  0.3782 -0.7160 -0.1313
14718TIP3    H165569   2.280   6.294   0.717  0.4486 -1.0825 -0.8022
14718TIP3    H265570   2.422   6.245   0.733  0.5440 -0.3192  1.0409
14719TIP3   OH265571   2.771   4.403  17.122  0.0735 -0.0913 -1.0642
14719TIP3    H165572   2.859   4.436  17.103 -0.4904  0.7011 -2.4617
14719TIP3    H265573   2.726   4.405  17.038 -1.6273  0.5758 -0.1877
14720TIP3   OH265574   6.761   3.379   6.121  0.1820  0.3274  0.0664
14720TIP3    H165575   6.815   3.431   6.061 -0.1590 -0.8882 -1.3541
14720TIP3    H265576   6.685   3.353   6.069 -0.2454 -0.5677  1.0945
14721TIP3   OH265577   3.190   5.995  13.158 -0.1964 -0.2595 -0.4917
14721TIP3    H165578   3.134   6.011  13.082  0.0610 -0.3384 -0.7044
14721TIP3    H265579   3.271   6.043  13.138 -0.2655  0.0244 -0.0947
14722TIP3   OH265580   3.733   5.546   6.050  0.4984  0.0914 -0.3271
14722TIP3    H165581   3.802   5.529   6.115 -0.1834  0.7460  0.6011
14722TIP3    H265582   3.735   5.470   5.993 -0.7176 -1.9072  2.1226
14723TIP3   OH265583   6.436   4.535  11.786  0.1304 -0.4847  0.0671
14723TIP3    H165584   6.497   4.487  11.731  1.7704  1.2683  0.2665
14723TIP3    H265585   6.378   4.468  11.822 -0.3665 -1.8043 -2.9254
14724TIP3   OH265586   5.305   2.597  12.599 -0.1640  0.0009 -0.1114
14724TIP3    H165587   5.280   2.507  12.620  1.5815 -1.0419 -2.0784
14724TIP3    H265588   5.367   2.621  12.668 -0.7078 -0.2868  0.4798
14725TIP3   OH265589   4.401   5.318   1.367 -0.0435 -0.3463 -0.2138
14725TIP3    H165590   4.364   5.367   1.294 -0.7911 -0.0043  0.3754
14725TIP3    H265591   4.428   5.234   1.329 -2.6405 -1.1692 -0.4826
14726TIP3   OH265592   5.482   2.254  13.910 -0.0616  0.6222 -0.0010
14726TIP3    H165593   5.481   2.213  13.996  2.7638 -0.4137 -0.3592
14726TIP3    H265594   5.410   2.318  13.913 -1.2367 -0.6804  2.4106
14727TIP3   OH265595   4.897   5.853   1.800  0.7623  0.4319 -0.1091
14727TIP3    H165596   4.977   5.844   1.747  0.8595 -1.0771  0.2415
14727TIP3    H265597   4.847   5.774   1.781  0.4483  0.2217  1.4507
14728TIP3   OH265598   0.794   5.023  12.926 -0.0976  0.7363  0.0718
14728TIP3    H165599   0.825   5.104  12.967 -0.6360  0.1482  1.7489
14728TIP3    H265600   0.755   4.973  12.998 -0.3948 -0.7238 -1.0419
14729TIP3   OH265601   1.869   3.052  13.092 -0.4083 -0.2563 -0.0654
14729TIP3    H165602   1.866   3.020  13.182  0.7682 -0.9682 -0.2620
14729TIP3    H265603   1.956   3.091  13.084 -0.6146  0.0550 -0.8114
14730TIP3   OH265604   4.481   3.739  11.777  0.0827  0.3808  0.2487
14730TIP3    H165605   4.396   3.715  11.812  0.3847 -1.0196  0.1175
14730TIP3    H265606   4.520   3.795  11.844 -1.3351  1.9319 -0.1682
14731TIP3   OH265607   0.226   2.251   0.484 -0.1931  0.6829  0.0182
14731TIP3    H165608   0.256   2.216   0.400  0.0944  0.0379  0.3771
14731TIP3    H265609   0.175   2.329   0.462  0.6849  1.0738 -0.6915
14732TIP3   OH265610   1.673   2.136   5.781 -0.0765 -0.5204  0.0434
14732TIP3    H165611   1.750   2.148   5.726 -0.6745  0.2218 -0.6571
14732TIP3    H265612   1.678   2.045   5.811  1.7566 -0.1138  1.0969
14733TIP3   OH265613   4.392   3.947  14.729 -0.0560  0.0058  0.5102
14733TIP3    H165614   4.395   4.042  14.741 -0.5711 -0.2430  3.1057
14733TIP3    H265615   4.413   3.935  14.637  4.4460  2.4183  0.9179
14734TIP3   OH265616   5.538   6.247  12.764  0.2660 -0.2431 -0.4227
14734TIP3    H165617   5.554   6.337  12.792  0.1376 -0.5815  0.8066
14734TIP3    H265618   5.443   6.241  12.757  0.2425 -0.4241  0.0184
14735TIP3   OH265619   4.957   2.607   1.704 -0.0572  0.0568  0.1619
14735TIP3    H165620   4.872   2.606   1.659 -0.3817  1.2743  0.7041
14735TIP3    H265621   4.936   2.594   1.796  0.4735 -0.9310  0.1560
14736TIP3   OH265622   4.578   3.370  13.096 -0.2629 -0.3410  0.1272
14736TIP3    H165623   4.655   3.313  13.092  0.9278  1.2483 -2.2367
14736TIP3    H265624   4.525   3.343  13.021 -0.0561  1.0724 -0.5590
14737TIP3   OH265625   3.186   6.040  14.520 -0.6893 -0.1709  0.0073
14737TIP3    H165626   3.229   6.087  14.592  1.7293  0.5117 -1.7419
14737TIP3    H265627   3.138   6.108  14.472 -0.4907 -0.2171 -0.2587
14738TIP3   OH265628   2.356   4.637  11.832  0.7601 -0.4100  0.1878
14738TIP3    H165629   2.393   4.646  11.745  0.1082 -0.3859 -0.0946
14738TIP3    H265630   2.320   4.548  11.835  0.4209 -0.2731  0.2842
14739TIP3   OH265631   0.442   2.381   1.914 -0.0867 -0.4339 -0.7200
14739TIP3    H165632   0.433   2.300   1.963 -0.6648 -0.1567 -0.3462
14739TIP3    H265633   0.444   2.354   1.822  2.9504 -1.1260 -0.5579
14740TIP3   OH265634   6.649   4.326  11.133  0.1443 -0.5719  0.6061
14740TIP3    H165635   6.573   4.334  11.190 -0.1467  0.8416  0.0757
14740TIP3    H265636   6.616   4.350  11.046  1.2029  0.1115  0.3743
14741TIP3   OH265637   1.953   6.415  16.537 -0.2477 -0.3155  0.2398
14741TIP3    H165638   1.982   6.413  16.628  4.0039  0.6352 -0.8968
14741TIP3    H265639   1.914   6.502  16.526  2.0401  0.7951  0.4883
14742TIP3   OH265640   6.559   5.679  14.379  0.1608  0.4852  0.1091
14742TIP3    H165641   6.523   5.594  14.404 -0.3502  0.4683 -0.6381
14742TIP3    H265642   6.629   5.696  14.442 -0.1084 -0.2274  0.6037
14743TIP3   OH265643   5.683   3.538   4.400 -0.1559 -0.0631  0.5872
14743TIP3    H165644   5.741   3.590   4.456 -1.4941  2.2998 -0.0740
14743TIP3    H265645   5.712   3.557   4.311  0.3479 -1.7918  0.3491
14744TIP3   OH265646   2.328   6.538   1.486  0.5382 -0.1550  0.7214
14744TIP3    H165647   2.250   6.483   1.495  0.6763 -0.3344  0.8232
14744TIP3    H265648   2.364   6.514   1.401  1.0094 -0.7581  1.0800
14745TIP3   OH265649   2.365   3.084  14.039  0.0327 -0.5737  0.1406
14745TIP3    H165650   2.371   3.130  13.955  2.9534 -0.8555  0.0960
14745TIP3    H265651   2.447   3.034  14.045 -1.9177 -3.9806  1.2435
14746TIP3   OH265652   6.418   2.966  17.149 -0.3948  0.1104 -0.0439
14746TIP3    H165653   6.383   2.893  17.097  1.7960 -1.6344  0.7906
14746TIP3    H265654   6.486   3.004  17.093 -0.3283  0.3890  0.2243
14747TIP3   OH265655   3.237   1.247   2.555 -0.1436  0.3650 -0.2238
14747TIP3    H165656   3.237   1.152   2.571  1.3552  0.3414 -0.2598
14747TIP3    H265657   3.161   1.261   2.498 -0.9066 -0.6749  0.4811
14748TIP3   OH265658   1.548   5.135  15.135 -0.1857  0.4842 -0.1829
14748TIP3    H165659   1.487   5.102  15.069  0.9511  0.6748 -1.3558
14748TIP3    H265660   1.614   5.066  15.144 -0.8665  0.0039  1.5370
14749TIP3   OH265661   4.739   6.483  14.972  0.0655  0.2084  0.2090
14749TIP3    H165662   4.741   6.448  14.883 -1.2294  0.1103  0.2018
14749TIP3    H265663   4.655   6.454  15.008  1.0714 -0.7787  1.8989
14750TIP3   OH265664   5.247   5.385   2.753  0.5737 -0.1730  0.1594
14750TIP3    H165665   5.161   5.347   2.771 -0.1824  1.5830  0.4383
14750TIP3    H265666   5.240   5.476   2.782  2.0087  0.4661 -1.3357
14751TIP3   OH265667   1.112   4.250   0.817  0.3269 -0.0943  0.5509
14751TIP3    H165668   1.052   4.294   0.757  0.3142  0.2302  0.7971
14751TIP3    H265669   1.112   4.158   0.788  0.8711  0.1908 -0.3885
14752TIP3   OH265670   3.361   5.458  10.821 -0.1356 -0.1442 -0.0924
14752TIP3    H165671   3.369   5.553  10.835 -2.6529  0.1355 -0.0616
14752TIP3    H265672   3.309   5.450  10.741  2.4342 -1.6005 -1.7339
14753TIP3   OH265673   6.333   3.077  16.085 -0.1850 -0.3580 -0.2632
14753TIP3    H165674   6.334   3.013  16.157 -0.5262 -1.4543 -1.1944
14753TIP3    H265675   6.405   3.049  16.028 -1.7658 -1.3539 -1.8626
14754TIP3   OH265676   2.407   4.630   0.173 -0.0555 -0.1697  0.5964
14754TIP3    H165677   2.400   4.657   0.081 -0.6685 -1.7323  0.1489
14754TIP3    H265678   2.484   4.572   0.174  0.4167  0.4572  1.2408
14755TIP3   OH265679   1.342   1.159  15.915  0.0835 -0.3253  0.1473
14755TIP3    H165680   1.396   1.107  15.974 -2.1523 -2.4432  0.4869
14755TIP3    H265681   1.322   1.239  15.964 -1.2298 -1.7742  2.1298
14756TIP3   OH265682   6.520   3.515   3.916 -0.1916  0.2204 -0.2163
14756TIP3    H165683   6.547   3.445   3.857  0.5814  0.4676 -0.1633
14756TIP3    H265684   6.507   3.591   3.860 -1.4190 -0.0465 -0.3293
14757TIP3   OH265685   3.157   6.686  11.599  0.4122 -0.0855  0.3587
14757TIP3    H165686   3.139   6.709  11.690  1.8710  1.3436  0.3276
14757TIP3    H265687   3.094   6.736  11.548 -1.1538 -1.7324  0.5716
14758TIP3   OH265688   5.162   6.723   3.095  0.2611 -0.2541  0.7890
14758TIP3    H165689   5.149   6.751   3.185 -1.5864 -0.4669  0.6390
14758TIP3    H265690   5.108   6.644   3.086  0.1930 -0.0903 -0.5503
14759TIP3   OH265691   4.605   0.597   4.107  0.3818  0.7314 -0.5288
14759TIP3    H165692   4.521   0.569   4.143  0.3357 -1.4048 -2.1133
14759TIP3    H265693   4.656   0.622   4.184  0.7610 -4.8238  1.4868
14760TIP3   OH265694   4.475   6.577  15.332 -0.1412 -0.1766  0.1253
14760TIP3    H165695   4.393   6.528  15.335  0.3794 -1.0835 -0.0180
14760TIP3    H265696   4.530   6.537  15.400  0.8599 -0.8767 -1.0451
14761TIP3   OH265697   6.045   6.580  12.115 -0.0032 -0.6108  0.2524
14761TIP3    H165698   5.997   6.566  12.034 -2.0335 -0.6475  1.4096
14761TIP3    H265699   6.092   6.497  12.129  1.0719 -0.3070 -1.2706
14762TIP3   OH265700   0.738   0.860   3.085  0.1180  0.1215 -0.5054
14762TIP3    H165701   0.752   0.785   3.026  2.5203  0.6652 -0.7401
14762TIP3    H265702   0.821   0.869   3.131 -0.3461  2.2366  0.0060
14763TIP3   OH265703   3.822   3.460  14.860 -0.5041 -0.0896  0.3701
14763TIP3    H165704   3.797   3.407  14.784  1.1597 -0.1138 -0.2033
14763TIP3    H265705   3.877   3.401  14.913 -2.4657 -0.4097  2.1573
14764TIP3   OH265706   2.411   5.042   4.480 -0.4883  0.2795  0.6188
14764TIP3    H165707   2.363   4.971   4.437 -1.4247  0.5304  1.1993
14764TIP3    H265708   2.403   5.116   4.421  0.0698  0.0410  0.2397
14765TIP3   OH265709   0.166   3.776  17.132 -0.2912  0.3363  0.1293
14765TIP3    H165710   0.261   3.773  17.124 -0.3444 -2.2546 -0.5011
14765TIP3    H265711   0.137   3.826  17.056  0.5242  0.5195 -0.0723
14766TIP3   OH265712   4.362   0.297   1.756 -0.2499  0.0921 -0.1906
14766TIP3    H165713   4.452   0.319   1.781 -0.3216  1.0258 -0.7266
14766TIP3    H265714   4.369   0.267   1.665 -0.5975  1.0775 -0.5540
14767TIP3   OH265715   0.126   1.973  16.682  0.0364 -0.1844 -0.4508
14767TIP3    H165716   0.057   2.013  16.735  1.0217  0.0608  0.6828
14767TIP3    H265717   0.081   1.940  16.604 -1.2225  0.7067 -0.1210
14768TIP3   OH265718   3.420   1.580  10.375 -0.0409  0.3031 -0.2471
14768TIP3    H165719   3.334   1.607  10.407 -0.4719  0.2690 -1.3220
14768TIP3    H265720   3.402   1.537  10.291  0.8649 -1.3095  0.3566
14769TIP3   OH265721   2.792   6.765   5.174 -0.3959 -0.1070 -0.1767
14769TIP3    H165722   2.726   6.719   5.226 -1.4289  0.7008 -0.7314
14769TIP3    H265723   2.814   6.843   5.226  0.9835 -0.9303  0.5308
14770TIP3   OH265724   1.951   1.944  16.994 -0.4242  0.7984  0.0423
14770TIP3    H165725   1.883   1.976  17.053 -1.4548 -0.5476 -0.3823
14770TIP3    H265726   1.904   1.911  16.918  0.5896 -1.2691  0.2451
14771TIP3   OH265727   0.154   1.460  16.714  0.5099  0.2996  0.1465
14771TIP3    H165728   0.177   1.475  16.622  0.5404  1.5875  0.3473
14771TIP3    H265729   0.125   1.546  16.745  0.1404 -0.2145  1.2388
14772TIP3   OH265730   1.175   5.256  10.629  0.1367  0.1568 -0.4632
14772TIP3    H165731   1.225   5.238  10.709  0.1010 -1.0154 -0.6880
14772TIP3    H265732   1.237   5.302  10.573  0.7236 -0.5628 -0.4255
14773TIP3   OH265733   3.742   0.029  15.214  0.5978  0.5284 -0.3853
14773TIP3    H165734   3.666   0.045  15.270 -0.1540  0.4214 -1.3476
14773TIP3    H265735   3.779  -0.053  15.248  0.6138  0.8687  0.4372
14774TIP3   OH265736   4.007   6.178  13.126 -0.2969  0.2027 -0.2006
14774TIP3    H165737   4.091   6.133  13.120 -0.5736 -0.1605 -1.9655
14774TIP3    H265738   3.984   6.174  13.219  2.6582  2.3297  0.7808
14775TIP3   OH265739   0.594   0.261  17.202 -0.0065  0.4904 -1.0650
14775TIP3    H165740   0.551   0.333  17.156 -1.8080 -0.8436 -1.6162
14775TIP3    H265741   0.549   0.256  17.287  0.6865  0.5458 -0.6918
14776TIP3   OH265742   0.782   3.433   3.073  0.6857 -0.3273  0.2037
14776TIP3    H165743   0.830   3.423   3.155  3.5244  0.8275 -1.1599
14776TIP3    H265744   0.826   3.373   3.012 -1.1773 -0.9629 -0.5824
14777TIP3   OH265745   3.487   6.197   5.324 -0.1287 -0.1827 -0.4707
14777TIP3    H165746   3.393   6.216   5.333  0.1184  0.2162  1.8732
14777TIP3    H265747   3.529   6.283   5.321  0.2187 -0.3630 -0.8178
14778TIP3   OH265748   1.376   3.180   5.877 -0.1983  0.6218 -0.1969
14778TIP3    H165749   1.372   3.264   5.923  1.7606  0.4850  0.3150
14778TIP3    H265750   1.407   3.117   5.942  2.7299  0.4346 -1.5626
14779TIP3   OH265751   6.112   0.631   5.890 -0.1334  0.0311  0.0836
14779TIP3    H165752   6.208   0.637   5.890  0.0569 -2.1710  0.3326
14779TIP3    H265753   6.085   0.685   5.815  1.2182  1.3763  0.5076
14780TIP3   OH265754   1.810   0.406   0.958 -0.4133  0.2128  0.2727
14780TIP3    H165755   1.726   0.428   0.997 -1.9370 -2.9552 -0.9264
14780TIP3    H265756   1.832   0.320   0.994  1.1318 -0.0650 -1.1915
14781TIP3   OH265757   1.822   6.448   1.363  0.5026  0.1692  0.0628
14781TIP3    H165758   1.822   6.355   1.343 -0.6823 -0.1494  1.3964
14781TIP3    H265759   1.913   6.476   1.347  0.4166 -0.7065 -2.3928
14782TIP3   OH265760   2.515   0.398   4.684  0.4519  0.1178 -0.1914
14782TIP3    H165761   2.459   0.338   4.636 -1.2826  0.2393  1.5648
14782TIP3    H265762   2.603   0.383   4.648  0.0064 -3.0055 -0.2562
14783TIP3   OH265763   4.491   0.674  11.580  0.2065 -0.1859  0.5044
14783TIP3    H165764   4.434   0.598  11.567  0.5607 -0.2049 -1.2464
14783TIP3    H265765   4.576   0.646  11.546  0.6187  0.6359  0.8445
14784TIP3   OH265766   5.698   0.384  13.301 -0.0197  0.3119  0.0142
14784TIP3    H165767   5.709   0.289  13.290  1.1023  0.4171  0.0948
14784TIP3    H265768   5.623   0.406  13.245  0.7283 -0.3859 -1.3309
14785TIP3   OH265769   1.222   5.992  11.697 -0.5599  0.5467 -0.4037
14785TIP3    H165770   1.239   5.973  11.790  2.0143 -0.8112 -1.0780
14785TIP3    H265771   1.184   5.912  11.662  2.7680 -0.7140 -1.4558
14786TIP3   OH265772   1.077   3.483   0.941  0.0578  0.6739 -0.3375
14786TIP3    H165773   1.025   3.554   0.904 -2.5255  0.0090  1.7084
14786TIP3    H265774   1.159   3.485   0.892 -0.4475  4.1470 -1.2998
14787TIP3   OH265775   6.762   5.283   2.900  0.0445  0.0876 -0.5050
14787TIP3    H165776   6.717   5.325   2.973 -0.7378  0.1234 -0.9965
14787TIP3    H265777   6.851   5.266   2.933 -0.3714 -0.1383  0.5311
14788TIP3   OH265778   4.828   1.352   1.630 -0.5488 -0.0060  0.4201
14788TIP3    H165779   4.834   1.426   1.690  0.9418  1.0777 -0.9672
14788TIP3    H265780   4.799   1.390   1.547 -2.0626 -1.3799  0.2507
14789TIP3   OH265781   4.857   4.598   4.100  0.3746  0.3133  0.2243
14789TIP3    H165782   4.802   4.537   4.051  3.2373 -2.0969 -0.2471
14789TIP3    H265783   4.795   4.659   4.140 -2.7717 -3.0441  0.9904
14790TIP3   OH265784   6.607   1.849  11.445 -0.1889  0.2276 -0.3759
14790TIP3    H165785   6.660   1.895  11.509  1.8929 -0.1423 -1.7299
14790TIP3    H265786   6.604   1.759  11.476  0.9863  0.0048 -0.8649
14791TIP3   OH265787   2.796   0.505  12.220 -0.1490 -0.1712  0.1550
14791TIP3    H165788   2.728   0.533  12.282  1.2067 -0.5078  1.8834
14791TIP3    H265789   2.849   0.442  12.270  3.0641  2.0638 -0.1142
14792TIP3   OH265790   0.690   3.785   5.444 -0.1160 -0.8587 -0.2601
14792TIP3    H165791   0.734   3.776   5.528 -1.4698 -1.2290  0.4353
14792TIP3    H265792   0.731   3.861   5.403  0.0761 -0.2281  1.0518
14793TIP3   OH265793   0.695   2.675   6.240  0.0473 -0.0742  0.1472
14793TIP3    H165794   0.721   2.721   6.319  0.8833 -0.8585  0.3394
14793TIP3    H265795   0.673   2.586   6.269  0.5670 -0.4322 -0.5169
14794TIP3   OH265796   3.227   6.022   4.446 -0.0013  0.0844 -0.1362
14794TIP3    H165797   3.221   5.956   4.515  1.0521 -1.0687 -1.0788
14794TIP3    H265798   3.238   6.105   4.492 -1.2361 -0.3994  1.0795
14795TIP3   OH265799   6.467   1.488  17.147 -0.2916 -0.4526  0.0066
14795TIP3    H165800   6.563   1.489  17.148 -0.2606  0.9779 -0.5654
14795TIP3    H265801   6.443   1.399  17.173  1.0808  0.2480  4.4155
14796TIP3   OH265802   6.753   6.449   1.176 -0.1646  0.9529 -0.4092
14796TIP3    H165803   6.719   6.489   1.256  0.4813 -1.3021  1.1132
14796TIP3    H265804   6.677   6.407   1.136 -0.0631 -0.1561  0.4991
14797TIP3   OH265805   3.500   4.257  16.980 -0.0208  0.1936 -0.2943
14797TIP3    H165806   3.594   4.241  16.986  0.1126  1.2652  0.9523
14797TIP3    H265807   3.464   4.213  17.057 -0.3992  0.7104 -0.1734
14798TIP3   OH265808   0.798   1.661  15.366  0.4058 -0.4481  0.1981
14798TIP3    H165809   0.763   1.656  15.455  1.2238 -1.5290  0.4780
14798TIP3    H265810   0.799   1.571  15.335  0.7979 -0.1694 -0.6390
14799TIP3   OH265811   2.710   3.617  11.714 -0.0824  0.2981 -0.1446
14799TIP3    H165812   2.619   3.630  11.740  0.0619 -0.9411  1.1731
14799TIP3    H265813   2.723   3.675  11.640 -1.7534  0.9944  0.0601
14800TIP3   OH265814   1.634   0.669  13.799  0.2579  0.0202 -0.1258
14800TIP3    H165815   1.615   0.762  13.806  0.3166  0.1728 -1.6418
14800TIP3    H265816   1.551   0.630  13.770  0.4310 -0.2860 -0.2175
14801TIP3   OH265817   5.234   2.756   5.064 -0.1751  0.2577  0.1260
14801TIP3    H165818   5.306   2.729   5.121  0.1444 -0.5121 -0.6251
14801TIP3    H265819   5.270   2.829   5.013 -0.3111  0.6377  0.5639
14802TIP3   OH265820   2.319   5.447  17.075  0.1732 -0.6059  0.0336
14802TIP3    H165821   2.292   5.513  17.138  0.5255 -1.4140  1.0720
14802TIP3    H265822   2.251   5.380  17.081  1.3842 -1.8059  1.3537
14803TIP3   OH265823   2.038   5.493  12.113  0.0358 -0.2624 -0.2418
14803TIP3    H165824   2.015   5.401  12.100  0.8985 -0.2132 -2.6610
14803TIP3    H265825   2.133   5.492  12.127  0.2681  0.3335 -1.6670
14804TIP3   OH265826   4.902   6.660  15.315  0.1596  0.0248  0.1308
14804TIP3    H165827   4.956   6.626  15.386 -0.1196 -0.3590  0.1651
14804TIP3    H265828   4.950   6.736  15.282  1.3293 -1.0092 -0.6465
14805TIP3   OH265829   1.407   6.641  13.938  0.6643 -0.2152 -0.4212
14805TIP3    H165830   1.448   6.723  13.968  1.8958 -1.1051  0.4291
14805TIP3    H265831   1.401   6.588  14.017  0.7026 -1.2822 -1.1229
14806TIP3   OH265832   0.854   4.975  11.273  0.2061 -0.3142 -0.2009
14806TIP3    H165833   0.867   5.023  11.192 -0.1919 -1.3220 -0.8748
14806TIP3    H265834   0.941   4.975  11.315 -0.1059  2.3162  0.6158
14807TIP3   OH265835   2.623   1.126   0.290 -0.0115 -0.0049 -0.3789
14807TIP3    H165836   2.696   1.064   0.285  1.3456  1.5268 -0.3017
14807TIP3    H265837   2.659   1.208   0.257 -1.2090  1.2383  1.2517
14808TIP3   OH265838   5.010   4.329  14.111  0.2481 -0.4563 -0.2535
14808TIP3    H165839   4.947   4.267  14.148  3.1141 -3.1341  0.6026
14808TIP3    H265840   5.019   4.302  14.020  1.8926 -1.8303  0.2504
14809TIP3   OH265841   1.015   5.453  16.625  0.4752  0.0419  0.3803
14809TIP3    H165842   1.034   5.388  16.557  0.1588  1.0505 -0.6942
14809TIP3    H265843   0.924   5.477  16.612  0.4156  0.2853  1.1470
14810TIP3   OH265844   3.010   4.353  14.786 -0.1201 -0.0705  0.2925
14810TIP3    H165845   3.091   4.387  14.747 -0.1669  0.3385  0.5371
14810TIP3    H265846   3.008   4.261  14.763 -0.3267  0.2369 -0.9717
14811TIP3   OH265847   0.010   5.074   0.717  0.3678 -0.5609 -0.1208
14811TIP3    H165848   0.083   5.093   0.776 -0.2804 -1.8657  1.1527
14811TIP3    H265849   0.024   4.983   0.690 -0.2340 -0.4945 -0.6795
14812TIP3   OH265850   5.079   5.598   4.375  0.4198  0.3357 -0.2074
14812TIP3    H165851   5.145   5.659   4.410  0.2042  0.3821  0.1315
14812TIP3    H265852   5.089   5.603   4.280  0.5681  0.7195 -0.1735
14813TIP3   OH265853   3.854   1.853  14.863  0.3589 -0.0757  0.1614
14813TIP3    H165854   3.790   1.795  14.903 -1.3567  0.9926 -0.9325
14813TIP3    H265855   3.938   1.824  14.899 -0.7639 -1.1183  2.1147
14814TIP3   OH265856   2.833   4.579  11.488 -0.3536  0.2956 -0.2492
14814TIP3    H165857   2.843   4.630  11.569  0.2948 -0.9329  0.4781
14814TIP3    H265858   2.919   4.582  11.446  0.0174 -1.0195  0.3400
14815TIP3   OH265859   1.974   3.700   2.525 -0.3531 -0.0094 -0.4378
14815TIP3    H165860   2.029   3.773   2.552  0.2370  0.4210 -2.6337
14815TIP3    H265861   2.024   3.622   2.550 -1.5084  0.1771  3.0010
14816TIP3   OH265862   4.374   3.338   6.026 -0.8039  0.1588 -0.5419
14816TIP3    H165863   4.413   3.380   6.101  0.2299  0.1596 -1.0674
14816TIP3    H265864   4.281   3.363   6.029  0.1244  4.5968 -2.2161
14817TIP3   OH265865   1.435   3.318  10.672 -0.4174 -0.6735 -0.5547
14817TIP3    H165866   1.400   3.382  10.734 -1.4309 -0.8693 -0.9066
14817TIP3    H265867   1.491   3.369  10.613 -0.1244 -0.3473 -0.0028
14818TIP3   OH265868   0.278   3.842  12.195  0.3077 -0.2929 -0.0918
14818TIP3    H165869   0.323   3.780  12.252 -1.8810 -1.0094  0.9608
14818TIP3    H265870   0.185   3.831  12.216 -0.2983  1.9938 -1.2473
14819TIP3   OH265871   6.615   3.940   0.780 -0.0216 -0.1866  0.7109
14819TIP3    H165872   6.543   3.890   0.742  1.1462 -0.2302 -1.6220
14819TIP3    H265873   6.594   4.031   0.760 -1.2483  0.2183  3.3852
14820TIP3   OH265874   6.636   4.184   2.190  0.0294 -0.0916 -0.0694
14820TIP3    H165875   6.599   4.162   2.104 -0.6843 -2.4266  0.7463
14820TIP3    H265876   6.729   4.196   2.174 -0.4642  2.5707 -1.6130
14821TIP3   OH265877   2.647   0.711   1.604  0.5243  0.2812 -0.1027
14821TIP3    H165878   2.600   0.628   1.601 -0.3379  0.7763 -1.6057
14821TIP3    H265879   2.581   0.775   1.628  1.3448  0.4696  1.7977
14822TIP3   OH265880   4.030   5.138  14.278  0.1220 -0.0494  0.1776
14822TIP3    H165881   3.972   5.070  14.313  0.2236  0.4447  1.3380
14822TIP3    H265882   4.082   5.093  14.212 -1.1176 -0.6535 -0.4153
14823TIP3   OH265883   2.570   4.641  12.126  0.2885 -0.8015  0.0362
14823TIP3    H165884   2.569   4.548  12.147  0.0879 -0.5571  1.1833
14823TIP3    H265885   2.493   4.677  12.169 -0.3035 -0.2876 -1.3795
14824TIP3   OH265886   1.619   1.286  12.312  0.2911 -0.1212  0.4524
14824TIP3    H165887   1.581   1.355  12.258 -1.2934  0.0886  1.7708
14824TIP3    H265888   1.545   1.229  12.333  0.9425 -0.4111  2.0751
14825TIP3   OH265889   5.225   3.698  14.945 -0.3732  0.0753 -0.3057
14825TIP3    H165890   5.235   3.711  14.850 -0.7371 -0.6516 -0.4538
14825TIP3    H265891   5.292   3.754  14.984 -2.2222  2.8672 -0.8368
14826TIP3   OH265892   5.918   0.456  11.627  0.8403 -0.6702 -0.2155
14826TIP3    H165893   5.921   0.420  11.539 -0.2686 -0.0576 -0.5312
14826TIP3    H265894   5.826   0.448  11.653  0.9054  0.2994  0.3887
14827TIP3   OH265895   0.516   6.378   2.097 -0.3788  0.0106 -0.6024
14827TIP3    H165896   0.499   6.471   2.109 -1.1680 -0.1533 -0.3460
14827TIP3    H265897   0.562   6.372   2.014 -1.3967  0.5223 -1.2211
14828TIP3   OH265898   5.327   4.011  12.163  0.2747  0.1553 -0.2199
14828TIP3    H165899   5.314   4.105  12.166 -2.9415 -0.1588  0.0106
14828TIP3    H265900   5.361   3.988  12.249 -1.9878  0.8615  0.9383
14829TIP3   OH265901   3.995   2.110  16.830  0.3392 -0.2707 -0.6816
14829TIP3    H165902   4.070   2.162  16.859 -0.4679  1.5942 -1.7522
14829TIP3    H265903   3.953   2.164  16.763 -2.7013 -0.6366  0.7496
14830TIP3   OH265904   4.375   2.963   0.613  0.4547  0.6435 -0.5524
14830TIP3    H165905   4.400   2.901   0.545 -0.4807  1.0052 -1.2571
14830TIP3    H265906   4.286   2.991   0.588 -0.7490 -0.6888  1.8465
14831TIP3   OH265907   2.613   6.628   1.902  0.6288 -0.0776 -0.0151
14831TIP3    H165908   2.569   6.712   1.914  1.7675  0.7152 -1.0249
14831TIP3    H265909   2.580   6.595   1.819  1.1273  0.0141 -0.2567
14832TIP3   OH265910   4.661   4.469   3.650  0.3928  0.2441  0.1140
14832TIP3    H165911   4.658   4.373   3.652  1.1292  0.2092  1.8750
14832TIP3    H265912   4.686   4.491   3.561  0.2737 -1.1985 -0.3041
14833TIP3   OH265913   2.787   1.599   1.369 -0.1357  0.2491  0.2045
14833TIP3    H165914   2.774   1.643   1.285  2.2187  0.1916 -0.2551
14833TIP3    H265915   2.793   1.506   1.348  1.5836  0.3217  0.2297
14834TIP3   OH265916   0.114   0.921  16.259  0.5051 -0.3131  0.0465
14834TIP3    H165917   0.025   0.885  16.267 -0.5235  2.0050 -0.2554
14834TIP3    H265918   0.134   0.951  16.348  1.1504 -1.1085  0.1818
14835TIP3   OH265919   6.667   1.433  12.983 -0.5818  0.0114 -0.2364
14835TIP3    H165920   6.698   1.349  12.949 -0.7459 -0.3198  0.4081
14835TIP3    H265921   6.591   1.454  12.929 -1.2561 -0.8455  0.3231
14836TIP3   OH265922   5.753   3.853   4.314 -0.2504 -0.3803  0.3577
14836TIP3    H165923   5.664   3.845   4.347 -1.1458 -0.5486 -1.8663
14836TIP3    H265924   5.741   3.874   4.221  2.0436 -0.2869  0.0345
14837TIP3   OH265925   0.277   0.731   5.720  0.3474  0.4631 -0.3077
14837TIP3    H165926   0.195   0.776   5.699  0.7682  2.2807  1.5961
14837TIP3    H265927   0.340   0.765   5.656 -0.1391 -0.1505 -1.1198
14838TIP3   OH265928   4.336   1.348  13.396  0.2386 -0.9221  0.7290
14838TIP3    H165929   4.426   1.355  13.427  1.0441  0.7825 -1.7068
14838TIP3    H265930   4.296   1.431  13.419 -0.0937 -0.8784  0.0211
14839TIP3   OH265931   5.270   1.472   4.070 -0.1517 -0.0015 -0.1010
14839TIP3    H165932   5.282   1.555   4.115  0.4812 -0.7877  1.2382
14839TIP3    H265933   5.203   1.426   4.121  0.2848 -0.7531 -0.1966
14840TIP3   OH265934   0.783   4.651   3.198  0.7945 -0.2358 -0.3269
14840TIP3    H165935   0.824   4.575   3.156  0.2634 -1.1905  0.8051
14840TIP3    H265936   0.778   4.717   3.129  0.9993 -1.3289 -1.4297
14841TIP3   OH265937   5.910   4.768   2.798 -0.3607  0.5776  0.5277
14841TIP3    H165938   5.919   4.819   2.717 -2.5836 -0.1150 -0.2424
14841TIP3    H265939   5.824   4.793   2.832 -1.0234 -1.7432  0.7431
14842TIP3   OH265940   3.792   4.469  15.654  0.1975  0.1617  0.4238
14842TIP3    H165941   3.811   4.501  15.566 -0.4375  2.0547  0.9126
14842TIP3    H265942   3.849   4.521  15.711  1.8194 -2.1770  1.0738
14843TIP3   OH265943   0.741   4.110   4.150 -0.7388  0.4432 -0.5845
14843TIP3    H165944   0.670   4.047   4.141  0.1136 -0.6694  0.1998
14843TIP3    H265945   0.774   4.123   4.061 -1.0661 -0.0449 -0.7748
14844TIP3   OH265946   1.349   5.905   0.980 -0.4677 -0.0217  0.3767
14844TIP3    H165947   1.336   5.814   1.004 -0.5873  0.3844  1.9378
14844TIP3    H265948   1.262   5.944   0.981 -0.3413  0.2704  0.3685
14845TIP3   OH265949   0.638   2.841  16.689 -0.2016 -0.0766 -0.1364
14845TIP3    H165950   0.642   2.931  16.657 -2.3545  0.0080 -0.3320
14845TIP3    H265951   0.699   2.839  16.763  1.1040  1.0730 -1.1298
14846TIP3   OH265952   0.293   3.746   4.294 -0.7825  0.0626  0.6430
14846TIP3    H165953   0.288   3.805   4.369 -0.2071 -0.4080  1.0578
14846TIP3    H265954   0.272   3.660   4.330  0.7390 -0.3734  0.5274
14847TIP3   OH265955   3.805   0.854   5.461  0.4163 -0.3111 -0.1083
14847TIP3    H165956   3.759   0.792   5.405 -0.8377 -0.1691  0.7260
14847TIP3    H265957   3.892   0.862   5.421 -0.0748 -1.0249 -1.3983
14848TIP3   OH265958   0.270   0.368  16.947 -0.3899 -0.4382 -0.1278
14848TIP3    H165959   0.218   0.368  17.027  1.0187  0.0700  0.8164
14848TIP3    H265960   0.293   0.276  16.932  1.1864 -0.3156  1.3159
14849TIP3   OH265961   3.314   0.267  15.296  0.3373  0.4440  0.1957
14849TIP3    H165962   3.288   0.304  15.211  3.5782  2.4898 -0.0853
14849TIP3    H265963   3.325   0.344  15.353  1.3543 -0.6398  1.5061
14850TIP3   OH265964   4.670   6.250   1.785 -0.1369  0.2402  0.2117
14850TIP3    H165965   4.733   6.295   1.841 -0.4342  1.1850 -0.1885
14850TIP3    H265966   4.597   6.228   1.843 -1.3248  2.9231 -0.0856
14851TIP3   OH265967   0.843   0.172  11.315  0.1126  0.2638 -0.1681
14851TIP3    H165968   0.937   0.158  11.303  0.5101 -0.9341  3.1258
14851TIP3    H265969   0.837   0.258  11.356  0.2146 -0.8488  2.4144
14852TIP3   OH265970   0.579   1.317   4.400 -0.6452  0.1835 -0.0673
14852TIP3    H165971   0.563   1.233   4.444 -0.8747 -0.0498 -0.5996
14852TIP3    H265972   0.602   1.293   4.310  1.2862  0.5695  0.2781
14853TIP3   OH265973   3.025   0.831  11.623  0.5098  0.6188  0.1349
14853TIP3    H165974   3.016   0.737  11.638 -1.6032  0.7318 -0.0247
14853TIP3    H265975   3.056   0.839  11.533  0.6592  0.0802  0.1360
14854TIP3   OH265976   3.562   3.464   1.145 -0.1687 -0.4934 -0.0731
14854TIP3    H165977   3.554   3.368   1.146  3.6018 -0.9861 -0.4641
14854TIP3    H265978   3.509   3.494   1.218 -1.2905 -2.9053  0.1859
14855TIP3   OH265979   3.902   6.495  13.810 -0.8912  0.7203 -0.2152
14855TIP3    H165980   3.918   6.578  13.855  0.2324 -0.4841  1.7703
14855TIP3    H265981   3.922   6.428  13.876  0.8740 -1.2021 -2.5241
14856TIP3   OH265982   4.282   1.886  11.349 -0.3810 -0.0799 -0.0457
14856TIP3    H165983   4.275   1.794  11.325  1.5873  0.0803 -1.5085
14856TIP3    H265984   4.224   1.932  11.287 -2.1736 -0.3611  1.3497
14857TIP3   OH265985   6.061   1.874  12.131 -0.1766 -0.0272  0.1475
14857TIP3    H165986   6.002   1.945  12.105  0.6538  0.2045 -1.1943
14857TIP3    H265987   6.051   1.808  12.062 -2.3171 -2.1153  2.2982
14858TIP3   OH265988   1.421   2.646  15.950  0.3901  0.4066  0.5482
14858TIP3    H165989   1.514   2.625  15.953  0.3734 -0.5898 -2.5197
14858TIP3    H265990   1.413   2.710  15.879 -1.2295  0.5657  0.8422
14859TIP3   OH265991   5.104   0.821   3.114 -0.0820  0.4944 -0.2057
14859TIP3    H165992   5.102   0.727   3.134  0.3932  0.5859  0.2590
14859TIP3    H265993   5.100   0.824   3.018 -0.3935  0.0079 -0.2122
14860TIP3   OH265994   1.156   3.985   5.011  0.1133 -0.2983 -0.0022
14860TIP3    H165995   1.146   4.037   4.931  0.8370 -0.6454 -0.3271
14860TIP3    H265996   1.245   3.951   5.007 -0.6917 -2.5237 -0.3723
14861TIP3   OH265997   1.326   1.940  12.755  0.4288  0.0493  0.5857
14861TIP3    H165998   1.259   1.920  12.691 -0.7854  0.6362  1.6395
14861TIP3    H265999   1.402   1.889  12.727 -0.7114 -1.3099 -0.1476
14862TIP3   OH266000   3.985   0.764  16.834 -0.3823 -0.3437 -0.3389
14862TIP3    H166001   3.948   0.846  16.803  1.5689  1.3032  1.3888
14862TIP3    H266002   3.919   0.728  16.892 -1.3750 -0.1764 -1.3287
14863TIP3   OH266003   3.742   0.212   5.785  0.2739 -0.2505 -0.6788
14863TIP3    H166004   3.701   0.224   5.699  2.1756 -1.0067 -1.7682
14863TIP3    H266005   3.778   0.298   5.807  0.2161 -0.1693 -0.9002
14864TIP3   OH266006   4.388   0.209  10.758 -0.6879  0.2067  0.5746
14864TIP3    H166007   4.405   0.253  10.675  0.7593 -0.6762  0.3815
14864TIP3    H266008   4.365   0.119  10.734  1.1079 -0.4466  1.1502
14865TIP3   OH266009   6.564   5.006  11.014 -0.5426  1.0711 -0.2417
14865TIP3    H166010   6.480   4.976  10.978 -0.8342  0.0781  1.1702
14865TIP3    H266011   6.567   5.099  10.991 -1.7479  0.9939 -0.8456
14866TIP3   OH266012   0.984   4.053   0.040 -0.0069  0.0536 -0.4931
14866TIP3    H166013   1.045   4.063   0.113  0.0224 -2.0426 -0.1676
14866TIP3    H266014   1.012   4.118  -0.024  1.0255  0.7830  0.6602
14867TIP3   OH266015   1.373   3.045  11.378 -0.3908 -0.1947  0.2139
14867TIP3    H166016   1.460   3.076  11.355 -0.2443 -0.0452  0.9657
14867TIP3    H266017   1.387   2.964  11.428 -0.7335 -0.8805 -0.7634
14868TIP3   OH266018   2.417   0.610  15.559 -0.0269  0.3037  0.4715
14868TIP3    H166019   2.435   0.594  15.466 -0.5800  1.3786  0.1699
14868TIP3    H266020   2.433   0.525  15.600  1.4606  0.1276 -0.4061
14869TIP3   OH266021   1.732   5.130  13.246  0.1124 -0.9656  0.1646
14869TIP3    H166022   1.819   5.089  13.245  0.1141 -0.9781 -1.3579
14869TIP3    H266023   1.732   5.187  13.170 -0.2764  1.1416  1.6759
14870TIP3   OH266024   5.376   1.248  16.746 -0.1492  0.0800  0.0399
14870TIP3    H166025   5.395   1.203  16.829 -0.9317 -0.4482 -0.0643
14870TIP3    H266026   5.441   1.213  16.685  0.9542  1.0510  0.5991
14871TIP3   OH266027   2.309   1.846   4.723 -0.8690 -0.1574 -0.4684
14871TIP3    H166028   2.267   1.931   4.712  0.3188  0.5399  0.1769
14871TIP3    H266029   2.329   1.842   4.817  0.2684 -0.5613 -0.7153
14872TIP3   OH266030   2.926   0.217  15.749  0.1213  0.1309  0.0401
14872TIP3    H166031   3.001   0.158  15.740  0.5008  0.3442  1.6453
14872TIP3    H266032   2.853   0.168  15.711  0.3939 -1.4672  1.4604
14873TIP3   OH266033   2.655   3.523  15.997  0.3923  1.0524 -0.6300
14873TIP3    H166034   2.654   3.533  16.092  1.3175  2.2437 -0.7199
14873TIP3    H266035   2.635   3.431  15.982  1.2586  0.6144  0.7584
14874TIP3   OH266036   0.355   6.724  13.112 -0.3764  0.2431  0.7272
14874TIP3    H166037   0.355   6.670  13.032  0.1043  0.6660  0.4370
14874TIP3    H266038   0.330   6.811  13.081 -0.8805  0.2574  1.1533
14875TIP3   OH266039   1.417   0.518  13.717 -0.3623 -0.0266 -0.2728
14875TIP3    H166040   1.398   0.487  13.628  1.1399 -0.6978 -0.4012
14875TIP3    H266041   1.380   0.451  13.774 -1.1098  0.2777 -0.3927
14876TIP3   OH266042   6.203   4.133  16.897  0.2257 -0.2507  0.0314
14876TIP3    H166043   6.182   4.201  16.833 -1.2432 -0.2119  0.5100
14876TIP3    H266044   6.259   4.177  16.962  0.7533  0.0169 -0.5983
14877TIP3   OH266045   6.754   4.144   6.104 -0.0880 -0.1056  0.3100
14877TIP3    H166046   6.720   4.133   6.015  0.7015 -1.6910  0.1778
14877TIP3    H266047   6.677   4.135   6.160 -0.2108 -1.9089 -0.0884
14878TIP3   OH266048   6.216   6.109   4.146 -0.8388 -0.1011 -0.6478
14878TIP3    H166049   6.201   6.018   4.170  1.1046 -0.6203 -1.1727
14878TIP3    H266050   6.257   6.105   4.059 -1.6827  1.3410 -1.1557
14879TIP3   OH266051   4.788   1.570   2.119 -0.2454 -0.1455 -0.3431
14879TIP3    H166052   4.863   1.571   2.059  0.1021 -0.3593  0.0863
14879TIP3    H266053   4.751   1.658   2.110  0.8485  0.4181  0.4235
14880TIP3   OH266054   1.883   3.541   3.858 -0.2201  0.1865 -1.0472
14880TIP3    H166055   1.962   3.498   3.890 -1.8375 -1.6491  0.7847
14880TIP3    H266056   1.901   3.635   3.866  1.0300 -0.1874  1.3697
14881TIP3   OH266057   0.472   6.730   1.187  0.0782  0.2353  0.4631
14881TIP3    H166058   0.503   6.673   1.117 -0.3167  1.2694 -0.5829
14881TIP3    H266059   0.413   6.675   1.238 -0.7054 -0.1600 -0.8282
14882TIP3   OH266060   6.618   0.077  15.673 -0.6053  0.3066 -0.1363
14882TIP3    H166061   6.547   0.089  15.737 -0.1303  0.1915  0.4155
14882TIP3    H266062   6.659   0.164  15.667  0.5694 -0.1215  1.1772
14883TIP3   OH266063   1.201   0.954  14.704 -0.6935  0.0133 -0.0069
14883TIP3    H166064   1.160   0.937  14.789  1.7203 -0.1020  1.2142
14883TIP3    H266065   1.272   1.015  14.723  2.2572 -2.7184 -1.2182
14884TIP3   OH266066   1.414   1.013   4.724 -0.1423 -0.2045 -0.5423
14884TIP3    H166067   1.484   0.950   4.742  0.7829  1.4360  2.2231
14884TIP3    H266068   1.333   0.963   4.734  0.5195 -0.8146  2.9292
14885TIP3   OH266069   0.478   0.451  15.361  0.1117 -0.0093 -0.1011
14885TIP3    H166070   0.530   0.530  15.376 -0.2869  0.1903  0.2579
14885TIP3    H266071   0.531   0.398  15.301  0.9432 -0.0168  0.6089
14886TIP3   OH266072   1.733   2.810   5.628 -0.3727  0.0634  0.6924
14886TIP3    H166073   1.809   2.866   5.614 -1.2067  0.6254 -1.9872
14886TIP3    H266074   1.755   2.728   5.584 -1.8825  0.7882 -1.5461
14887TIP3   OH266075   0.412   4.535  15.815 -0.3854  0.5453 -0.3565
14887TIP3    H166076   0.438   4.447  15.841  1.1403  0.0602 -3.0708
14887TIP3    H266077   0.329   4.523  15.768  0.0166  0.4675 -1.0611
14888TIP3   OH266078   2.598   0.530   0.889 -0.6320  0.8329 -0.1384
14888TIP3    H166079   2.536   0.516   0.961 -0.0319  2.3653  0.7272
14888TIP3    H266080   2.543   0.555   0.815 -1.3626 -1.8385 -0.6088
14889TIP3   OH266081   0.471   1.682  15.698  0.3936  0.3348  0.4239
14889TIP3    H166082   0.441   1.617  15.761  0.1951  0.5047  0.5104
14889TIP3    H266083   0.435   1.653  15.614  1.3717 -0.3507  0.2358
14890TIP3   OH266084   4.598   5.849   5.970 -0.4309  0.8246  0.1748
14890TIP3    H166085   4.640   5.857   6.055  0.2314  2.4291 -0.2658
14890TIP3    H266086   4.560   5.761   5.970  1.3320  0.0146  1.3065
14891TIP3   OH266087   1.570   5.241  14.417 -0.0067 -0.4659  1.0734
14891TIP3    H166088   1.538   5.151  14.425 -1.8557 -0.2958 -2.4239
14891TIP3    H266089   1.643   5.234  14.355 -2.3163  0.6520 -2.0066
14892TIP3   OH266090   5.702   0.383   4.682 -0.1388  0.1629  0.4092
14892TIP3    H166091   5.729   0.465   4.723 -0.0724 -0.0540  0.8063
14892TIP3    H266092   5.609   0.395   4.663  0.2469  0.9881 -1.1480
14893TIP3   OH266093   5.690   3.033   3.542 -0.9710  0.0425  0.4763
14893TIP3    H166094   5.645   3.052   3.624  0.3867  0.4046  1.1681
14893TIP3    H266095   5.683   2.938   3.532 -0.0314 -0.1789  1.7015
14894TIP3   OH266096   3.947   1.320   4.111  0.1089 -0.3572 -0.3821
14894TIP3    H166097   3.967   1.412   4.094 -0.0193 -0.2040  0.2616
14894TIP3    H266098   3.898   1.321   4.193 -2.2804 -0.7434 -1.7230
14895TIP3   OH266099   6.490   2.469  15.849 -0.0896 -0.1708  0.1754
14895TIP3    H166100   6.433   2.416  15.905  1.1254  0.0387  1.6728
14895TIP3    H266101   6.564   2.492  15.905 -0.0112  2.1530 -0.7742
14896TIP3   OH266102   3.033   2.432   3.385  0.0436  0.5171  0.1053
14896TIP3    H166103   3.124   2.420   3.410 -0.3742 -1.3682  0.8264
14896TIP3    H266104   3.034   2.511   3.330  2.1191  0.4152 -0.0768
14897TIP3   OH266105   5.419   0.550  15.259 -0.3848  0.5114 -0.7183
14897TIP3    H166106   5.336   0.569  15.216 -0.6113 -1.5599 -1.2860
14897TIP3    H266107   5.452   0.472  15.215 -0.9919 -2.2476  3.2181
14898TIP3   OH266108   4.309   2.321   4.892 -0.1141 -0.2170 -0.3700
14898TIP3    H166109   4.225   2.293   4.929 -0.2675  0.3634 -0.2571
14898TIP3    H266110   4.366   2.244   4.900 -0.6370 -0.6179 -0.4600
14899TIP3   OH266111   6.550   0.967  12.862  0.0480  0.7077  0.0163
14899TIP3    H166112   6.587   0.880  12.849 -1.6517  0.1728 -1.8279
14899TIP3    H266113   6.534   0.973  12.956 -2.6898 -2.3488 -0.0785
14900TIP3   OH266114   4.377   6.553   2.035 -0.5923  0.7024 -0.7591
14900TIP3    H166115   4.451   6.605   2.063  2.3572 -3.1086 -0.6447
14900TIP3    H266116   4.362   6.578   1.944  1.6706  0.7784 -1.1496
14901TIP3   OH266117   0.539   5.503  13.610  0.0534  0.0666  0.4724
14901TIP3    H166118   0.501   5.565  13.548  0.5998 -1.0445 -1.0516
14901TIP3    H266119   0.631   5.529  13.616 -0.0598  0.3545  1.0862
14902TIP3   OH266120   3.279   6.371  12.950 -0.1965 -0.1588 -0.1462
14902TIP3    H166121   3.277   6.410  13.038  0.8791  1.5072 -0.8085
14902TIP3    H266122   3.210   6.416  12.902 -0.8226 -1.1112 -0.1772
14903TIP3   OH266123   2.854   3.412   1.348 -0.3141 -0.4322  0.9080
14903TIP3    H166124   2.817   3.394   1.435  0.3470 -3.1957  0.6833
14903TIP3    H266125   2.919   3.343   1.334  1.0290  1.1091 -0.9945
14904TIP3   OH266126   5.208   6.403   3.162  0.7019  0.0039 -0.2125
14904TIP3    H166127   5.153   6.340   3.116  0.3748 -0.6128  0.9937
14904TIP3    H266128   5.296   6.387   3.128  0.4439 -0.3360 -0.7281
14905TIP3   OH266129   2.393   5.264  12.871  0.9440  0.0898  0.6759
14905TIP3    H166130   2.433   5.224  12.794  0.3765  0.7501  0.0292
14905TIP3    H266131   2.467   5.285  12.928  1.3530 -0.5590  0.3940
14906TIP3   OH266132   5.935   2.500  10.963 -0.2613 -0.5974 -1.0053
14906TIP3    H166133   6.010   2.452  10.999 -0.4640 -0.5665 -0.5347
14906TIP3    H266134   5.869   2.432  10.945 -0.5940 -0.4883 -0.2244
14907TIP3   OH266135   6.634   6.695  11.844 -0.0791  0.0403  0.6809
14907TIP3    H166136   6.595   6.770  11.889  0.6358  1.8045 -1.4913
14907TIP3    H266137   6.584   6.687  11.762  0.7107 -1.0307  0.2812
14908TIP3   OH266138   4.729   1.838  16.926 -0.0902  0.7158  0.0503
14908TIP3    H166139   4.742   1.758  16.875  0.1257 -0.6403  2.1206
14908TIP3    H266140   4.655   1.881  16.884  1.1447  0.5725 -2.4230
14909TIP3   OH266141   3.750   3.970   2.557  0.6926  0.3777 -0.0400
14909TIP3    H166142   3.814   4.037   2.531  1.6932  0.2689  1.9595
14909TIP3    H266143   3.796   3.918   2.623 -0.4526 -1.6292 -0.7732
14910TIP3   OH266144   3.899   4.763   4.682 -0.4889  0.0498 -0.2521
14910TIP3    H166145   3.849   4.704   4.626 -1.2048  0.6243 -0.2278
14910TIP3    H266146   3.977   4.785   4.630 -0.7216 -0.1061 -0.6691
14911TIP3   OH266147   3.002   0.582  11.801 -0.4850  0.4204  0.5764
14911TIP3    H166148   2.918   0.542  11.826  0.3173 -1.2851  0.6707
14911TIP3    H266149   3.030   0.628  11.880 -1.0867  0.5887  0.7018
14912TIP3   OH266150   1.829   5.746  13.964  0.4385  0.2973  0.1778
14912TIP3    H166151   1.792   5.711  14.044  1.9406 -2.5239 -0.2314
14912TIP3    H266152   1.920   5.717  13.964  0.5021  0.1705 -2.5281
14913TIP3   OH266153   3.218   3.731  16.308 -0.0301  0.3983  0.1397
14913TIP3    H166154   3.301   3.749  16.351 -0.5723  0.1543  1.3550
14913TIP3    H266155   3.241   3.689  16.225  1.0564  0.8113  0.2292
14914TIP3   OH266156   2.764   2.005   0.516 -0.1681  0.1775  0.0253
14914TIP3    H166157   2.830   1.936   0.514 -1.4153 -1.0292 -0.8483
14914TIP3    H266158   2.761   2.033   0.608 -0.0040 -1.3075  0.5130
14915TIP3   OH266159   3.273   3.178  16.821 -0.4683 -0.0032  0.3946
14915TIP3    H166160   3.199   3.234  16.843 -0.6019  0.3726 -0.9735
14915TIP3    H266161   3.235   3.090  16.814 -1.0513  0.3683 -1.5317
14916TIP3   OH266162   3.267   0.691  14.913 -0.2995  0.4686  0.4573
14916TIP3    H166163   3.199   0.708  14.849  0.6856 -0.4080 -0.8666
14916TIP3    H266164   3.310   0.776  14.926  0.8721  0.2644 -1.7142
14917TIP3   OH266165   1.265   5.883   1.808  0.3483  0.1042 -0.3296
14917TIP3    H166166   1.330   5.814   1.793 -0.3985 -0.7300  0.2149
14917TIP3    H266167   1.181   5.839   1.798 -0.1724  0.4341  2.1274
14918TIP3   OH266168   4.084   2.305  12.266 -0.6222  0.4292  0.2630
14918TIP3    H166169   4.079   2.364  12.190 -0.6211 -0.2705 -0.2867
14918TIP3    H266170   4.155   2.245  12.245  0.1269  0.9043  1.3203
14919TIP3   OH266171   4.346   1.318   1.457  0.0247 -0.1655 -0.2479
14919TIP3    H166172   4.359   1.296   1.364  0.6125  0.7997 -0.4094
14919TIP3    H266173   4.405   1.258   1.503 -0.5500 -0.9113 -0.4608
14920TIP3   OH266174   5.225   2.140   5.715 -0.3221 -0.2837  0.5745
14920TIP3    H166175   5.131   2.161   5.723 -0.3047  0.0285  0.0531
14920TIP3    H266176   5.264   2.221   5.682  0.3040 -0.0888  1.7360
14921TIP3   OH266177   6.298   1.017  14.001  0.3490 -0.0228  0.2177
14921TIP3    H166178   6.204   1.026  14.016 -0.0498 -0.1875 -1.9507
14921TIP3    H266179   6.326   1.105  13.975  0.7928 -0.0034  0.7465
14922TIP3   OH266180   4.645   6.281  15.844 -0.2053  0.0153 -0.0974
14922TIP3    H166181   4.633   6.372  15.873  0.2439  0.0933 -0.1620
14922TIP3    H266182   4.723   6.283  15.789 -0.0400 -0.4561  0.1168
14923TIP3   OH266183   2.888   0.084  12.030 -0.3300  0.0115 -0.7062
14923TIP3    H166184   2.799   0.090  11.996  0.1194 -1.1410 -2.1643
14923TIP3    H266185   2.877   0.055  12.121 -1.4009 -1.1951 -1.1964
14924TIP3   OH266186   1.147   3.629  13.718 -0.1100 -0.3178 -0.3844
14924TIP3    H166187   1.171   3.617  13.626 -0.0303 -0.7576 -0.3110
14924TIP3    H266188   1.231   3.628  13.764 -0.1367  0.0871 -0.3254
14925TIP3   OH266189   1.466   2.390   2.262 -0.3351  0.1822 -0.0279
14925TIP3    H166190   1.553   2.422   2.239 -0.7510  0.6254 -1.0533
14925TIP3    H266191   1.448   2.319   2.200 -1.2263  0.9844 -0.7319
14926TIP3   OH266192   0.451   3.251   3.988  0.4119  0.1202 -0.2406
14926TIP3    H166193   0.364   3.211   3.986  0.9581 -1.1811  0.2979
14926TIP3    H266194   0.455   3.307   3.911 -0.8456  0.0749 -0.3478
14927TIP3   OH266195   4.646   0.020   0.686 -0.8916 -0.1072 -0.7874
14927TIP3    H166196   4.673   0.009   0.778 -0.4964  0.5705 -0.8164
14927TIP3    H266197   4.667  -0.064   0.645  1.4544  0.4352 -0.8654
14928TIP3   OH266198   5.091   3.765  11.422  1.1146  0.0466 -0.0944
14928TIP3    H166199   5.092   3.703  11.495 -1.6868 -0.2344 -0.1755
14928TIP3    H266200   5.055   3.716  11.348  1.5338  1.0084 -0.9665
14929TIP3   OH266201   5.666   0.140   1.540 -0.3305 -0.0552 -0.3258
14929TIP3    H166202   5.730   0.091   1.489 -0.7522 -1.9352  0.8055
14929TIP3    H266203   5.669   0.229   1.505  1.6572 -0.4896 -1.4201
14930TIP3   OH266204   5.769   1.213  17.132 -0.3194  0.5417  0.1434
14930TIP3    H166205   5.772   1.282  17.199 -1.2229  1.8995 -1.1319
14930TIP3    H266206   5.781   1.132  17.181 -1.1638  1.4453  1.9831
14931TIP3   OH266207   3.160   3.707  11.255  0.1757 -0.0085 -0.4119
14931TIP3    H166208   3.112   3.626  11.238  2.3785 -1.6929  0.7754
14931TIP3    H266209   3.181   3.741  11.168 -0.6428 -0.8017 -0.9392
14932TIP3   OH266210   2.826   6.000   1.339  0.2250 -0.4596 -0.2731
14932TIP3    H166211   2.847   6.055   1.415  0.8179 -0.0638 -0.7080
14932TIP3    H266212   2.874   6.041   1.266 -0.8938 -0.4257 -1.0072
14933TIP3   OH266213   1.267   2.908  16.657 -0.0187 -0.1163  0.0348
14933TIP3    H166214   1.237   2.833  16.709 -1.4714  0.5108  0.1659
14933TIP3    H266215   1.296   2.869  16.574  0.5473 -0.9484  0.6123
14934TIP3   OH266216   5.923   2.348   5.084  0.3100 -0.2935 -0.2804
14934TIP3    H166217   5.874   2.354   5.166  1.5090 -1.7276  0.5918
14934TIP3    H266218   5.978   2.427   5.082 -0.4497  0.2407 -0.2123
14935TIP3   OH266219   4.146   4.537  14.730 -0.3916  0.3580  0.0616
14935TIP3    H166220   4.144   4.446  14.760  0.9898  0.5064  0.6772
14935TIP3    H266221   4.054   4.563  14.725 -0.9146 -1.5385 -1.6240
14936TIP3   OH266222   3.155   3.998   6.951 -0.3178 -0.4354  0.8103
14936TIP3    H166223   3.245   3.978   6.977 -0.5386 -0.6996  1.4105
14936TIP3    H266224   3.142   3.952   6.868 -0.1751 -1.1346  1.1687
14937TIP3   OH266225   4.759   4.162  14.735 -0.2039  0.1782 -0.6824
14937TIP3    H166226   4.729   4.072  14.727 -2.1317  0.5793  1.1375
14937TIP3    H266227   4.762   4.178  14.830  0.3077  1.9664 -0.9624
14938TIP3   OH266228   4.582   4.446  16.972 -0.5377 -0.2927  0.1595
14938TIP3    H166229   4.626   4.460  17.055  1.0320  1.1405 -0.8514
14938TIP3    H266230   4.646   4.400  16.918 -0.7553  0.5807 -0.8952
14939TIP3   OH266231   1.610   6.636   2.162 -0.0965 -0.0248  0.5523
14939TIP3    H166232   1.565   6.596   2.236 -0.3287 -0.8842 -0.0377
14939TIP3    H266233   1.560   6.716   2.143  0.6943  0.8878  2.0903
14940TIP3   OH266234   2.730   2.495   3.982  0.1970 -0.2724 -0.1442
14940TIP3    H166235   2.801   2.530   4.036  0.5329  0.1937 -0.8724
14940TIP3    H266236   2.655   2.551   4.002 -0.0397 -0.8774  0.7630
14941TIP3   OH266237   1.280   0.719  11.949  0.0841  0.6815  0.1925
14941TIP3    H166238   1.373   0.740  11.943 -0.1649  1.9910  0.6632
14941TIP3    H266239   1.237   0.778  11.888 -0.4454  0.0678 -0.0437
14942TIP3   OH266240   1.845   0.002   0.128 -0.1784 -0.0381 -0.3598
14942TIP3    H166241   1.750   0.005   0.139 -0.1733  1.6241 -0.5642
14942TIP3    H266242   1.880   0.038   0.209  0.2053  1.2778 -1.0900
14943TIP3   OH266243   3.044   0.305   0.917 -0.1862  0.2021 -0.7237
14943TIP3    H166244   2.968   0.320   0.859 -0.0045  0.0864 -0.9947
14943TIP3    H266245   3.063   0.392   0.953 -1.5940 -0.0857  0.7968
14944TIP3   OH266246   4.988   0.355   4.536  0.4945 -0.3488 -0.4616
14944TIP3    H166247   4.933   0.384   4.608  0.8939  1.4981 -0.8413
14944TIP3    H266248   5.068   0.323   4.577  1.4061  2.2249 -0.0689
14945TIP3   OH266249   1.513   5.974  12.206  0.5343  0.1512 -0.0223
14945TIP3    H166250   1.541   5.942  12.292 -0.0170  2.3703  1.0579
14945TIP3    H266251   1.419   5.956  12.203  0.6602 -0.4540 -0.4220
14946TIP3   OH266252   2.493   1.474   1.999  0.1696 -0.4811 -0.5164
14946TIP3    H166253   2.503   1.466   1.904 -1.3620 -0.7914 -0.6748
14946TIP3    H266254   2.405   1.508   2.011 -0.1689 -1.7208  0.8327
14947TIP3   OH266255   6.133   4.845   5.700  0.3428  0.8799 -0.2358
14947TIP3    H166256   6.060   4.825   5.759 -0.9890  3.1408 -0.9657
14947TIP3    H266257   6.159   4.760   5.664 -2.8610  0.0604 -0.9572
14948TIP3   OH266258   2.335   4.585   3.973 -0.4686  0.3452  0.1799
14948TIP3    H166259   2.320   4.504   4.022  0.0127  0.2070  0.0998
14948TIP3    H266260   2.247   4.622   3.961 -0.7654 -0.5264 -0.4072
14949TIP3   OH266261   2.147   6.612  16.001  0.1584 -0.4789  0.4937
14949TIP3    H166262   2.194   6.686  16.041 -0.3308 -0.3177  0.7810
14949TIP3    H266263   2.133   6.551  16.073  0.5391 -0.8397  0.2603
14950TIP3   OH266264   1.353   1.778   3.158  0.0290 -0.2066 -0.3161
14950TIP3    H166265   1.284   1.714   3.170  0.2387 -0.4416 -0.3648
14950TIP3    H266266   1.308   1.863   3.161  0.1181 -0.1237  3.0902
14951TIP3   OH266267   0.529   6.517  13.548 -0.3065  0.1238 -0.6041
14951TIP3    H166268   0.513   6.430  13.513 -0.2232  0.1835 -0.7896
14951TIP3    H266269   0.452   6.536  13.601 -0.4722  0.0726 -0.8284
14952TIP3   OH266270   3.734   3.643   0.731  0.5646 -0.8066  0.1406
14952TIP3    H166271   3.782   3.643   0.648 -0.2576  1.6145 -0.4327
14952TIP3    H266272   3.738   3.734   0.760  0.3770 -1.4953  2.5197
14953TIP3   OH266273   6.772   5.948  12.171 -0.8911 -0.0611  0.3592
14953TIP3    H166274   6.849   5.954  12.114  0.0492  0.3496  1.6370
14953TIP3    H266275   6.713   5.889  12.124 -0.0708  0.1016 -0.9441
14954TIP3   OH266276   1.999   3.954   0.762 -0.5627 -0.1282 -0.1703
14954TIP3    H166277   2.024   4.044   0.739  0.2043 -0.4147 -0.5208
14954TIP3    H266278   1.909   3.945   0.731 -0.8058  0.6601  0.2811
14955TIP3   OH266279   2.162   4.605  16.690 -0.3834 -0.0225  0.3879
14955TIP3    H166280   2.160   4.623  16.596 -1.5028 -0.9358  0.2252
14955TIP3    H266281   2.199   4.517  16.697  1.4025  0.7209  0.9409
14956TIP3   OH266282   3.037   1.845   0.842 -0.2338 -0.8007  0.0924
14956TIP3    H166283   3.058   1.758   0.808 -1.0492 -0.4627 -1.3652
14956TIP3    H266284   3.115   1.898   0.823 -0.3574 -0.8254 -0.5064
14957TIP3   OH266285   3.270   2.541   0.169  0.1588  0.1047 -0.1972
14957TIP3    H166286   3.203   2.476   0.148  1.0126 -0.9637  0.2449
14957TIP3    H266287   3.348   2.489   0.189  0.8410  1.2722  0.2943
14958TIP3   OH266288   0.623   6.297  14.943 -0.4211 -0.4967  0.3214
14958TIP3    H166289   0.686   6.256  15.003 -0.1129 -1.4882 -0.6365
14958TIP3    H266290   0.541   6.296  14.991 -0.1819 -1.2707  0.7458
14959TIP3   OH266291   1.571   3.800   4.002 -0.0683 -0.0209 -0.0077
14959TIP3    H166292   1.657   3.840   3.994  1.0303 -1.7704  1.9939
14959TIP3    H266293   1.581   3.714   3.963 -1.2830  0.1877 -0.8207
14960TIP3   OH266294   3.471   2.790   2.638 -0.1797 -0.3501  0.3807
14960TIP3    H166295   3.445   2.749   2.555 -2.4293 -1.2890  1.4764
14960TIP3    H266296   3.523   2.723   2.682 -0.5912 -0.5796  0.5237
14961TIP3   OH266297   1.164   5.744  13.251  0.0903  0.2697  0.1665
14961TIP3    H166298   1.215   5.680  13.299  0.5388  0.8789  0.5205
14961TIP3    H266299   1.123   5.695  13.180  2.0718 -0.0443 -0.8373
14962TIP3   OH266300   2.594   3.825  12.304 -0.1442 -0.4750 -0.0632
14962TIP3    H166301   2.685   3.817  12.274 -0.0624 -1.5993  0.4212
14962TIP3    H266302   2.573   3.917  12.294  0.8980 -0.2895 -0.6417
14963TIP3   OH266303   5.857   2.921  13.238  0.0630  0.5504 -0.3884
14963TIP3    H166304   5.817   3.006  13.258  2.3512  1.4787  0.6369
14963TIP3    H266305   5.880   2.885  13.323  1.5709  0.1818 -0.9333
14964TIP3   OH266306   0.443   6.282  12.567 -0.0300  0.3790 -0.3001
14964TIP3    H166307   0.348   6.279  12.557 -0.2533 -2.0721  1.6420
14964TIP3    H266308   0.458   6.255  12.657  2.5969 -1.4320 -1.1674
14965TIP3   OH266309   3.920   4.112  17.178 -0.2667 -0.2851  0.2080
14965TIP3    H166310   3.838   4.111  17.227 -0.2605 -0.0191  0.2270
14965TIP3    H266311   3.892   4.125  17.087 -0.2627 -0.5105  0.1759
14966TIP3   OH266312   0.653   2.331   6.088 -0.1608  0.6906 -0.2067
14966TIP3    H166313   0.688   2.414   6.055 -0.4558  0.7398 -0.4064
14966TIP3    H266314   0.636   2.347   6.181 -0.7742  1.0505 -0.3723
14967TIP3   OH266315   3.756   1.092  13.651  0.4451 -0.3066  0.0854
14967TIP3    H166316   3.843   1.116  13.619  0.3974  1.0103  0.9071
14967TIP3    H266317   3.702   1.091  13.572  0.8938  0.3225 -0.2395
14968TIP3   OH266318   6.751   5.004   6.070  0.6577 -0.2522  0.0003
14968TIP3    H166319   6.786   4.927   6.114 -0.0311 -1.1076 -0.9027
14968TIP3    H266320   6.826   5.062   6.058  0.9540 -0.2008  1.8369
14969TIP3   OH266321   2.039   2.371  13.441 -0.1777  0.2353  0.8624
14969TIP3    H166322   2.132   2.391  13.444 -0.2269  0.3945  1.6306
14969TIP3    H266323   1.996   2.454  13.465 -0.6049  0.6968 -1.2318
14970TIP3   OH266324   1.706   1.552   3.558 -0.4021  0.1633 -0.2020
14970TIP3    H166325   1.792   1.511   3.561  1.0287  2.9155 -0.6537
14970TIP3    H266326   1.721   1.643   3.583 -3.3409  0.5653  0.5119
14971TIP3   OH266327   3.459   5.608   4.325 -0.2761 -0.6999 -0.1136
14971TIP3    H166328   3.480   5.653   4.407 -1.7833 -0.6592  0.2909
14971TIP3    H266329   3.457   5.678   4.260  3.5083 -1.0462 -0.8107
14972TIP3   OH266330   3.570   6.523   0.837 -0.0950  0.3389  0.4938
14972TIP3    H166331   3.549   6.484   0.922 -0.3928 -0.7377 -0.0616
14972TIP3    H266332   3.615   6.605   0.859  0.7922 -0.4309  1.6884
14973TIP3   OH266333   3.176   4.806  16.566 -0.2123  0.2412  0.1606
14973TIP3    H166334   3.139   4.720  16.587 -0.1670  0.1886  0.0217
14973TIP3    H266335   3.255   4.812  16.620 -0.7451  0.6060  0.9270
14974TIP3   OH266336   6.001   1.991   0.216  0.0393 -0.0158  0.4709
14974TIP3    H166337   6.021   1.998   0.309 -2.5755  0.6556  1.0577
14974TIP3    H266338   6.009   1.897   0.197 -2.1554 -0.6455  2.1508
14975TIP3   OH266339   1.559   0.338  15.965  0.6268  0.7614 -0.0484
14975TIP3    H166340   1.650   0.310  15.965  0.7785  1.1325  1.7671
14975TIP3    H266341   1.512   0.266  16.009 -0.0420  0.4096 -1.2736
14976TIP3   OH266342   5.541   1.507   2.447  0.2663  0.7064 -0.3648
14976TIP3    H166343   5.616   1.551   2.487  0.1324  0.2321  0.4250
14976TIP3    H266344   5.484   1.578   2.417  0.0865  1.0913  0.8249
14977TIP3   OH266345   3.621   3.361  16.898 -0.4395 -0.3082  0.0202
14977TIP3    H166346   3.587   3.435  16.949 -0.3341  0.2804 -0.7481
14977TIP3    H266347   3.563   3.356  16.822  0.1198 -0.4243 -0.4060
14978TIP3   OH266348   3.836   3.880   2.795 -0.6087  0.0052 -0.2002
14978TIP3    H166349   3.880   3.942   2.853  0.2954 -0.7445 -0.0669
14978TIP3    H266350   3.850   3.795   2.836 -0.8320 -0.4226 -0.9933
14979TIP3   OH266351   4.092   4.663  16.742  0.6668 -0.5176  0.6801
14979TIP3    H166352   4.076   4.726  16.672 -1.5348 -1.2677  0.4412
14979TIP3    H266353   4.183   4.636  16.730  0.4020 -0.5205 -1.7978
14980TIP3   OH266354   0.526   5.105  11.943 -0.1004 -0.1110 -0.4639
14980TIP3    H166355   0.549   5.136  11.855 -1.2869  1.9936 -0.0914
14980TIP3    H266356   0.437   5.136  11.957  0.4002  0.4580  1.8435
14981TIP3   OH266357   1.316   3.434   3.084 -0.4075  0.2644  0.0407
14981TIP3    H166358   1.410   3.452   3.082 -0.3583  0.3844  1.7092
14981TIP3    H266359   1.289   3.438   2.992  1.3876 -0.7941 -0.6041
14982TIP3   OH266360   4.101   0.574  17.174 -0.1814 -0.3061  0.0788
14982TIP3    H166361   4.182   0.554  17.127 -0.0166  1.8710 -0.6563
14982TIP3    H266362   4.034   0.579  17.106 -0.3459  0.8065  0.2990
14983TIP3   OH266363   0.626   5.948  10.732 -0.2608 -0.2268 -0.2360
14983TIP3    H166364   0.663   5.899  10.658 -0.3372  0.0423 -0.4519
14983TIP3    H266365   0.570   5.884  10.777 -0.4684 -0.2998 -0.5963
14984TIP3   OH266366   0.686   0.317   3.057 -0.4087  0.1337  0.2678
14984TIP3    H166367   0.687   0.233   3.010  1.3563  0.5722 -0.5679
14984TIP3    H266368   0.616   0.308   3.121  0.2347 -2.2889  0.7262
14985TIP3   OH266369   1.971   5.265  15.751  0.4205 -0.5867  0.2352
14985TIP3    H166370   1.894   5.209  15.752  0.0241 -0.0504  1.0408
14985TIP3    H266371   1.979   5.297  15.841 -0.6486  2.3203 -0.5812
14986TIP3   OH266372   4.653   4.360   2.592  0.0918 -0.1960 -0.5068
14986TIP3    H166373   4.698   4.444   2.595 -0.2906  0.0545 -1.4917
14986TIP3    H266374   4.561   4.383   2.576 -0.4203 -0.6949  1.4525
14987TIP3   OH266375   5.988   4.044  15.122  0.2960 -0.2257 -0.1675
14987TIP3    H166376   5.982   3.989  15.200 -2.5031 -0.1559 -0.2151
14987TIP3    H266377   6.046   4.116  15.147  0.9789 -1.2006  1.1692
14988TIP3   OH266378   2.773   5.104   1.012  0.5281  0.2132  0.3428
14988TIP3    H166379   2.770   5.009   1.017 -2.3881  0.0792 -1.6986
14988TIP3    H266380   2.708   5.134   1.075  0.2304  0.7619 -0.2089
14989TIP3   OH266381   4.322   5.772  15.848 -0.2682  0.1417 -0.2365
14989TIP3    H166382   4.341   5.848  15.903 -1.9302  0.8477 -0.5795
14989TIP3    H266383   4.365   5.791  15.765  2.1222 -0.8581  0.6780
14990TIP3   OH266384   6.444   1.984   5.686  0.5151 -0.1127 -0.0582
14990TIP3    H166385   6.536   1.962   5.702  0.8668  2.2868  1.8454
14990TIP3    H266386   6.400   1.963   5.769 -0.5616 -0.6240 -0.7352
14991TIP3   OH266387   3.366   5.553   3.869  0.5174 -0.3466  0.1855
14991TIP3    H166388   3.437   5.578   3.810  2.3590 -2.2070  1.4883
14991TIP3    H266389   3.337   5.468   3.838 -1.5935  0.5800 -0.6229
14992TIP3   OH266390   2.762   2.624  17.113  0.3107  0.1103 -0.5432
14992TIP3    H166391   2.802   2.688  17.054  2.4723  1.3101  2.0446
14992TIP3    H266392   2.678   2.664  17.138  1.6080  2.0398  1.0012
14993TIP3   OH266393   4.162   3.592   6.284  0.1677 -0.4203  0.7014
14993TIP3    H166394   4.155   3.603   6.379 -3.5229 -0.2908  0.5789
14993TIP3    H266395   4.158   3.681   6.249 -4.5855 -0.5014  0.4247
14994TIP3   OH266396   5.507   6.592   3.389 -0.2346  0.1322 -0.2197
14994TIP3    H166397   5.524   6.665   3.329  0.5798  0.5780  0.5202
14994TIP3    H266398   5.557   6.519   3.352  3.3272  1.3427  1.7446
14995TIP3   OH266399   3.475   0.522   4.394  0.3153 -0.3885  0.3362
14995TIP3    H166400   3.488   0.500   4.486  1.2411 -0.9862  0.0741
14995TIP3    H266401   3.495   0.616   4.389 -0.1093 -0.2668  0.7996
14996TIP3   OH266402   2.371   0.245  13.126  0.1764 -0.2531 -0.0984
14996TIP3    H166403   2.300   0.234  13.063  0.1143 -0.8853  0.0675
14996TIP3    H266404   2.344   0.320  13.180 -0.9089 -1.1366  0.6540
14997TIP3   OH266405   5.819   6.677   1.012  0.5002  0.3150 -0.1361
14997TIP3    H166406   5.888   6.615   0.986  0.8464  0.7172 -0.1937
14997TIP3    H266407   5.867   6.753   1.045  0.0928  0.8898 -0.8465
14998TIP3   OH266408   1.456   0.061  14.157 -0.0053  0.1391 -0.0474
14998TIP3    H166409   1.391   0.125  14.186 -0.1398 -0.1386  0.2769
14998TIP3    H266410   1.508   0.107  14.092 -1.3372 -0.0002 -1.2729
14999TIP3   OH266411   6.120   0.501  13.046 -0.5983  0.4238  0.1361
14999TIP3    H166412   6.067   0.455  13.110 -0.1293 -0.5555 -0.1617
14999TIP3    H266413   6.081   0.589  13.041 -0.5458  0.5813  1.8587
15000TIP3   OH266414   4.410   2.977   2.020 -0.4120  0.7778  0.5618
15000TIP3    H166415   4.405   2.920   1.943 -0.7418  0.8281  0.5463
15000TIP3    H266416   4.348   2.939   2.082 -0.9662  1.3787  0.3822
15001TIP3   OH266417   2.754   2.928  11.544  0.0796 -0.3188  0.4321
15001TIP3    H166418   2.709   2.983  11.609 -0.5259  0.4970 -0.6338
15001TIP3    H266419   2.847   2.936  11.567 -0.1601 -0.4728  1.5082
15002TIP3   OH266420   3.305   4.346  12.991  0.4980 -0.0933 -0.4237
15002TIP3    H166421   3.330   4.425  12.943  0.6149 -0.5101 -1.0616
15002TIP3    H266422   3.347   4.355  13.076  2.3131 -0.4572 -1.2273
15003TIP3   OH266423   1.580   6.690   1.001 -0.3218  0.3514 -0.0609
15003TIP3    H166424   1.498   6.740   1.000  0.1568  1.2358 -2.5890
15003TIP3    H266425   1.638   6.741   1.057 -0.1185  2.2978 -1.9025
15004TIP3   OH266426   3.094   6.155  15.679  0.4599  0.2764  0.2520
15004TIP3    H166427   3.027   6.093  15.654 -0.4444  1.2450  0.2276
15004TIP3    H266428   3.177   6.109  15.662 -0.1321 -0.1056 -1.8671
15005TIP3   OH266429   5.078   0.694  13.801 -0.2479  0.1073  0.2589
15005TIP3    H166430   5.082   0.737  13.887  1.9558 -1.7508  1.2121
15005TIP3    H266431   5.012   0.626  13.811 -0.6797  0.5119  0.1631
15006TIP3   OH266432   3.678   5.169   3.242  0.8358  0.0114 -0.4973
15006TIP3    H166433   3.709   5.257   3.219 -0.0272 -0.3209 -3.3847
15006TIP3    H266434   3.648   5.177   3.333  0.3526  2.8355 -0.8036
15007TIP3   OH266435   1.109   4.049   1.322 -0.1778 -0.0860  0.1753
15007TIP3    H166436   1.088   4.137   1.288 -1.4862 -0.6678 -0.5992
15007TIP3    H266437   1.191   4.026   1.278 -0.4275  0.2881 -0.5057
15008TIP3   OH266438   2.010   3.202   1.197  0.7283 -0.1408  0.3280
15008TIP3    H166439   2.094   3.164   1.223  0.6355  0.2393  1.2094
15008TIP3    H266440   1.945   3.149   1.242  0.5583  0.4022  0.7371
15009TIP3   OH266441   3.939   0.920   3.178 -0.1784  0.3690  0.6168
15009TIP3    H166442   4.024   0.882   3.158 -0.3996  0.2180 -0.0518
15009TIP3    H266443   3.875   0.860   3.140 -0.6071  0.2450  1.5046
15010TIP3   OH266444   0.052   5.519   3.326 -0.2142 -0.1785 -0.2777
15010TIP3    H166445   0.117   5.459   3.290 -0.8703 -1.4674  0.6222
15010TIP3    H266446   0.102   5.597   3.350  0.6643 -0.3627 -1.4265
15011TIP3   OH266447   6.244   2.551  15.529 -0.3925  0.0819 -0.1725
15011TIP3    H166448   6.333   2.521  15.513 -1.2046 -1.9159 -1.2814
15011TIP3    H266449   6.254   2.641  15.561  2.0434 -0.4397  0.7295
15012TIP3   OH266450   2.274   0.029  15.738 -0.0266 -0.0016 -0.0023
15012TIP3    H166451   2.219   0.107  15.736  0.6554  0.5713  1.6686
15012TIP3    H266452   2.240  -0.026  15.667 -2.5017  0.4838  0.6927
15013TIP3   OH266453   0.049   2.619  13.263  0.6432  0.8399  0.2152
15013TIP3    H166454   0.095   2.693  13.303  1.2016  0.7398 -0.2241
15013TIP3    H266455   0.033   2.646  13.172  2.5360 -0.2755 -0.5058
15014TIP3   OH266456   1.577   4.658   2.106 -0.5492  0.5877  0.1079
15014TIP3    H166457   1.578   4.669   2.201  1.4062  2.0757 -0.0254
15014TIP3    H266458   1.493   4.616   2.088 -0.8794  0.0687  2.4973
15015TIP3   OH266459   5.294   3.061   0.307 -0.1935 -0.1130  0.3744
15015TIP3    H166460   5.318   3.154   0.309  0.9559 -0.3717 -0.5637
15015TIP3    H266461   5.350   3.023   0.241 -2.2711 -1.0488 -0.9562
15016TIP3   OH266462   2.234   4.656   2.320  0.3045 -0.1621 -0.0247
15016TIP3    H166463   2.326   4.651   2.349  0.1405 -0.4300  0.4587
15016TIP3    H266464   2.184   4.616   2.392 -0.2399  0.4737 -0.0406
15017TIP3   OH266465   2.067   3.144   2.599  0.2748 -0.2063 -0.3207
15017TIP3    H166466   2.100   3.151   2.688  0.4855 -1.1321 -0.3237
15017TIP3    H266467   2.145   3.127   2.546 -0.1084 -1.9122 -0.3931
15018TIP3   OH266468   6.299   6.630  15.211 -0.0470 -0.0925 -0.3947
15018TIP3    H166469   6.361   6.681  15.159 -1.6262  0.7349 -1.5605
15018TIP3    H266470   6.301   6.672  15.298  0.2090  0.6401 -0.7429
15019TIP3   OH266471   3.299   0.855  16.487  0.0911 -0.3423  0.6537
15019TIP3    H166472   3.350   0.909  16.426 -0.3206  0.9875  1.4637
15019TIP3    H266473   3.292   0.908  16.566 -2.1307 -0.6761  0.7426
15020TIP3   OH266474   5.155   4.433  15.868  0.6234  0.4840  0.7744
15020TIP3    H166475   5.241   4.400  15.843  0.3089  0.6759 -0.6755
15020TIP3    H266476   5.093   4.373  15.826  0.0528  0.9110  0.9887
15021TIP3   OH266477   4.037   3.152   2.687  0.1415  0.2276  0.1252
15021TIP3    H166478   4.100   3.123   2.753 -2.1603  0.7412  2.7024
15021TIP3    H266479   4.030   3.078   2.627  0.7905 -1.1250  1.6351
15022TIP3   OH266480   3.309   2.259   3.219 -0.2767 -0.0030 -0.5496
15022TIP3    H166481   3.371   2.326   3.248  0.4690 -1.0064  0.2736
15022TIP3    H266482   3.281   2.216   3.300 -1.3384 -0.1752 -0.9954
15023TIP3   OH266483   4.026   0.558  13.830  0.2381  0.1400  0.5690
15023TIP3    H166484   3.967   0.519  13.894 -0.0756  0.2109  0.3234
15023TIP3    H266485   3.972   0.571  13.752  0.8715 -0.9073 -0.0627
15024TIP3   OH266486   4.207   5.578   3.466  0.3534  0.0121 -0.0038
15024TIP3    H166487   4.207   5.662   3.419 -1.4568 -0.1355 -0.3757
15024TIP3    H266488   4.136   5.587   3.529  0.1614 -1.2165 -0.0306
15025TIP3   OH266489   0.300   3.928   0.182 -0.2201 -0.4079  0.4081
15025TIP3    H166490   0.283   4.013   0.141  1.4829  0.8614  2.1707
15025TIP3    H266491   0.395   3.922   0.185 -0.3051 -2.5670  0.0238
15026TIP3   OH266492   1.187   2.651   3.637  0.6212 -1.1266  0.0003
15026TIP3    H166493   1.122   2.699   3.687 -1.1570 -1.3491 -1.9272
15026TIP3    H266494   1.169   2.559   3.657  0.8488 -1.1549  0.0693
15027TIP3   OH266495   4.563   0.535  14.372 -0.3251  0.1240  0.0777
15027TIP3    H166496   4.563   0.440  14.358 -0.6929  0.1425 -0.0623
15027TIP3    H266497   4.520   0.570  14.294 -0.5380  0.3770  0.3094
15028TIP3   OH266498   3.714   0.569   0.656  0.5539 -0.5558  0.3807
15028TIP3    H166499   3.662   0.583   0.735  0.0296 -1.6238  0.2547
15028TIP3    H266500   3.717   0.473   0.647 -1.1685 -0.4732 -2.0172
15029TIP3   OH266501   1.807   3.100   5.493 -0.2700 -0.3111  0.2495
15029TIP3    H166502   1.828   3.094   5.586 -0.6938  0.5511  0.4165
15029TIP3    H266503   1.789   3.193   5.478  1.1664 -0.1889 -1.0095
15030TIP3   OH266504   6.117   1.681  16.462 -0.2806 -0.3384  0.1280
15030TIP3    H166505   6.117   1.705  16.555 -0.1440  0.7992 -0.1436
15030TIP3    H266506   6.141   1.589  16.461  0.4938 -0.1691  1.1831
15031TIP3   OH266507   2.972   3.943  13.461 -0.0160 -0.4001 -0.3113
15031TIP3    H166508   2.985   3.867  13.518  1.8113 -0.6724 -1.0209
15031TIP3    H266509   3.016   3.920  13.380 -1.1144  0.6710 -1.2477
15032TIP3   OH266510   0.174   0.123   0.503  0.5051 -0.0608 -0.6577
15032TIP3    H166511   0.236   0.122   0.430  1.0720  0.2399 -0.1907
15032TIP3    H266512   0.208   0.058   0.564  0.2281 -0.0573 -0.4983
15033TIP3   OH266513   4.405   2.468   5.125 -0.8746  0.0937 -0.5577
15033TIP3    H166514   4.348   2.545   5.122 -1.9248 -0.6254  0.3870
15033TIP3    H266515   4.372   2.412   5.055 -1.2393 -0.2562 -0.1097
15034TIP3   OH266516   4.990   6.152  13.723 -0.0955 -0.5710  0.3162
15034TIP3    H166517   5.028   6.126  13.639 -1.6755 -0.8242 -0.3449
15034TIP3    H266518   4.956   6.071  13.761 -0.7796 -0.2236  0.4656
15035TIP3   OH266519   3.720   2.259  13.350 -0.7768  0.2130 -0.1451
15035TIP3    H166520   3.698   2.191  13.413 -0.0179  0.6691  0.6415
15035TIP3    H266521   3.795   2.305  13.389 -1.4855  1.7231 -0.4684
15036TIP3   OH266522   4.851   5.086  13.976  0.1444 -0.1030 -0.4463
15036TIP3    H166523   4.865   5.007  13.924  0.9345  0.1482 -0.6386
15036TIP3    H266524   4.893   5.066  14.060 -1.0559 -0.4776  0.0818
15037TIP3   OH266525   4.213   4.558  12.469 -0.0652  0.3024  0.2404
15037TIP3    H166526   4.208   4.609  12.387  2.1441 -1.8198 -1.3517
15037TIP3    H266527   4.171   4.475  12.448  0.3434 -0.1984  1.3487
15038TIP3   OH266528   5.093   1.249   5.842  0.3645  0.3843 -0.1112
15038TIP3    H166529   5.031   1.205   5.784 -1.8341  0.7680  1.8096
15038TIP3    H266530   5.125   1.181   5.900  1.8799  0.1748 -1.1362
15039TIP3   OH266531   2.483   1.044  15.750 -0.2617 -0.4113 -0.2079
15039TIP3    H166532   2.494   1.077  15.839  1.8096 -0.1142 -0.5324
15039TIP3    H266533   2.435   0.962  15.761  2.3909 -1.8887  1.5440
15040TIP3   OH266534   5.703   3.814  12.142 -0.0611  0.2270 -0.8632
15040TIP3    H166535   5.634   3.812  12.208 -2.3288 -0.2658 -3.1109
15040TIP3    H266536   5.718   3.907  12.126  0.4612  0.3529  0.2345
15041TIP3   OH266537   5.647   1.925  12.087  0.0997  0.2567  0.0582
15041TIP3    H166538   5.573   1.933  12.026 -0.0194  1.2001  0.3087
15041TIP3    H266539   5.699   2.004  12.072 -0.0465  0.6046  1.3209
15042TIP3   OH266540   2.108   4.828  15.391  0.1429 -0.5325 -0.2530
15042TIP3    H166541   2.186   4.878  15.368 -0.2413 -0.3689 -1.3014
15042TIP3    H266542   2.093   4.772  15.314 -0.7477 -0.5700 -0.0597
15043TIP3   OH266543   6.359   5.787   3.582 -0.2334  0.1842 -0.0911
15043TIP3    H166544   6.349   5.703   3.537  1.2904 -0.7787  1.2737
15043TIP3    H266545   6.337   5.768   3.673 -2.9517  2.0281 -0.2338
15044TIP3   OH266546   1.776   2.272  11.213  0.3979  0.0616 -0.1510
15044TIP3    H166547   1.742   2.220  11.140 -0.0557  0.0126  0.0853
15044TIP3    H266548   1.826   2.210  11.266 -1.5722 -0.5979  1.0692
15045TIP3   OH266549   6.644   4.520   2.825  0.0851 -0.1354 -0.2752
15045TIP3    H166550   6.603   4.598   2.786  0.1496 -0.4194 -0.9311
15045TIP3    H266551   6.682   4.474   2.750  1.0462 -0.2048  0.2487
15046TIP3   OH266552   3.055   1.321  13.766  0.3360  0.0012 -0.0069
15046TIP3    H166553   3.105   1.384  13.714 -0.0708 -0.3859 -0.8736
15046TIP3    H266554   2.966   1.325  13.731 -0.3432  0.8399  1.6554
15047TIP3   OH266555   2.945   3.708   0.189 -0.3599  0.0366  0.7429
15047TIP3    H166556   2.889   3.766   0.241 -0.2951  0.0663  0.7794
15047TIP3    H266557   2.990   3.765   0.128 -0.2258  0.0375  0.8413
15048TIP3   OH266558   5.137   1.002   5.566 -0.0328 -0.6983  0.1320
15048TIP3    H166559   5.133   0.952   5.484  0.0291 -1.0317  0.3286
15048TIP3    H266560   5.130   0.935   5.635  3.8032 -0.9331  0.5027
15049TIP3   OH266561   4.470   3.785   2.768  0.1317 -0.1057  0.3595
15049TIP3    H166562   4.382   3.823   2.773  0.5912  1.1068 -0.3592
15049TIP3    H266563   4.506   3.819   2.686  1.2545 -0.6545  0.6056
15050TIP3   OH266564   5.828   6.237  15.383 -0.1822  0.0909 -0.1219
15050TIP3    H166565   5.733   6.230  15.392 -0.2449  1.8888  1.2307
15050TIP3    H266566   5.844   6.331  15.368  1.4178 -0.0070  0.7146
15051TIP3   OH266567   3.346   5.237  13.471  0.0724  0.2494 -0.5429
15051TIP3    H166568   3.340   5.222  13.377  0.1101 -1.2798 -0.3317
15051TIP3    H266569   3.434   5.273  13.484 -0.2960  1.4377 -1.1798
15052TIP3   OH266570   3.467   4.648  13.942 -0.4887 -0.3930  0.2410
15052TIP3    H166571   3.377   4.615  13.940 -0.7774  0.3194 -2.4812
15052TIP3    H266572   3.519   4.574  13.973 -2.0383 -0.5235  2.8072
15053TIP3   OH266573   6.151   3.684  11.763  0.5777  0.5328 -0.4451
15053TIP3    H166574   6.204   3.757  11.795 -2.4000  2.6728 -0.0486
15053TIP3    H266575   6.176   3.610  11.819  1.3259  2.0974  1.3767
15054TIP3   OH266576   5.665   6.499   5.333 -0.3970  0.0946 -0.1516
15054TIP3    H166577   5.592   6.455   5.289 -0.6199 -0.1237  0.4293
15054TIP3    H266578   5.702   6.432   5.392 -0.1204  0.3908  0.0156
15055TIP3   OH266579   3.042   5.838  16.740 -0.6295 -0.1947  0.0711
15055TIP3    H166580   2.970   5.886  16.780 -1.4556  1.5921 -3.2281
15055TIP3    H266581   3.008   5.749  16.729 -1.6311  0.1549  0.2411
15056TIP3   OH266582   6.402   3.204  15.762  0.1207 -0.2018  0.0415
15056TIP3    H166583   6.476   3.152  15.793  1.6363  1.1055 -1.2749
15056TIP3    H266584   6.373   3.253  15.839  0.8602 -0.4533  0.4841
15057TIP3   OH266585   2.066   5.339  15.993 -0.0310  0.4396  0.0240
15057TIP3    H166586   1.992   5.367  16.047 -1.0521 -1.4115 -0.3699
15057TIP3    H266587   2.098   5.421  15.954 -1.4466  1.3591  0.6882
15058TIP3   OH266588   1.889   0.815   5.050  0.8456  0.3200  0.0927
15058TIP3    H166589   1.827   0.888   5.056 -0.5203 -0.9342  3.0576
15058TIP3    H266590   1.957   0.847   4.991 -2.6676  1.6760 -3.7846
15059TIP3   OH266591   2.778   2.201  16.492  0.4296  0.2326  0.0304
15059TIP3    H166592   2.804   2.110  16.509 -0.6105  0.0317  0.5976
15059TIP3    H266593   2.845   2.253  16.536  1.0376 -0.2517 -0.2967
15060TIP3   OH266594   0.950   1.506   0.485 -0.1966  0.0950  0.0321
15060TIP3    H166595   1.024   1.481   0.540 -0.2468  1.4246  0.7519
15060TIP3    H266596   0.930   1.428   0.434  0.8284 -0.7009  0.8141
15061TIP3   OH266597   1.627   6.641   4.697  0.2171  0.8002  0.0098
15061TIP3    H166598   1.545   6.626   4.649 -0.0800 -1.4514  1.1136
15061TIP3    H266599   1.602   6.698   4.770 -0.4377  0.0331  0.4066
15062TIP3   OH266600   4.131   4.022  14.862  0.5396 -0.4970 -0.1179
15062TIP3    H166601   4.045   3.994  14.893  0.3298 -0.5794 -0.7571
15062TIP3    H266602   4.163   3.948  14.810  1.0879 -0.5470  0.2849
15063TIP3   OH266603   5.445   0.356   0.642  0.4745  0.0939  0.7934
15063TIP3    H166604   5.465   0.280   0.588  0.6679  0.8717 -0.2661
15063TIP3    H266605   5.530   0.392   0.666  0.3842 -0.0203  1.2909
15064TIP3   OH266606   4.706   5.576  15.769  0.5328  0.0193  0.1776
15064TIP3    H166607   4.786   5.619  15.800 -0.8856  3.3021 -0.3048
15064TIP3    H266608   4.703   5.596  15.675 -1.4302  1.1496  0.4211
15065TIP3   OH266609   4.098   4.397  15.620  0.1665  0.1723  0.7145
15065TIP3    H166610   4.035   4.348  15.672  1.1681 -2.3579 -0.3073
15065TIP3    H266611   4.061   4.398  15.532  1.5843 -1.6420  0.0243
15066TIP3   OH266612   0.509   1.903   1.476 -0.3728 -0.3727  0.2907
15066TIP3    H166613   0.517   1.941   1.389  1.4087 -1.6916 -0.1624
15066TIP3    H266614   0.594   1.917   1.517 -1.1225  0.0486  1.7656
15067TIP3   OH266615   4.433   1.726   4.608  0.7606  0.4481 -0.0882
15067TIP3    H166616   4.482   1.646   4.627 -0.3173 -0.6038 -1.5992
15067TIP3    H266617   4.499   1.796   4.614  2.1224 -0.7570 -0.5837
15068TIP3   OH266618   1.946   4.403   2.004 -0.1738 -0.1745  0.1646
15068TIP3    H166619   1.982   4.473   2.058 -0.6182  0.4167 -0.2741
15068TIP3    H266620   1.924   4.447   1.921 -1.0981 -0.6845  0.1265
15069TIP3   OH266621   2.112   4.580  14.715 -0.4231  0.1539  0.0089
15069TIP3    H166622   2.078   4.632  14.788  1.2687  0.0370  0.9535
15069TIP3    H266623   2.096   4.489  14.740  1.5592  0.0389  1.0600
15070TIP3   OH266624   5.044   4.244  16.687  0.2302  0.2478 -0.7247
15070TIP3    H166625   5.081   4.192  16.616  0.1682 -0.1173 -0.4914
15070TIP3    H266626   5.010   4.322  16.644  1.3027  0.6110 -0.9458
15071TIP3   OH266627   0.123   0.867  15.995 -0.1677 -0.2322  0.1975
15071TIP3    H166628   0.101   0.863  16.088  0.0738 -2.6794  0.2331
15071TIP3    H266629   0.046   0.832  15.951 -0.0242  0.2964 -0.4833
15072TIP3   OH266630   4.406   4.884   3.167  0.5518  0.6147 -0.3577
15072TIP3    H166631   4.458   4.867   3.245  1.7926 -1.3496 -1.5346
15072TIP3    H266632   4.434   4.971   3.137  0.2168  1.2950  1.2083
15073TIP3   OH266633   2.145   1.924  14.519 -0.1457 -0.0477 -0.2809
15073TIP3    H166634   2.182   2.001  14.562 -2.8785  1.6985 -0.8038
15073TIP3    H266635   2.059   1.912  14.560 -1.6562 -0.0575 -3.1798
15074TIP3   OH266636   1.303   5.634   5.351  0.7182  0.3445  0.1037
15074TIP3    H166637   1.391   5.671   5.340  0.6694  0.8648  1.2707
15074TIP3    H266638   1.251   5.708   5.383 -0.1151  0.0026 -0.4437
15075TIP3   OH266639   5.624   6.480  12.893  0.0818  0.3478  0.0914
15075TIP3    H166640   5.619   6.565  12.849 -0.2596  1.0932  1.5072
15075TIP3    H266641   5.704   6.483  12.944  0.0057 -0.1449  0.2495
15076TIP3   OH266642   1.473   3.323  16.569  0.3026  0.2127  0.0855
15076TIP3    H166643   1.383   3.337  16.541  0.8536  2.4341 -0.7806
15076TIP3    H266644   1.495   3.236  16.537 -1.5278 -0.3925  0.3683
15077TIP3   OH266645   5.069   3.527  14.454  0.1277  0.6165  0.4406
15077TIP3    H166646   5.054   3.509  14.362 -0.4362  0.8359  0.4809
15077TIP3    H266647   5.137   3.466  14.481 -0.6317 -0.3599  0.1978
15078TIP3   OH266648   6.020   4.822  14.841  0.2145 -0.1935 -0.1111
15078TIP3    H166649   6.024   4.817  14.936 -2.3466  0.3391  0.1104
15078TIP3    H266650   6.014   4.732  14.812  0.3237 -0.3293  0.2805
15079TIP3   OH266651   0.879   1.292   3.284  0.2670  0.2328 -0.3127
15079TIP3    H166652   0.897   1.218   3.227 -0.8801 -0.5308  0.2810
15079TIP3    H266653   0.964   1.317   3.318  0.5958 -1.2733  0.0341
15080TIP3   OH266654   0.987   3.895  15.334  0.3698  0.4410 -0.2480
15080TIP3    H166655   0.954   3.931  15.252  0.6714  0.1262 -0.5146
15080TIP3    H266656   1.082   3.892  15.322  0.3540 -0.3748 -0.2130
15081TIP3   OH266657   1.820   0.655   1.264  0.3765 -0.2323  0.0085
15081TIP3    H166658   1.901   0.686   1.304 -0.0294  0.2955  0.4234
15081TIP3    H266659   1.784   0.731   1.219  1.6867 -1.1944 -2.8814
15082TIP3   OH266660   6.339   5.593  15.916  0.4450  0.0431 -0.0367
15082TIP3    H166661   6.276   5.641  15.971  0.0372 -1.5641  0.9700
15082TIP3    H266662   6.299   5.593  15.829 -0.4587 -0.0832  0.3657
15083TIP3   OH266663   2.860   6.321  16.470 -0.0035 -0.0947 -0.6667
15083TIP3    H166664   2.929   6.288  16.527 -1.9246 -2.8676  0.2822
15083TIP3    H266665   2.781   6.276  16.500 -1.9920  1.8661 -2.5825
15084TIP3   OH266666   0.518   3.410   3.002  0.3385 -0.2629  0.9319
15084TIP3    H166667   0.528   3.335   2.943  0.5336 -0.1452  0.8151
15084TIP3    H266668   0.607   3.442   3.016  0.2464  0.0285  0.8731
15085TIP3   OH266669   5.608   1.172   5.060 -0.0803 -0.4204  0.2810
15085TIP3    H166670   5.649   1.178   4.973  0.2394 -0.9811  0.3848
15085TIP3    H266671   5.517   1.146   5.041  0.0427 -0.7454  0.1150
15086TIP3   OH266672   0.638   0.087  14.784 -0.1038 -0.2823 -0.8030
15086TIP3    H166673   0.645  -0.008  14.782 -0.8577 -0.5033  2.0817
15086TIP3    H266674   0.579   0.109  14.713 -2.2594 -2.3099  0.2356
15087TIP3   OH266675   0.905   4.650   1.994 -0.5144  0.2901 -0.1076
15087TIP3    H166676   0.981   4.600   1.965 -0.7858  0.2566 -0.7927
15087TIP3    H266677   0.923   4.671   2.085  1.4463  2.3266 -0.8459
15088TIP3   OH266678   1.585   6.613  16.546  0.6761  0.3522 -0.2126
15088TIP3    H166679   1.617   6.588  16.632 -0.3358 -0.5470 -0.0676
15088TIP3    H266680   1.663   6.635  16.496  1.4020 -0.5303  0.4961
15089TIP3   OH266681   4.988   4.395   0.802 -0.3305 -0.0089  0.0350
15089TIP3    H166682   4.957   4.473   0.847  2.0009  3.3147 -3.4604
15089TIP3    H266683   4.921   4.376   0.736  0.4873  1.1874 -1.2083
15090TIP3   OH266684   0.153   6.627  11.804 -0.0090 -0.0489  0.0013
15090TIP3    H166685   0.167   6.720  11.789 -1.4193  0.1799 -0.0035
15090TIP3    H266686   0.060   6.613  11.788  0.2439 -1.5351 -0.3449
15091TIP3   OH266687   1.218   2.932   0.836 -0.5175 -0.0057  0.2603
15091TIP3    H166688   1.228   3.016   0.791 -1.3285 -0.3242 -0.5562
15091TIP3    H266689   1.124   2.927   0.856 -0.8798 -1.6027 -1.5540
15092TIP3   OH266690   4.462   5.219   2.776  0.0142  0.2476  0.3469
15092TIP3    H166691   4.488   5.307   2.803 -0.5934  0.5197  0.0719
15092TIP3    H266692   4.386   5.233   2.718  0.7349 -0.3684 -0.7854
15093TIP3   OH266693   2.342   4.254   1.982  0.4889  0.4191 -0.3068
15093TIP3    H166694   2.302   4.338   2.000 -1.5588 -1.0629  3.0713
15093TIP3    H266695   2.268   4.194   1.969  1.7512 -1.3274  0.0876
15094TIP3   OH266696   1.167   0.145   0.704  0.5274 -0.6873 -0.4995
15094TIP3    H166697   1.175   0.209   0.634  2.5459 -1.1468 -0.7514
15094TIP3    H266698   1.187   0.061   0.663  0.5826 -1.1168  0.3709
15095TIP3   OH266699   3.074   6.110  12.945  0.4218 -0.1044  0.1237
15095TIP3    H166700   3.069   6.100  12.850  0.2891  2.0649 -0.1324
15095TIP3    H266701   3.130   6.185  12.959 -0.1536  0.0632  1.7430
15096TIP3   OH266702   6.579   3.037  14.571  0.2145  0.2487  0.7479
15096TIP3    H166703   6.572   3.106  14.505 -0.7565  1.9946  2.5960
15096TIP3    H266704   6.523   3.066  14.643  0.6961 -1.9167  2.0882
15097TIP3   OH266705   3.790   5.866   4.466 -0.3241 -0.0179 -0.1922
15097TIP3    H166706   3.848   5.792   4.448  1.8867  2.0023 -2.2102
15097TIP3    H266707   3.841   5.921   4.526 -1.0283  0.8080 -0.3343
15098TIP3   OH266708   5.671   2.682  10.756  0.4130  0.3594  0.4643
15098TIP3    H166709   5.766   2.684  10.767  0.3970  1.2719  0.5688
15098TIP3    H266710   5.648   2.771  10.728 -0.4575  0.3024  0.9317
15099TIP3   OH266711   3.499   0.252   1.752 -0.6384  0.7374  0.0932
15099TIP3    H166712   3.466   0.175   1.706 -1.2049 -0.0308  1.7163
15099TIP3    H266713   3.582   0.272   1.709 -1.4521  0.5016 -1.6977
15100TIP3   OH266714   0.332   5.305   2.379 -0.0925 -0.1566 -0.0772
15100TIP3    H166715   0.247   5.277   2.414 -1.2849 -0.0252 -2.6700
15100TIP3    H266716   0.340   5.397   2.405 -0.6803 -0.1954  0.2653
15101TIP3   OH266717   0.297   3.309   0.144 -0.8636 -0.1268  0.1236
15101TIP3    H166718   0.390   3.290   0.135 -1.1142 -1.0682 -0.5462
15101TIP3    H266719   0.276   3.364   0.069 -0.9290 -0.2307  0.0656
15102TIP3   OH266720   1.692   5.467   2.956 -0.0783 -0.2681  0.0608
15102TIP3    H166721   1.622   5.424   3.005  0.8713 -1.5249  0.3680
15102TIP3    H266722   1.694   5.422   2.872 -0.6946  0.8566 -0.5671
15103TIP3   OH266723   2.383   3.657  14.304  0.8202 -0.2858 -0.4732
15103TIP3    H166724   2.309   3.716  14.318 -0.1189 -1.5568  0.1338
15103TIP3    H266725   2.444   3.708  14.250 -1.1242  0.3017 -2.2562
15104TIP3   OH266726   6.493   3.807   6.275 -0.7716  0.2935 -0.1192
15104TIP3    H166727   6.526   3.811   6.185 -1.1851 -1.6727 -0.4165
15104TIP3    H266728   6.530   3.726   6.310 -0.7513  0.9465  1.4452
15105TIP3   OH266729   5.471   5.398  12.040 -0.0469 -0.4422 -0.4821
15105TIP3    H166730   5.500   5.441  11.959 -0.3567 -0.0829 -0.4086
15105TIP3    H266731   5.503   5.455  12.110  0.2057 -0.7441 -0.3503
15106TIP3   OH266732   4.164   4.525   6.665  0.3383 -0.1179  0.4967
15106TIP3    H166733   4.217   4.496   6.591  1.3740  0.7375  0.8771
15106TIP3    H266734   4.121   4.445   6.696 -0.6950 -0.3751 -1.4416
15107TIP3   OH266735   6.020   5.808  17.237  0.0761  0.2461 -0.1686
15107TIP3    H166736   5.981   5.895  17.237  0.3930  0.4023  0.9407
15107TIP3    H266737   5.978   5.762  17.309 -0.4116 -0.6826 -1.0243
15108TIP3   OH266738   3.410   4.134   2.297 -0.8080 -0.4498 -0.3782
15108TIP3    H166739   3.385   4.152   2.387  1.1722 -0.3226  0.1985
15108TIP3    H266740   3.338   4.082   2.261 -2.2051  0.5558  0.8621
15109TIP3   OH266741   5.996   2.942   2.688  0.4538  0.4183  0.0593
15109TIP3    H166742   5.911   2.979   2.711  0.1908 -1.0310  1.6275
15109TIP3    H266743   6.059   3.010   2.712 -0.2095  1.4800 -1.0568
15110TIP3   OH266744   4.932   5.826  15.062  0.5253  0.0777  0.1850
15110TIP3    H166745   4.992   5.900  15.062  0.7611 -0.1124 -0.1632
15110TIP3    H266746   4.955   5.776  15.141  2.1262 -1.0400 -0.9425
15111TIP3   OH266747   0.626   2.065  15.777 -0.4739  0.2501 -0.1875
15111TIP3    H166748   0.550   2.025  15.819  0.3147 -1.3381 -0.1994
15111TIP3    H266749   0.642   2.009  15.700  0.2194  1.0415 -0.6289
15112TIP3   OH266750   4.322   2.461  15.698  0.9432  0.4812  0.0360
15112TIP3    H166751   4.404   2.411  15.696  1.9668  2.1092 -1.4859
15112TIP3    H266752   4.267   2.414  15.761  2.5013 -1.4775  0.0331
15113TIP3   OH266753   0.359   6.615   3.822  0.4875  0.2048 -0.8302
15113TIP3    H166754   0.329   6.692   3.773 -1.7885  0.7737  1.2629
15113TIP3    H266755   0.338   6.541   3.766 -0.3440  0.9182 -1.4935
15114TIP3   OH266756   0.823   2.501   3.313 -0.2700 -0.1245 -0.2648
15114TIP3    H166757   0.759   2.531   3.378  0.4308 -1.0378  0.8926
15114TIP3    H266758   0.776   2.503   3.230 -1.4386  0.3434  0.3894
15115TIP3   OH266759   4.579   5.656   4.624  0.4719 -0.1435 -0.0732
15115TIP3    H166760   4.633   5.653   4.545  0.6948  0.9965  0.0160
15115TIP3    H266761   4.573   5.749   4.645 -1.4663 -0.2303 -0.0394
15116TIP3   OH266762   0.429   5.783  14.272 -0.2130 -0.1202 -0.4053
15116TIP3    H166763   0.512   5.782  14.320  0.1740 -1.8276 -1.0457
15116TIP3    H266764   0.443   5.723  14.199 -2.0501 -0.5212 -0.4773
15117TIP3   OH266765   5.481   3.084  12.201 -0.5140 -0.6539  0.1166
15117TIP3    H166766   5.451   3.150  12.139  0.9677 -0.9653 -1.0005
15117TIP3    H266767   5.525   3.019  12.146 -0.2620 -1.5859  1.3836
15118TIP3   OH266768   2.298   4.379  11.353 -0.1097 -0.0650 -0.0901
15118TIP3    H166769   2.367   4.343  11.409 -0.0672  2.0237  1.3208
15118TIP3    H266770   2.329   4.363  11.264  1.9572  0.2876  0.5029
15119TIP3   OH266771   4.289   5.452  15.196 -0.4686  0.4006  0.9029
15119TIP3    H166772   4.356   5.516  15.220  0.4741 -1.0436  2.3568
15119TIP3    H266773   4.242   5.434  15.278 -1.1053 -0.3356  0.3984
15120TIP3   OH266774   5.035   4.484   2.144 -0.6767 -0.1290  0.7323
15120TIP3    H166775   5.035   4.461   2.051 -1.6579 -0.2861  0.7617
15120TIP3    H266776   5.046   4.579   2.145  1.1413 -0.2976  0.5355
15121TIP3   OH266777   4.980   4.550   1.167 -0.5627 -0.7268 -0.2938
15121TIP3    H166778   5.051   4.568   1.228 -1.4516  1.0713  0.2695
15121TIP3    H266779   5.014   4.481   1.110  1.0065 -1.0499  0.9760
15122TIP3   OH266780   1.522   6.056   2.500  0.3886 -0.5863 -0.1814
15122TIP3    H166781   1.484   5.986   2.554  0.2687 -0.5797 -0.2573
15122TIP3    H266782   1.477   6.049   2.416 -1.8604  1.4792  0.7280
15123TIP3   OH266783   5.561   5.166  16.485 -0.0998  0.5308  0.6297
15123TIP3    H166784   5.608   5.231  16.538 -0.3916  0.8085  0.5481
15123TIP3    H266785   5.469   5.183  16.502 -0.1713 -0.7783  1.7087
15124TIP3   OH266786   6.408   6.057  13.594 -0.2147  0.2094  0.2386
15124TIP3    H166787   6.339   5.993  13.577  0.9059 -0.7702 -0.8195
15124TIP3    H266788   6.399   6.079  13.687 -1.5800 -0.3234  0.2492
15125TIP3   OH266789   4.775   5.398   4.680 -0.1247 -0.8603  0.6333
15125TIP3    H166790   4.865   5.430   4.672  0.0526 -1.8870 -2.8451
15125TIP3    H266791   4.745   5.433   4.764  2.7626  1.3567  0.9012
15126TIP3   OH266792   5.608   2.298   4.804  0.8566 -0.1570  0.0184
15126TIP3    H166793   5.643   2.385   4.821  2.1244 -0.0664 -2.5508
15126TIP3    H266794   5.685   2.245   4.784 -0.0580 -1.3464 -0.4661
15127TIP3   OH266795   4.899   0.938   0.770 -0.0381 -0.3479 -0.0730
15127TIP3    H166796   4.912   0.941   0.676  1.4146 -0.5091  0.1001
15127TIP3    H266797   4.860   0.852   0.786  1.0394 -0.9141 -0.3978
15128TIP3   OH266798   4.956   3.984  14.001 -0.5262 -0.0640  0.3529
15128TIP3    H166799   4.890   4.024  13.943 -0.9857  0.4611  1.2130
15128TIP3    H266800   4.995   3.915  13.948 -2.7467 -1.3433  0.2419
15129TIP3   OH266801   1.583   4.365   1.895 -0.2075 -0.4086 -0.4586
15129TIP3    H166802   1.657   4.390   1.839  0.7488 -0.1876  0.8658
15129TIP3    H266803   1.578   4.270   1.886  0.1435 -0.4091 -0.6689
15130TIP3   OH266804   5.886   5.415  16.968  0.2425  0.4164  0.1589
15130TIP3    H166805   5.793   5.393  16.970  0.4856 -0.6131  0.4355
15130TIP3    H266806   5.892   5.496  17.019 -0.3677 -0.0549  1.0117
15131TIP3   OH266807   4.018   3.295   3.034  0.0593  0.4979  0.2542
15131TIP3    H166808   3.981   3.383   3.040  0.6209  0.8320 -0.8689
15131TIP3    H266809   3.942   3.237   3.024 -0.2996  0.8710  0.7927
15132TIP3   OH266810   3.731   6.089  11.804 -0.5605 -0.0692  0.4702
15132TIP3    H166811   3.816   6.067  11.767  0.2298  0.5800  1.8345
15132TIP3    H266812   3.674   6.100  11.728  0.5243 -0.6471 -0.4596
15133TIP3   OH266813   4.839   2.458  16.217  0.4280  0.3367 -0.3805
15133TIP3    H166814   4.799   2.374  16.194  0.0996  0.3403  0.1582
15133TIP3    H266815   4.782   2.494  16.285  0.7692  0.8304 -0.3514
15134TIP3   OH266816   1.020   1.893   5.765  0.3894  0.2108  0.3209
15134TIP3    H166817   1.092   1.953   5.745  0.7271  0.7029  2.6708
15134TIP3    H266818   1.056   1.806   5.748  0.4774  0.5552 -1.4336
15135TIP3   OH266819   3.006   3.985  15.309 -0.2183  0.5489  0.2898
15135TIP3    H166820   2.955   4.030  15.377 -2.5286 -1.7609  0.2584
15135TIP3    H266821   2.966   3.898  15.303  0.6122  0.2560 -3.2538
15136TIP3   OH266822   1.229   1.346  14.565  0.0448 -0.6105  0.5858
15136TIP3    H166823   1.256   1.393  14.644 -0.0335  0.5226 -0.0385
15136TIP3    H266824   1.296   1.280  14.552  0.3077 -0.5029  1.3403
15137TIP3   OH266825   5.785   0.918  17.059  0.1944 -0.5914  0.3660
15137TIP3    H166826   5.768   0.971  17.137 -0.6180  1.7426 -1.2854
15137TIP3    H266827   5.709   0.860  17.052 -2.3774  2.6406 -1.2715
15138TIP3   OH266828   4.246   3.474  15.765  0.2811  0.1536 -0.8666
15138TIP3    H166829   4.187   3.548  15.755 -0.4332  0.2599  2.6112
15138TIP3    H266830   4.190   3.397  15.756  0.2468  0.1598 -0.7118
15139TIP3   OH266831   4.404   3.638  14.230  0.4807  0.1657  0.1830
15139TIP3    H166832   4.325   3.583  14.235  0.3033  0.4385  0.3975
15139TIP3    H266833   4.383   3.702  14.161  1.8001 -1.8085 -2.2402
15140TIP3   OH266834   2.789   0.109   6.363 -0.1880 -0.1637  0.0447
15140TIP3    H166835   2.765   0.085   6.453 -1.4436  2.0332  0.3704
15140TIP3    H266836   2.719   0.072   6.309  1.8124 -3.6670 -0.4772
15141TIP3   OH266837   1.163   4.167   4.801  0.3085 -0.5738  0.4442
15141TIP3    H166838   1.124   4.120   4.727 -2.1387  0.1678  1.1665
15141TIP3    H266839   1.183   4.254   4.766  0.2867 -0.6015  0.3634
15142TIP3   OH266840   6.186   0.914  13.766 -0.7814 -0.2160 -0.1607
15142TIP3    H166841   6.239   0.952  13.836  0.6022  0.1481 -1.3539
15142TIP3    H266842   6.195   0.819  13.778  0.8482 -0.1755 -0.8133
15143TIP3   OH266843   5.482   6.738  15.001 -0.6080  0.5203 -0.0857
15143TIP3    H166844   5.574   6.762  15.002 -0.2807 -0.5207 -1.3917
15143TIP3    H266845   5.436   6.820  14.986  0.3107  0.7298 -2.0566
15144TIP3   OH266846   0.135   4.919   5.052 -0.2422 -0.8989 -0.1466
15144TIP3    H166847   0.070   4.983   5.025  0.3385  0.6471  1.8688
15144TIP3    H266848   0.095   4.834   5.031 -2.6932 -0.0039  0.5202
15145TIP3   OH266849   2.203   1.836  11.629 -0.3874 -0.0570  0.2552
15145TIP3    H166850   2.286   1.882  11.614 -0.1183 -0.4288  0.5793
15145TIP3    H266851   2.180   1.857  11.719 -0.8323  0.3296  0.0560
15146TIP3   OH266852   4.212   1.334  15.984  0.3428  0.0865  0.2149
15146TIP3    H166853   4.281   1.368  16.041  1.1429 -0.1987 -0.5548
15146TIP3    H266854   4.158   1.411  15.964  0.8131  0.4506  0.3167
15147TIP3   OH266855   0.854   4.433  13.196  0.3644 -0.6331 -0.1418
15147TIP3    H166856   0.845   4.472  13.283  1.2476  1.8285 -1.0906
15147TIP3    H266857   0.809   4.348  13.204  0.2354 -0.4051  2.6242
15148TIP3   OH266858   0.447   5.015  12.571 -0.3991 -0.3540 -0.1776
15148TIP3    H166859   0.494   5.069  12.635 -0.6498 -0.1293 -0.1846
15148TIP3    H266860   0.360   5.004  12.607 -0.5357 -0.2451 -0.4712
15149TIP3   OH266861   3.030   4.233   5.161 -0.2276  0.2848  0.3514
15149TIP3    H166862   3.071   4.249   5.076  1.4378 -0.6245  0.9504
15149TIP3    H266863   2.936   4.243   5.144 -0.1199 -1.8047 -2.0604
15150TIP3   OH266864   0.439   1.052  12.325  0.3983  0.2278 -0.5839
15150TIP3    H166865   0.492   1.128  12.300  0.6467  0.6745  1.1758
15150TIP3    H266866   0.471   1.027  12.412 -0.5907 -1.0594 -0.5536
15151TIP3   OH266867   4.157   2.023  15.952 -0.5501  0.2403 -1.1854
15151TIP3    H166868   4.184   1.934  15.975 -0.6232 -0.0209 -2.0789
15151TIP3    H266869   4.064   2.025  15.972 -0.2390  0.6381  0.3690
15152TIP3   OH266870   2.359   4.391  13.655 -0.6947  0.2934  0.2195
15152TIP3    H166871   2.377   4.475  13.613 -0.5888 -0.1746 -0.7048
15152TIP3    H266872   2.333   4.333  13.583  3.2375 -1.6535  0.1094
15153TIP3   OH266873   4.373   2.033  11.069 -0.0336  1.0908 -0.1355
15153TIP3    H166874   4.365   2.101  11.136  2.2955 -0.2011  1.5829
15153TIP3    H266875   4.461   2.046  11.033 -0.7130  0.8551 -1.9789
15154TIP3   OH266876   5.632   2.391   2.118  0.0364  0.3042 -0.2219
15154TIP3    H166877   5.545   2.400   2.158  0.8036  1.0202  1.3801
15154TIP3    H266878   5.656   2.299   2.135 -0.3350  0.1496 -0.5228
15155TIP3   OH266879   4.416   2.523  11.774 -0.0246 -0.0109  0.0278
15155TIP3    H166880   4.366   2.598  11.741 -0.9030 -0.8596 -0.6114
15155TIP3    H266881   4.501   2.560  11.800 -1.4432  1.7764  2.6021
15156TIP3   OH266882   4.960   4.484  16.573 -0.6199 -0.2456  0.1094
15156TIP3    H166883   5.047   4.521  16.565  0.2437 -2.1369  0.2449
15156TIP3    H266884   4.915   4.512  16.493  0.3185  0.2009 -0.2770
15157TIP3   OH266885   1.655   0.426   4.348  0.4674 -0.4289 -0.0935
15157TIP3    H166886   1.699   0.506   4.377  0.4030 -0.0788 -0.9460
15157TIP3    H266887   1.592   0.407   4.418 -1.0846  1.5127 -0.8880
15158TIP3   OH266888   4.986   1.515   2.644  0.2336 -0.2220  0.3174
15158TIP3    H166889   4.969   1.447   2.710 -0.2810  0.2866  0.7231
15158TIP3    H266890   4.956   1.596   2.685  0.7240  0.2381 -0.2091
15159TIP3   OH266891   6.198   0.866   0.863 -0.4155 -0.1307  0.1427
15159TIP3    H166892   6.177   0.809   0.938  1.1223 -0.2782  0.5064
15159TIP3    H266893   6.279   0.909   0.889  0.1308 -0.1634 -1.4345
15160TIP3   OH266894   2.625   5.778  16.683 -0.0490  0.2404 -0.2953
15160TIP3    H166895   2.562   5.720  16.725  1.5942 -2.2697 -1.0999
15160TIP3    H266896   2.583   5.804  16.601 -1.6087  1.9287  0.9427
15161TIP3   OH266897   4.280   5.350  11.916  0.1180  0.1036  0.0181
15161TIP3    H166898   4.350   5.402  11.876 -0.6624  0.8693 -0.3891
15161TIP3    H266899   4.212   5.414  11.937 -1.9336 -0.9628 -2.7237
15162TIP3   OH266900   5.183   0.903   2.134  0.5071 -0.0618  0.0347
15162TIP3    H166901   5.138   0.877   2.054  1.9621  1.8695 -1.5261
15162TIP3    H266902   5.130   0.975   2.169 -0.0361 -0.7935  0.7638
15163TIP3   OH266903   5.410   3.996   1.261  0.3080 -0.5851  0.6731
15163TIP3    H166904   5.380   4.039   1.181  0.9517 -0.8590  0.2829
15163TIP3    H266905   5.498   3.966   1.241 -0.6266 -3.4814  0.3455
15164TIP3   OH266906   0.044   3.429   2.187  0.2032 -0.4225  0.2264
15164TIP3    H166907   0.046   3.525   2.195 -0.4003 -0.1372 -2.2942
15164TIP3    H266908   0.136   3.403   2.187  0.4145  0.2830 -0.1198
15165TIP3   OH266909   3.116   6.354   3.267  0.1661 -0.0340 -0.2420
15165TIP3    H166910   3.164   6.364   3.350 -1.7962 -1.6118  1.1896
15165TIP3    H266911   3.113   6.260   3.252 -2.9416 -0.0886  0.1109
15166TIP3   OH266912   5.639   4.766   1.715 -0.1475  0.1369 -0.0674
15166TIP3    H166913   5.705   4.834   1.723  1.5076 -1.1864 -1.5462
15166TIP3    H266914   5.685   4.693   1.673 -2.3303 -1.1852 -0.3197
15167TIP3   OH266915   2.728   1.673   1.129 -0.1706 -0.7219 -0.0093
15167TIP3    H166916   2.775   1.616   1.068 -1.7545 -1.8168 -0.2581
15167TIP3    H266917   2.666   1.721   1.074  1.8388  2.1774  0.0008
15168TIP3   OH266918   3.325   2.194   1.085  1.1855 -0.4335  0.2462
15168TIP3    H166919   3.290   2.278   1.114  1.6336 -0.0947 -0.1663
15168TIP3    H266920   3.365   2.213   1.000  0.2075 -1.3313 -0.4343
15169TIP3   OH266921   4.314   0.616  15.552  0.0567 -0.1225 -0.1270
15169TIP3    H166922   4.355   0.545  15.503  1.1504  1.5975 -1.8345
15169TIP3    H266923   4.253   0.657  15.491  0.7759  1.5170  0.2008
15170TIP3   OH266924   0.052   5.290   5.358 -0.2605 -0.4460  0.2695
15170TIP3    H166925  -0.017   5.251   5.306  0.1575  0.3100 -0.9058
15170TIP3    H266926   0.018   5.291   5.448 -1.1394 -1.4522 -0.0403
15171TIP3   OH266927   6.224   6.737  14.026 -0.2748 -0.8063  0.4167
15171TIP3    H166928   6.279   6.756  14.102  0.6157 -1.3339 -0.0654
15171TIP3    H266929   6.254   6.797  13.958 -0.4700 -0.9190  0.2264
15172TIP3   OH266930   4.016   2.804  14.226  0.7378 -0.1088 -0.2278
15172TIP3    H166931   3.980   2.722  14.259  1.4814  0.5343  2.4261
15172TIP3    H266932   4.068   2.778  14.149 -0.7024 -1.7883 -0.6910
15173TIP3   OH266933   6.073   0.805   2.670 -0.0926 -0.1010  0.5481
15173TIP3    H166934   5.994   0.840   2.711  0.0338  2.4776 -1.2353
15173TIP3    H266935   6.134   0.792   2.743 -1.6559 -0.8030  1.7766
15174TIP3   OH266936   4.112   0.101   0.376  0.2545  0.0888 -0.1995
15174TIP3    H166937   4.145   0.144   0.296  2.4147 -0.2048  0.4831
15174TIP3    H266938   4.057   0.030   0.343 -1.4297  1.8123 -1.3707
15175TIP3   OH266939   4.419   2.068   4.703  0.5490 -0.0479  0.6231
15175TIP3    H166940   4.511   2.077   4.681  0.8545 -1.5643  1.1878
15175TIP3    H266941   4.416   2.071   4.799  0.0321 -0.1203  0.6150
15176TIP3   OH266942   0.507   0.932  16.243 -0.2690 -0.5315 -0.0900
15176TIP3    H166943   0.575   0.979  16.195  0.4777 -2.2771 -0.8310
15176TIP3    H266944   0.472   0.869  16.180 -0.8334 -1.3538  1.0091
15177TIP3   OH266945   1.619   1.472   1.351 -0.3591 -0.4997 -0.2418
15177TIP3    H166946   1.683   1.512   1.292 -0.0659 -1.5653 -0.6619
15177TIP3    H266947   1.658   1.389   1.377 -0.2817  0.1242  1.8337
15178TIP3   OH266948   5.130   4.255  14.844  0.8769  0.8455  0.2912
15178TIP3    H166949   5.210   4.271  14.793  1.3650  1.3806  1.1866
15178TIP3    H266950   5.126   4.160  14.853  0.1234  0.6405 -1.7328
15179TIP3   OH266951   4.576   0.785  13.375  0.5778  0.3254 -0.0506
15179TIP3    H166952   4.642   0.716  13.375  0.2803  0.0237  0.7114
15179TIP3    H266953   4.493   0.740  13.392  0.3019  0.8030 -0.0904
15180TIP3   OH266954   3.253   3.586   4.663 -0.0172  0.1464  0.2326
15180TIP3    H166955   3.215   3.500   4.682 -1.3062  0.1384 -2.0085
15180TIP3    H266956   3.277   3.581   4.571 -2.3437  2.9223 -0.6480
15181TIP3   OH266957   2.247   6.758  15.415  0.3169 -0.1707 -0.5032
15181TIP3    H166958   2.316   6.730  15.475  1.0437 -0.7985 -1.6084
15181TIP3    H266959   2.285   6.749  15.328 -0.7940  0.5170 -1.0884
15182TIP3   OH266960   0.351   2.065  12.861  0.8350  0.1628 -0.0687
15182TIP3    H166961   0.285   2.108  12.916  0.4153 -0.9659  0.3559
15182TIP3    H266962   0.351   2.115  12.780 -0.6903  0.0967 -0.1470
15183TIP3   OH266963   2.159   0.262  12.661 -0.2095  0.4125  0.0421
15183TIP3    H166964   2.065   0.280  12.658 -0.1084  0.9889  0.2031
15183TIP3    H266965   2.181   0.232  12.573 -1.2472 -3.3854  0.8894
15184TIP3   OH266966   5.738   3.132  14.756 -0.1234  0.1799 -0.2139
15184TIP3    H166967   5.769   3.041  14.748 -0.3833  0.0777 -0.0843
15184TIP3    H266968   5.671   3.140  14.688 -0.1621  0.2488 -0.1673
15185TIP3   OH266969   5.960   0.917  16.656  0.1913  0.3184  0.1854
15185TIP3    H166970   5.975   0.862  16.733  1.5446  2.5476  1.6306
15185TIP3    H266971   6.029   0.891  16.595  0.7468  0.2926  0.8051
15186TIP3   OH266972   2.070   2.800  14.855 -0.3992 -0.9345 -0.3832
15186TIP3    H166973   2.118   2.834  14.780 -0.1147 -0.2508  0.0875
15186TIP3    H266974   2.138   2.774  14.917 -0.6095 -2.7045 -0.8563
15187TIP3   OH266975   3.251   2.473  15.114 -0.4340  0.0078 -0.5588
15187TIP3    H166976   3.295   2.437  15.037  0.4040  1.8690 -0.9830
15187TIP3    H266977   3.242   2.398  15.173  2.3900 -0.6915 -0.8693
15188TIP3   OH266978   3.554   3.430   0.115  0.1928 -0.2618  0.2167
15188TIP3    H166979   3.604   3.364   0.163  0.8210 -0.3168 -0.5034
15188TIP3    H266980   3.556   3.507   0.172 -0.0146 -0.6696  0.7807
15189TIP3   OH266981   6.086   0.079   0.452 -0.0832 -0.0019  0.7002
15189TIP3    H166982   6.176   0.112   0.456 -0.5873  1.4817  0.4331
15189TIP3    H266983   6.053   0.088   0.542  0.0324 -0.5378  0.7970
15190TIP3   OH266984   6.580   1.674   5.550  0.2821  0.9182 -0.2071
15190TIP3    H166985   6.630   1.726   5.613  1.4229 -0.5919  0.2076
15190TIP3    H266986   6.646   1.633   5.494 -0.6809  1.6648 -1.9791
15191TIP3   OH266987   6.078   2.895  15.446  0.0010  0.2326  0.4012
15191TIP3    H166988   6.015   2.965  15.464  0.8647  0.7548  1.4255
15191TIP3    H266989   6.075   2.886  15.350 -0.1255  1.6692  0.2417
15192TIP3   OH266990   5.038   5.812  15.303 -0.1603 -0.1235 -0.6306
15192TIP3    H166991   5.094   5.766  15.365  0.4224  0.4329 -0.7339
15192TIP3    H266992   5.040   5.903  15.331  1.0525  0.3566 -2.1081
15193TIP3   OH266993   1.236   1.860  16.175 -0.2454  0.4167  0.1364
15193TIP3    H166994   1.270   1.780  16.135 -0.7209 -0.5102  1.5067
15193TIP3    H266995   1.202   1.912  16.102  0.5373 -0.3961 -0.8272
15194TIP3   OH266996   3.366   0.954   5.968  0.1970 -0.3894 -0.1081
15194TIP3    H166997   3.346   1.023   6.032 -0.9070 -1.7569  1.0998
15194TIP3    H266998   3.331   0.987   5.885  0.9679  1.0942  0.1161
15195TIP3   OH266999   4.234   3.847  10.768  0.2838  0.6000  0.5184
15195TIP3    H167000   4.176   3.922  10.753 -0.1992 -0.1812 -1.9256
15195TIP3    H267001   4.186   3.791  10.829 -1.0173  0.5470 -0.5282
15196TIP3   OH267002   5.559   1.550   6.261 -0.1399  0.0541  0.0620
15196TIP3    H167003   5.630   1.611   6.242  0.2163  0.3955  2.2337
15196TIP3    H267004   5.599   1.482   6.315 -1.1644 -0.4879  0.1579
15197TIP3   OH267005   5.185   4.267   0.057  0.5861  0.4717  0.4993
15197TIP3    H167006   5.137   4.248   0.137 -1.7948 -0.9279 -1.1523
15197TIP3    H267007   5.275   4.284   0.087 -0.3318  0.6988  3.4866
15198TIP3   OH267008   0.444   3.979   1.174  0.4052  0.2091 -0.2637
15198TIP3    H167009   0.353   3.950   1.179 -0.1687  1.4650 -2.0960
15198TIP3    H267010   0.441   4.057   1.118  2.7620 -0.5135 -1.5557
15199TIP3   OH267011   0.105   5.599  11.651  0.1439 -0.0349  0.1193
15199TIP3    H167012   0.151   5.524  11.614  1.7352  0.4683  1.0151
15199TIP3    H267013   0.065   5.642  11.576 -0.1466 -1.3371 -0.4936
15200TIP3   OH267014   0.693   1.946   0.595  0.6969  0.5612 -0.5076
15200TIP3    H167015   0.651   2.012   0.650  1.6626  3.3021 -2.8279
15200TIP3    H267016   0.627   1.923   0.530  1.0518  0.9117 -1.0001
15201TIP3   OH267017   3.702   2.820  14.711  0.4701 -0.5968  0.2406
15201TIP3    H167018   3.763   2.881  14.671 -0.6524  1.8216  1.9686
15201TIP3    H267019   3.615   2.855  14.690 -0.3413 -2.9603 -0.6884
15202TIP3   OH267020   2.819   6.729  12.246 -0.2904  0.0416  0.2563
15202TIP3    H167021   2.748   6.758  12.304  0.1110 -1.4160  1.5556
15202TIP3    H267022   2.888   6.700  12.306  1.1451  0.7599 -0.9819
15203TIP3   OH267023   5.163   0.966   0.189  0.0428 -0.1457 -0.1520
15203TIP3    H167024   5.092   0.943   0.129  0.5836 -0.5539 -0.6558
15203TIP3    H267025   5.199   0.882   0.217  0.2674  0.0545  0.1604
15204TIP3   OH267026   4.374   3.239   5.473 -0.1816  0.3273  0.0921
15204TIP3    H167027   4.434   3.210   5.404 -0.3773 -2.1607  0.8664
15204TIP3    H267028   4.425   3.304   5.523  1.3366 -0.5744 -0.2017
15205TIP3   OH267029   1.237   0.248   2.231 -0.7660 -0.1025 -0.8817
15205TIP3    H167030   1.162   0.197   2.201 -1.7078  0.1133  0.9739
15205TIP3    H267031   1.228   0.332   2.186 -2.0290  0.1443 -0.2126
15206TIP3   OH267032   0.428   2.333  13.975 -0.0457 -0.5156  0.7349
15206TIP3    H167033   0.496   2.324  13.909 -1.6164  0.0234 -1.0400
15206TIP3    H267034   0.474   2.362  14.054  1.6999  0.3300 -0.5379
15207TIP3   OH267035   4.804   1.867  13.554  0.1286  0.0375  0.2741
15207TIP3    H167036   4.712   1.843  13.568  0.4047 -1.4660 -0.3081
15207TIP3    H267037   4.854   1.800  13.600  0.9738  1.3023  1.2933
15208TIP3   OH267038   3.583   4.965   3.407 -0.0147 -0.4636 -0.2087
15208TIP3    H167039   3.513   4.973   3.343  0.3167 -1.8200 -0.7826
15208TIP3    H267040   3.571   4.878   3.445  0.9871 -0.4723  0.1222
15209TIP3   OH267041   5.800   0.873   1.900 -0.2516  0.4932 -0.2028
15209TIP3    H167042   5.785   0.782   1.929 -0.9132  0.4864 -0.5501
15209TIP3    H267043   5.861   0.908   1.965  2.1332 -0.9901 -1.4941
15210TIP3   OH267044   5.247   5.840  10.615 -0.1017  0.5305 -0.3004
15210TIP3    H167045   5.240   5.926  10.574 -0.4138  1.0544  0.8167
15210TIP3    H267046   5.341   5.825  10.625 -0.0543  0.8535 -0.2688
15211TIP3   OH267047   1.165   6.723  16.171 -0.1765  0.2183 -0.2198
15211TIP3    H167048   1.114   6.804  16.164 -0.1669  0.4114  1.5721
15211TIP3    H267049   1.230   6.741  16.239  0.2660 -1.0737 -0.2721
15212TIP3   OH267050   2.330   4.334  12.491  0.0971  0.2718 -0.1800
15212TIP3    H167051   2.278   4.262  12.456 -1.1380  0.1434  1.7595
15212TIP3    H267052   2.405   4.291  12.532 -0.3948  0.0900  0.5589
15213TIP3   OH267053   5.129   2.114  15.263  0.4754 -0.4321  0.6963
15213TIP3    H167054   5.106   2.140  15.353 -1.0905 -2.0432  0.8216
15213TIP3    H267055   5.168   2.027  15.272  0.5675 -0.4899 -0.1604
15214TIP3   OH267056   2.242   2.079  12.191 -0.0059  0.4167  0.1023
15214TIP3    H167057   2.316   2.021  12.168  0.2530  0.6629  0.3028
15214TIP3    H267058   2.243   2.146  12.123 -0.2966  0.1934 -0.1210
15215TIP3   OH267059   4.496   5.175  16.171 -0.0991 -0.4155  0.2448
15215TIP3    H167060   4.434   5.135  16.111 -0.5985 -2.2715  1.8866
15215TIP3    H267061   4.443   5.228  16.230  0.1665 -0.0405  0.1520
15216TIP3   OH267062   0.368   5.472  13.258 -0.5292 -0.0825 -0.2198
15216TIP3    H167063   0.306   5.508  13.195  0.2520  1.7880  0.0191
15216TIP3    H267064   0.426   5.545  13.280  0.5168 -1.2365  1.0872
15217TIP3   OH267065   5.169   6.026  15.074 -0.1847 -0.1725 -0.0474
15217TIP3    H167066   5.161   6.078  15.154 -0.1472  0.4067 -0.4179
15217TIP3    H267067   5.260   5.995  15.075 -0.0581  0.1916 -0.0839
15218TIP3   OH267068   5.987   2.808  13.456 -0.4153  0.0061  0.5415
15218TIP3    H167069   6.039   2.885  13.478  1.5372 -0.4992 -1.8884
15218TIP3    H267070   6.052   2.742  13.429 -2.2121 -1.2687 -0.9152
15219TIP3   OH267071   0.447   1.443   5.064 -0.5485 -0.2696 -0.4628
15219TIP3    H167072   0.503   1.387   5.118  2.5612  2.7410 -0.2231
15219TIP3    H267073   0.434   1.394   4.983  1.5819 -1.5822 -0.0752
15220TIP3   OH267074   0.239   3.557  12.753 -0.6472 -0.1478  0.4438
15220TIP3    H167075   0.189   3.556  12.834  0.0701  1.0013  0.9320
15220TIP3    H267076   0.321   3.600  12.777 -0.6431  0.7027 -1.0118
15221TIP3   OH267077   3.614   2.598  14.843 -0.1076  0.2189 -0.0164
15221TIP3    H167078   3.638   2.689  14.823 -1.7327  0.5542 -0.6631
15221TIP3    H267079   3.634   2.588  14.936  1.1451  0.8671 -0.1952
15222TIP3   OH267080   2.459   6.717  16.580  0.5187  0.6772 -0.0222
15222TIP3    H167081   2.391   6.733  16.515  1.0258  1.7555 -0.3033
15222TIP3    H267082   2.450   6.788  16.643  0.4068 -0.0360  0.7821
15223TIP3   OH267083   3.224   5.487   4.396  0.2687  0.0634  0.2486
15223TIP3    H167084   3.166   5.487   4.319 -1.7461  2.9951  1.5889
15223TIP3    H267085   3.311   5.508   4.360  0.2344 -2.3759 -1.5659
15224TIP3   OH267086   1.223   0.077   5.306 -0.4468  0.5659 -0.1634
15224TIP3    H167087   1.306   0.110   5.339  0.1862 -0.8080 -0.2866
15224TIP3    H267088   1.180   0.039   5.382  0.1382 -0.8499 -0.4950
15225TIP3   OH267089   1.025   3.103   4.739 -0.5142  0.6732  0.0819
15225TIP3    H167090   1.041   3.196   4.725 -0.3535  0.5877 -0.3247
15225TIP3    H267091   1.038   3.090   4.833  1.1833  0.7184 -0.1253
15226TIP3   OH267092   0.746   5.677   5.831 -0.2526  0.5634 -0.1348
15226TIP3    H167093   0.704   5.757   5.864 -0.2158  0.3691  0.3811
15226TIP3    H267094   0.685   5.644   5.765  0.0486  1.3904 -0.8502
15227TIP3   OH267095   0.202   1.241  15.074 -0.1569  0.4119 -0.9098
15227TIP3    H167096   0.263   1.169  15.059 -1.7269 -0.9747 -0.9936
15227TIP3    H267097   0.189   1.242  15.169 -0.9075 -0.1055 -1.0002
15228TIP3   OH267098   3.018   5.798  12.808 -0.3255  0.3520  0.0664
15228TIP3    H167099   3.111   5.776  12.807 -0.7313 -1.6430 -1.6783
15228TIP3    H267100   3.015   5.893  12.819  1.7964  0.2631  2.2903
15229TIP3   OH267101   4.473   3.592  12.087 -0.2811  0.4424 -0.6316
15229TIP3    H167102   4.567   3.581  12.073  0.1847  2.0027  0.9225
15229TIP3    H267103   4.433   3.555  12.008  1.6479  0.1094 -1.5176
15230TIP3   OH267104   3.724   1.148   5.513 -0.0418 -0.1863 -0.0770
15230TIP3    H167105   3.757   1.058   5.507 -0.8500 -0.5028  0.0961
15230TIP3    H267106   3.782   1.190   5.577  0.0984 -0.6986  0.1408
15231TIP3   OH267107   3.044   1.318  13.270  0.4696  0.1701 -0.4491
15231TIP3    H167108   3.024   1.225  13.259  0.1106  0.0387  1.1670
15231TIP3    H267109   2.963   1.363  13.247  0.8614  0.1657 -1.9682
15232TIP3   OH267110   2.865   3.498   2.306 -0.0730 -0.2747 -0.2178
15232TIP3    H167111   2.953   3.472   2.333  0.3411  0.1045 -1.1531
15232TIP3    H267112   2.809   3.473   2.379  0.6861 -1.3191  0.0292
15233TIP3   OH267113   5.587   2.566   2.682 -0.1388  0.2608 -0.0209
15233TIP3    H167114   5.495   2.554   2.656 -0.1209  0.4109 -0.1567
15233TIP3    H267115   5.623   2.625   2.615  0.4047 -0.8190 -0.7005
15234TIP3   OH267116   6.465   5.460  12.062  0.3823  0.3823 -0.4772
15234TIP3    H167117   6.434   5.418  11.982  0.2267 -0.7431  0.1600
15234TIP3    H267118   6.560   5.464  12.053  0.3625  0.2862 -0.7269
15235TIP3   OH267119   4.936   0.275  11.590 -0.4484  0.3490 -0.7499
15235TIP3    H167120   5.017   0.289  11.639 -0.5611  0.6005 -0.6286
15235TIP3    H267121   4.955   0.307  11.502 -0.4801  0.6143 -0.6635
15236TIP3   OH267122   0.848   5.512   2.479 -0.4212 -0.4896 -0.1150
15236TIP3    H167123   0.758   5.480   2.489 -0.7721  0.4078 -0.3039
15236TIP3    H267124   0.874   5.483   2.392 -1.0100  0.3418 -0.5923
15237TIP3   OH267125   2.025   3.261  15.783  0.9561 -0.4288  0.0805
15237TIP3    H167126   2.098   3.299  15.734  1.1853 -0.8544  0.0860
15237TIP3    H267127   2.060   3.245  15.870  0.1672  1.5947  0.8378
15238TIP3   OH267128   5.116   4.394   4.717  0.3591 -0.0354  0.5423
15238TIP3    H167129   5.056   4.454   4.672 -0.0754 -0.4739  0.5253
15238TIP3    H267130   5.175   4.451   4.765 -0.3958  0.3998  0.9770
15239TIP3   OH267131   4.731   6.257   1.263  0.1617 -0.1847  0.3211
15239TIP3    H167132   4.739   6.269   1.358 -0.3748 -1.5028  0.5450
15239TIP3    H267133   4.757   6.166   1.248  0.3803  0.0594 -0.8193
15240TIP3   OH267134   0.390   3.659  13.198 -0.0605 -0.8712 -0.5316
15240TIP3    H167135   0.445   3.684  13.124 -1.8010  0.1188 -1.5710
15240TIP3    H267136   0.301   3.667  13.165 -0.8914 -0.7780  1.5601
15241TIP3   OH267137   1.831   4.160   5.329 -0.3478 -0.0529 -0.0107
15241TIP3    H167138   1.737   4.143   5.332 -0.8337  2.0061 -1.4400
15241TIP3    H267139   1.869   4.076   5.306 -1.8526 -0.8725  0.3317
15242TIP3   OH267140   0.022   5.497  14.113 -0.0635 -0.4813  0.1432
15242TIP3    H167141   0.083   5.534  14.177  0.3125 -2.4709  0.9926
15242TIP3    H267142  -0.050   5.464  14.166 -0.2874 -1.1270 -0.5568
15243TIP3   OH267143   6.542   5.559   6.259 -0.0313  0.6833 -0.0138
15243TIP3    H167144   6.632   5.590   6.257 -0.0957  0.8512 -0.5558
15243TIP3    H267145   6.489   5.639   6.255 -0.2076  0.5215 -2.3564
15244TIP3   OH267146   3.657   4.051   3.738 -0.2920  0.4243 -0.0641
15244TIP3    H167147   3.668   3.973   3.684  1.9021  0.7791 -0.2151
15244TIP3    H267148   3.582   4.097   3.700 -1.0071 -1.1045 -0.5673
15245TIP3   OH267149   5.991   5.333  16.060  0.1692  0.0734 -0.5323
15245TIP3    H167150   5.897   5.335  16.077  0.2939  0.6982  0.1307
15245TIP3    H267151   5.999   5.347  15.966 -0.3834  0.3454 -0.5430
15246TIP3   OH267152   6.345   6.240  14.603 -0.2715  0.2148 -0.5402
15246TIP3    H167153   6.368   6.160  14.554  0.1764 -0.9626  1.4747
15246TIP3    H267154   6.251   6.233  14.618 -0.4067  0.5695 -1.1990
15247TIP3   OH267155   3.045   2.284   1.972  0.3492 -0.1530 -0.7859
15247TIP3    H167156   3.010   2.217   2.030  1.2983 -0.8799 -1.0306
15247TIP3    H267157   3.030   2.366   2.019  2.3105 -0.8172  1.1892
15248TIP3   OH267158   0.184   0.857  15.058  0.3620  0.0733  0.4010
15248TIP3    H167159   0.150   0.807  15.132 -0.9826  1.6102  0.8786
15248TIP3    H267160   0.276   0.871  15.078  0.1454 -0.0239  1.5215
15249TIP3   OH267161   4.909   4.752  12.484 -0.1956 -0.1596  0.0702
15249TIP3    H167162   4.884   4.797  12.403 -0.0492  1.3839  0.8497
15249TIP3    H267163   4.985   4.800  12.516 -2.7562  2.1301  3.3850
15250TIP3   OH267164   1.556   3.839   2.965  0.3033  0.1196 -0.2516
15250TIP3    H167165   1.616   3.765   2.959  0.6737  0.3256  0.7287
15250TIP3    H267166   1.479   3.804   3.009  1.3882  0.8036  2.3795
15251TIP3   OH267167   3.866   4.932   0.471  0.2292 -0.1857  0.5010
15251TIP3    H167168   3.895   4.863   0.412 -1.0257 -0.6440  0.3878
15251TIP3    H267169   3.947   4.969   0.507  0.8976 -2.1649  1.1084
15252TIP3   OH267170   3.037   1.916  15.551 -0.2149 -0.0690 -0.2369
15252TIP3    H167171   3.004   1.996  15.510 -2.6291 -0.5284  0.6327
15252TIP3    H267172   3.112   1.891  15.497  0.6559  2.7602 -0.4984
15253TIP3   OH267173   2.458   3.253   5.004  0.1758  0.1144  0.4232
15253TIP3    H167174   2.458   3.309   5.082 -0.3490  1.4474 -0.4964
15253TIP3    H267175   2.474   3.313   4.931 -1.5813 -0.7267 -0.7202
15254TIP3   OH267176   6.181   3.094  15.258  0.0070  0.0275  0.1627
15254TIP3    H167177   6.202   3.178  15.219 -2.3937  0.0299 -1.3495
15254TIP3    H267178   6.198   3.105  15.351 -1.3028  2.6017  0.1853
15255TIP3   OH267179   5.473   2.745   5.203 -0.2475  0.2464  0.4382
15255TIP3    H167180   5.487   2.739   5.297 -2.1439  0.4865  0.7782
15255TIP3    H267181   5.524   2.821   5.176 -0.0458  0.4411  1.3475
15256TIP3   OH267182   1.722   2.762   1.627  0.0184  0.4017 -0.0763
15256TIP3    H167183   1.741   2.669   1.617 -0.4767  0.4490 -1.8326
15256TIP3    H267184   1.675   2.768   1.710 -0.0478 -0.9299  0.0070
15257TIP3   OH267185   2.526   2.263   0.171 -0.1406  0.1700  0.3052
15257TIP3    H167186   2.538   2.309   0.254  0.6816 -0.6156  0.6320
15257TIP3    H267187   2.466   2.191   0.192 -1.5302  1.1139 -0.2349
15258TIP3   OH267188   0.035   1.543  16.048 -0.7961  0.4746 -0.0686
15258TIP3    H167189  -0.050   1.541  16.091 -0.5595  1.4466  0.4859
15258TIP3    H267190   0.088   1.479  16.094 -0.9731  0.4882  0.1522
15259TIP3   OH267191   3.997   6.435   6.302  0.0067 -0.6604 -0.6447
15259TIP3    H167192   4.024   6.344   6.308  1.2576 -0.2592  0.4058
15259TIP3    H267193   4.056   6.473   6.237  0.2143 -0.3718 -0.2945
15260TIP3   OH267194   5.565   1.882   2.491 -0.4435 -0.1162 -0.0385
15260TIP3    H167195   5.585   1.965   2.535 -0.4806 -0.8898  1.5128
15260TIP3    H267196   5.475   1.892   2.461 -1.0635 -0.1859  1.6740
15261TIP3   OH267197   4.277   6.129  11.400  0.0688  0.8044 -0.3324
15261TIP3    H167198   4.355   6.105  11.450 -0.0300 -1.5002 -1.1968
15261TIP3    H267199   4.270   6.224  11.412  3.0069  1.1125 -0.2418
15262TIP3   OH267200   3.051   0.776   5.479 -0.8585  0.1804 -0.0051
15262TIP3    H167201   3.084   0.737   5.560 -1.7836  1.2481  0.9222
15262TIP3    H267202   2.990   0.710   5.444 -0.4707 -0.2782  0.1689
15263TIP3   OH267203   6.489   2.254  16.872 -0.4113 -0.2968 -0.4668
15263TIP3    H167204   6.547   2.208  16.812  0.0365 -0.5154  0.1254
15263TIP3    H267205   6.444   2.185  16.920 -0.9147 -0.1246 -0.6869
15264TIP3   OH267206   4.936   0.646  16.266 -0.5248 -0.3846 -0.0853
15264TIP3    H167207   4.887   0.720  16.301 -0.5653  0.4097 -1.7286
15264TIP3    H267208   5.027   0.663  16.291 -0.8731 -1.2813  1.9850
15265TIP3   OH267209   0.038   3.107  12.727  0.1533  0.1657 -0.0502
15265TIP3    H167210   0.124   3.106  12.685  0.9574 -0.9029  1.5516
15265TIP3    H267211  -0.022   3.134  12.657  1.1485 -3.2474 -2.4674
15266TIP3   OH267212   4.563   2.054   3.217  0.3434 -0.7772 -0.0733
15266TIP3    H167213   4.528   1.975   3.259 -1.6393  1.6686  3.4965
15266TIP3    H267214   4.486   2.095   3.177  0.5933  0.9029  1.0748
15267TIP3   OH267215   4.049   4.817   1.794  0.4156 -0.2390 -0.1202
15267TIP3    H167216   4.093   4.896   1.825  0.6153 -0.1681 -0.5829
15267TIP3    H267217   4.100   4.788   1.719 -0.0696 -0.4066 -0.3944
15268TIP3   OH267218   4.290   6.754  15.535 -0.4860 -0.2431  0.5514
15268TIP3    H167219   4.195   6.762  15.525 -0.5750  0.3681  1.6806
15268TIP3    H267220   4.325   6.794  15.456 -1.1712  0.0904  0.4038
15269TIP3   OH267221   2.384   1.234  12.188 -0.2979 -0.3067  0.0547
15269TIP3    H167222   2.379   1.214  12.282 -0.1062  0.5801  0.2637
15269TIP3    H267223   2.475   1.262  12.174  0.1868 -2.1619 -0.7707
15270TIP3   OH267224   1.325   5.306   1.562  0.4656 -0.1520  0.1428
15270TIP3    H167225   1.345   5.394   1.595  1.7957  0.3202 -1.7486
15270TIP3    H267226   1.399   5.253   1.589  0.1067 -0.4829  0.4840
15271TIP3   OH267227   0.458   5.884   3.178  0.1893 -0.3338  0.0437
15271TIP3    H167228   0.418   5.861   3.261 -0.6331 -1.1003 -0.5554
15271TIP3    H267229   0.410   5.962   3.149  1.5380  0.9294  1.0240
15272TIP3   OH267230   4.706   5.915  16.419 -0.6741 -0.2251  0.4845
15272TIP3    H167231   4.745   5.841  16.467  0.7512 -0.8687 -1.5174
15272TIP3    H267232   4.630   5.878  16.375 -0.4896 -0.2714  0.2056
15273TIP3   OH267233   5.284   3.887  15.127 -0.0172 -0.0473  0.3384
15273TIP3    H167234   5.336   3.951  15.176 -1.5319  0.5965  1.1688
15273TIP3    H267235   5.259   3.821  15.193 -0.5132 -0.1733  0.0305
15274TIP3   OH267236   4.670   2.590  12.091 -0.1568 -0.7284  0.3390
15274TIP3    H167237   4.617   2.621  12.018  0.9977 -0.9520 -0.6249
15274TIP3    H267238   4.756   2.629  12.077 -0.0925 -0.1929  1.9848
15275TIP3   OH267239   3.751   3.978  12.922  0.2674 -0.2098  0.2493
15275TIP3    H167240   3.716   3.978  12.833  3.2160  1.2022 -1.0440
15275TIP3    H267241   3.797   3.894  12.930  0.8116  0.0701  0.0771
15276TIP3   OH267242   2.659   4.363   4.114  0.5226 -0.3838 -0.5878
15276TIP3    H167243   2.719   4.354   4.188  1.4108 -0.6637 -1.3237
15276TIP3    H267244   2.619   4.276   4.104  0.8528 -0.5109 -0.8097
15277TIP3   OH267245   0.086   5.495   2.713  0.1404  0.2818 -0.6990
15277TIP3    H167246   0.051   5.426   2.770  1.4570 -0.2736 -0.5253
15277TIP3    H267247   0.012   5.555   2.700 -0.2573  0.3360  1.4477
15278TIP3   OH267248   4.049   5.220   0.064  0.5129 -0.1010 -0.4585
15278TIP3    H167249   3.990   5.238  -0.010  0.0503  0.5600  0.0641
15278TIP3    H267250   4.099   5.143   0.036 -0.7507 -0.8191 -0.8217
15279TIP3   OH267251   0.307   6.655   2.276  0.0469  0.0203  0.5628
15279TIP3    H167252   0.383   6.668   2.219 -0.1240  0.9981  0.5451
15279TIP3    H267253   0.232   6.667   2.219 -0.1425 -1.1215  0.5423
15280TIP3   OH267254   0.172   4.511   4.745  0.0362 -0.1378  0.5568
15280TIP3    H167255   0.167   4.607   4.741 -0.1016 -0.1340  0.7872
15280TIP3    H267256   0.255   4.493   4.789  0.1455 -0.1275  0.3556
15281TIP3   OH267257   1.172   0.102  13.910  0.2747  0.2598  0.5029
15281TIP3    H167258   1.083   0.130  13.887  0.5197  0.5680 -0.1145
15281TIP3    H267259   1.173   0.008  13.895 -0.8285 -0.3353  3.4743
15282TIP3   OH267260   5.527   3.425   5.711 -0.3215  0.3131  0.6160
15282TIP3    H167261   5.617   3.410   5.739 -0.6907 -3.5106  0.3035
15282TIP3    H267262   5.534   3.486   5.638  2.4045 -1.9068 -1.1960
15283TIP3   OH267263   0.886   1.875  17.060  0.0226 -0.4060  0.2835
15283TIP3    H167264   0.865   1.796  17.109 -1.3892 -1.3030 -1.6402
15283TIP3    H267265   0.948   1.846  16.993 -0.8913 -0.0310 -0.7568
15284TIP3   OH267266   4.187   2.065   6.630  0.2918 -0.2138 -0.0048
15284TIP3    H167267   4.176   2.149   6.584 -0.8078  0.1082  0.8150
15284TIP3    H267268   4.278   2.040   6.611  0.3581  0.6938 -1.0307
15285TIP3   OH267269   4.788   4.482   1.465 -0.4908 -0.4430 -0.6550
15285TIP3    H167270   4.768   4.570   1.432 -1.0157 -0.9582 -1.7366
15285TIP3    H267271   4.732   4.473   1.542 -0.5368  0.1092 -0.6154
15286TIP3   OH267272   4.170   2.344   1.571 -0.4567  0.3201  0.3758
15286TIP3    H167273   4.137   2.256   1.550 -0.5648 -0.0367  1.9389
15286TIP3    H267274   4.265   2.335   1.570 -0.4553  0.3596 -0.1324
15287TIP3   OH267275   1.390   3.726  17.110  0.0160 -0.4388 -0.2201
15287TIP3    H167276   1.317   3.664  17.116  0.5783 -1.0964 -0.0173
15287TIP3    H267277   1.427   3.710  17.023 -0.8344  0.7813 -0.8500
15288TIP3   OH267278   6.018   5.604   5.919  0.5149 -0.0886 -0.4848
15288TIP3    H167279   6.084   5.595   5.988 -0.1133 -0.0440  0.1359
15288TIP3    H267280   6.065   5.583   5.838  1.1908 -0.4529 -0.0115
15289TIP3   OH267281   5.685   1.861  14.044  0.8778 -0.4073  0.2530
15289TIP3    H167282   5.716   1.930  14.104  1.3374 -0.3951  0.0055
15289TIP3    H267283   5.745   1.865  13.970  0.6123 -0.7585  0.0174
15290TIP3   OH267284   1.672   5.509   3.355 -0.0986  0.2518  0.0056
15290TIP3    H167285   1.605   5.571   3.325  0.5304  1.0677  0.2536
15290TIP3    H267286   1.643   5.424   3.321 -2.1426  0.2730  1.4853
15291TIP3   OH267287   2.772   2.242   0.060  0.3101  0.6777 -0.4185
15291TIP3    H167288   2.810   2.328   0.078 -1.5734  1.5861 -0.5777
15291TIP3    H267289   2.692   2.239   0.113  0.2416 -0.9084 -0.5647
15292TIP3   OH267290   3.317   2.901   4.164 -0.0299 -0.3045  0.3877
15292TIP3    H167291   3.242   2.961   4.164  0.3847  0.2332 -0.7142
15292TIP3    H267292   3.310   2.853   4.082  1.8327  1.0749 -0.6376
15293TIP3   OH267293   3.647   4.940   6.278  0.2661  0.0479 -0.4641
15293TIP3    H167294   3.585   4.888   6.329  0.4942  1.0113  0.8459
15293TIP3    H267295   3.733   4.918   6.315  0.6255 -0.5251 -1.5981
15294TIP3   OH267296   4.516   3.512   3.514  0.2047 -0.5887  0.3565
15294TIP3    H167297   4.593   3.459   3.534 -1.2206 -2.3673  1.4235
15294TIP3    H267298   4.461   3.505   3.592 -0.8419  1.0543 -0.1818
15295TIP3   OH267299   3.674   1.736   0.389  0.0829  0.0858 -0.0907
15295TIP3    H167300   3.655   1.707   0.299  2.8654 -0.4343 -0.6199
15295TIP3    H267301   3.698   1.828   0.379  1.2731 -0.2051 -0.0644
15296TIP3   OH267302   0.029   3.754   4.145 -0.0125  0.2169 -0.5840
15296TIP3    H167303   0.048   3.789   4.058 -1.6425  1.5989 -0.4295
15296TIP3    H267304   0.113   3.753   4.190  0.9792 -1.1477 -2.3622
15297TIP3   OH267305   3.912   1.813   2.683 -0.2687 -0.0112  0.1164
15297TIP3    H167306   3.869   1.886   2.639 -0.9716 -0.1864  0.5032
15297TIP3    H267307   4.000   1.811   2.645  0.1439  1.7255  0.8834
15298TIP3   OH267308   4.266   1.270   3.563  0.1052  0.3147  0.4743
15298TIP3    H167309   4.220   1.303   3.486  0.5747  1.2591  0.5785
15298TIP3    H267310   4.305   1.348   3.603 -1.2254  0.0414  2.4266
15299TIP3   OH267311   1.697   1.376  11.356  0.3860  0.1014 -0.6621
15299TIP3    H167312   1.735   1.291  11.334  0.2380 -1.2239  3.4535
15299TIP3    H267313   1.766   1.423  11.402 -0.9560  0.1314  1.4732
15300TIP3   OH267314   6.259   1.111   3.098 -0.3228  0.0487  0.7585
15300TIP3    H167315   6.203   1.034   3.091  0.7666 -0.8280  1.3385
15300TIP3    H267316   6.314   1.108   3.020  1.3235 -1.1293  1.8821
15301TIP3   OH267317   3.253   4.502   2.776  0.1919 -0.3037  0.0585
15301TIP3    H167318   3.215   4.426   2.731  2.8512 -2.0953  0.5783
15301TIP3    H267319   3.346   4.499   2.752  0.7850  1.5099  1.8900
15302TIP3   OH267320   6.303   3.922  15.628  0.2159 -0.4825 -0.0615
15302TIP3    H167321   6.250   3.855  15.672 -1.8725  1.5421  0.6988
15302TIP3    H267322   6.371   3.945  15.691  0.4292 -1.2469  0.0005
15303TIP3   OH267323   3.026   1.847   5.604  0.7359 -0.6829  0.0718
15303TIP3    H167324   3.078   1.896   5.668 -1.7060  0.1966  1.4915
15303TIP3    H267325   2.971   1.789   5.658  0.5177 -1.8841 -1.3880
15304TIP3   OH267326   2.575   0.741  14.015  0.5147 -0.0361 -0.3114
15304TIP3    H167327   2.508   0.677  14.041  1.4522 -0.9246  0.0053
15304TIP3    H267328   2.528   0.806  13.963 -0.3625 -1.3310 -1.1912
15305TIP3   OH267329   4.925   3.471   2.591 -0.2433 -0.0552  0.3514
15305TIP3    H167330   4.884   3.524   2.522 -1.6885 -1.3464  0.1729
15305TIP3    H267331   4.864   3.477   2.664  0.3391 -0.2687  0.8632
15306TIP3   OH267332   1.754   4.042  12.147 -0.1413 -0.2620  0.3121
15306TIP3    H167333   1.799   3.987  12.083  0.3052  2.0561 -1.5032
15306TIP3    H267334   1.788   4.130  12.132 -2.6477  0.9966  1.3340
15307TIP3   OH267335   2.481   0.553   0.372  0.4873  0.4328  0.7137
15307TIP3    H167336   2.519   0.467   0.354  1.3573  0.7366  1.0140
15307TIP3    H267337   2.404   0.558   0.316  1.6480  0.3219 -0.9766
15308TIP3   OH267338   0.995   1.022   3.158 -0.1164  0.0501  0.5424
15308TIP3    H167339   0.979   1.000   3.066  0.3787  1.2062  0.1720
15308TIP3    H267340   1.053   0.952   3.189  0.1177 -0.0774 -0.1670
15309TIP3   OH267341   3.333   5.310   3.716  0.3192 -0.6157  0.2025
15309TIP3    H167342   3.353   5.358   3.636  1.6722  0.7647  1.3043
15309TIP3    H267343   3.363   5.221   3.699  0.8138 -0.2833 -0.7303
15310TIP3   OH267344   0.068   6.031   0.066 -0.0780  0.2962  0.4342
15310TIP3    H167345   0.085   6.121   0.092 -0.7443  0.0577  1.8151
15310TIP3    H267346  -0.018   6.033   0.024  1.0397  0.6974 -2.0284
15311TIP3   OH267347   3.394   0.393   0.990 -0.1278 -0.1998 -0.1016
15311TIP3    H167348   3.384   0.434   1.076 -0.1278  2.7611 -1.3834
15311TIP3    H267349   3.350   0.453   0.930  0.8800 -1.5654 -2.3315
15312TIP3   OH267350   6.402   1.515  12.845  0.9296 -0.6475 -0.7142
15312TIP3    H167351   6.335   1.464  12.891  0.5749  0.4318  0.0107
15312TIP3    H267352   6.354   1.587  12.806  1.5959 -0.1265 -0.5917
15313TIP3   OH267353   2.465   6.401  11.999 -0.3959  0.6478 -0.7444
15313TIP3    H167354   2.537   6.365  11.947 -0.9863 -0.6101 -0.7522
15313TIP3    H267355   2.507   6.461  12.061  0.8608 -1.0242  0.1323
15314TIP3   OH267356   1.583   4.132  15.047 -0.2194 -0.2528  0.3050
15314TIP3    H167357   1.592   4.041  15.075  1.6241 -0.8991 -2.0077
15314TIP3    H267358   1.489   4.146  15.039 -0.5148 -2.2612 -0.1166
15315TIP3   OH267359   1.418   0.948  11.712 -0.0458 -0.1316 -0.4581
15315TIP3    H167360   1.431   0.961  11.618 -0.5039  0.4412 -0.4497
15315TIP3    H267361   1.486   0.886  11.738 -0.2136 -0.6589 -1.2570
15316TIP3   OH267362   6.614   6.464  14.076 -0.2732 -0.1074  1.2463
15316TIP3    H167363   6.627   6.377  14.037 -1.1043  0.3167 -0.0170
15316TIP3    H267364   6.553   6.449  14.148  0.1071 -0.6682  1.4617
15317TIP3   OH267365   6.616   1.459  15.387  0.2572 -0.0797 -0.4539
15317TIP3    H167366   6.530   1.432  15.357  0.6083 -2.5037  0.4787
15317TIP3    H267367   6.610   1.457  15.482  0.9887  1.0310 -0.3667
15318TIP3   OH267368   0.987   4.630   4.841  0.0027  0.1830  0.1347
15318TIP3    H167369   0.963   4.649   4.750  0.5395  1.7994  0.3125
15318TIP3    H267370   0.955   4.705   4.891  2.0396  0.6038  0.8906
15319TIP3   OH267371   3.129   1.415  14.454 -0.1445  0.1596 -0.4247
15319TIP3    H167372   3.140   1.343  14.516 -1.9557  1.3127  1.3524
15319TIP3    H267373   3.040   1.404  14.419 -0.1987  1.1348 -0.6326
15320TIP3   OH267374   1.768   0.607  15.080 -0.1366 -0.3119  0.3981
15320TIP3    H167375   1.707   0.648  15.141 -2.0931 -2.8172  0.2990
15320TIP3    H267376   1.800   0.529  15.126 -0.9671 -1.7711 -1.3734
15321TIP3   OH267377   3.291   3.092  15.216  0.2507  0.3779  0.1266
15321TIP3    H167378   3.245   3.013  15.188  0.1178  1.0358 -1.6304
15321TIP3    H267379   3.332   3.126  15.136  1.3427  1.4167  1.0775
15322TIP3   OH267380   4.502   0.561   2.996 -0.1058 -0.0212  0.5221
15322TIP3    H167381   4.422   0.512   3.018  1.5097 -1.5319  3.7350
15322TIP3    H267382   4.511   0.625   3.066  0.8667  1.0195 -0.5099
15323TIP3   OH267383   4.734   1.431  12.827  0.0413 -0.1852 -0.4758
15323TIP3    H167384   4.814   1.479  12.805  0.8536 -1.5968 -0.6953
15323TIP3    H267385   4.670   1.500  12.847  1.4060  0.9589  0.1070
15324TIP3   OH267386   4.002   1.606   0.977  0.0608  0.0311  0.2576
15324TIP3    H167387   3.933   1.634   0.916 -3.4772 -1.2836  3.2985
15324TIP3    H267388   4.032   1.687   1.018  0.3625  0.6178 -1.0577
15325TIP3   OH267389   0.260   1.286   5.487  0.0690 -0.2563  0.5555
15325TIP3    H167390   0.175   1.311   5.524  0.7109  0.6291  1.4873
15325TIP3    H267391   0.255   1.314   5.395 -0.6343 -0.2034  0.5999
15326TIP3   OH267392   3.019   3.467   0.305 -0.2605  0.3211 -0.4050
15326TIP3    H167393   2.998   3.545   0.253  0.2219  0.8732  0.2117
15326TIP3    H267394   3.112   3.451   0.286 -0.6098 -0.7423 -1.3420
15327TIP3   OH267395   3.963   4.141  11.891 -0.0547 -0.5729 -0.4703
15327TIP3    H167396   4.051   4.180  11.896 -0.0837 -0.5548 -0.0245
15327TIP3    H267397   3.945   4.134  11.798  1.0973 -2.0902 -0.6256
15328TIP3   OH267398   5.028   4.592  14.519  0.4996  0.1085 -0.3789
15328TIP3    H167399   4.999   4.558  14.434  2.2914  0.9838 -1.3906
15328TIP3    H267400   4.996   4.528  14.582  0.4641 -1.4012 -1.8471
15329TIP3   OH267401   3.822   4.646  12.284  0.0488 -0.3970  0.1873
15329TIP3    H167402   3.864   4.644  12.370  0.9827  2.1012 -0.1370
15329TIP3    H267403   3.869   4.580  12.233  0.6411 -0.6983  1.0892
15330TIP3   OH267404   1.730   5.293   6.205  0.1310  0.9721 -0.0224
15330TIP3    H167405   1.692   5.305   6.118  0.3829  1.5387 -0.0608
15330TIP3    H267406   1.693   5.210   6.236  0.5098  0.4521 -0.9097
15331TIP3   OH267407   2.831   0.374   0.746  0.1772  0.3121 -0.1320
15331TIP3    H167408   2.755   0.338   0.792  0.3108  0.6368  0.3428
15331TIP3    H267409   2.821   0.468   0.752 -0.2788  0.3845 -1.5511
15332TIP3   OH267410   3.804   4.667   1.427 -0.3334 -0.5280  0.0132
15332TIP3    H167411   3.835   4.755   1.406  1.3189 -1.4937 -1.8846
15332TIP3    H267412   3.720   4.660   1.381 -2.8888  1.4932  3.8004
15333TIP3   OH267413   0.556   2.267   5.822 -0.0023  0.4783  0.3487
15333TIP3    H167414   0.585   2.182   5.788  1.9618  0.9398  0.7210
15333TIP3    H267415   0.555   2.256   5.917 -0.7437  0.5863  0.3569
15334TIP3   OH267416   1.322   4.352   1.999  0.5019  0.0012 -0.0551
15334TIP3    H167417   1.267   4.371   1.923  0.4476  0.1957  0.0334
15334TIP3    H267418   1.412   4.359   1.966  0.4795  0.2083 -0.0697
15335TIP3   OH267419   5.436   5.919   5.732  0.4703  0.1223 -0.3510
15335TIP3    H167420   5.481   5.840   5.702 -2.0509 -1.7114  0.2828
15335TIP3    H267421   5.444   5.917   5.827 -0.5884 -0.0572 -0.2482
15336TIP3   OH267422   1.820   5.697   4.268 -0.0102 -0.4161  0.0189
15336TIP3    H167423   1.745   5.712   4.211 -0.3047  1.6505  0.8614
15336TIP3    H267424   1.858   5.784   4.281  1.0462 -1.0687  1.5954
15337TIP3   OH267425   6.546   3.394   0.420 -0.2702 -0.8392  0.5104
15337TIP3    H167426   6.573   3.395   0.512 -2.5691  1.7546  1.2592
15337TIP3    H267427   6.607   3.454   0.376 -0.4372 -0.5149  0.7286
15338TIP3   OH267428   5.033   1.282   0.407 -0.3579 -0.5605  0.1970
15338TIP3    H167429   5.031   1.344   0.480 -3.7574  1.7222 -1.5519
15338TIP3    H267430   5.092   1.322   0.343 -0.2319 -0.6751  0.2410
15339TIP3   OH267431   5.105   0.154   5.364 -0.4136  0.2887 -0.5139
15339TIP3    H167432   5.124   0.063   5.342 -2.2343 -0.2070 -0.2743
15339TIP3    H267433   5.056   0.188   5.289 -0.0750  0.9508 -0.4444
15340TIP3   OH267434   6.307   6.500   0.588  0.2320  0.6491  0.6878
15340TIP3    H167435   6.288   6.407   0.582  0.8149  0.6287 -1.3021
15340TIP3    H267436   6.375   6.516   0.523  0.1982  2.4585  1.0371
15341TIP3   OH267437   2.027   2.294   5.346  0.0811 -0.7324 -0.1667
15341TIP3    H167438   1.962   2.316   5.279 -1.5341 -1.7375  0.9694
15341TIP3    H267439   2.076   2.375   5.360 -1.1530  0.1730 -0.8625
15342TIP3   OH267440   2.982   3.416   4.536  0.1544  0.3939 -0.6634
15342TIP3    H167441   3.027   3.356   4.477 -1.1116  1.6632 -3.1139
15342TIP3    H267442   2.960   3.492   4.481 -1.5438  1.4877  1.3365
15343TIP3   OH267443   6.305   6.466   3.963  0.0293 -0.1096  0.8241
15343TIP3    H167444   6.311   6.477   3.868  1.2162  0.6918  0.9754
15343TIP3    H267445   6.220   6.505   3.985 -0.8019 -1.3577 -0.0271
15344TIP3   OH267446   4.167   6.210  11.746 -0.0451 -0.0864  0.1973
15344TIP3    H167447   4.197   6.170  11.827 -3.2774 -0.8782  1.1837
15344TIP3    H267448   4.160   6.304  11.766  0.3849 -0.0977  0.4003
15345TIP3   OH267449   5.811   4.308  11.027  0.3180  0.4863  0.5317
15345TIP3    H167450   5.804   4.213  11.026  1.1976  0.3946  1.3364
15345TIP3    H267451   5.894   4.326  11.073 -0.4347  1.6595  1.5056
15346TIP3   OH267452   4.616   0.783   1.350 -0.9177 -0.2108  0.3504
15346TIP3    H167453   4.662   0.754   1.272  0.0508  1.5764  0.2216
15346TIP3    H267454   4.573   0.704   1.383 -0.7452 -1.1467 -1.5529
15347TIP3   OH267455   5.976   4.215   6.115 -0.4940  0.9169  0.2252
15347TIP3    H167456   5.899   4.173   6.076 -0.9179  0.7263  1.2421
15347TIP3    H267457   6.022   4.255   6.041 -0.6381 -0.4538 -0.6201
15348TIP3   OH267458   0.564   4.015   3.172  0.2314  0.2014 -0.3767
15348TIP3    H167459   0.657   3.992   3.172  0.1407 -0.1654 -0.4334
15348TIP3    H267460   0.523   3.951   3.114 -0.2410 -0.4207  0.6215
15349TIP3   OH267461   0.115   0.929  14.189 -0.1980  0.1589 -0.2310
15349TIP3    H167462   0.030   0.973  14.195  0.0643  0.5014  1.7613
15349TIP3    H267463   0.177   1.000  14.173 -0.3650 -0.2351 -3.0453
15350TIP3   OH267464   5.939   5.873   2.095  0.3110  0.1428  0.4398
15350TIP3    H167465   5.912   5.782   2.107  0.0518  0.1464 -0.0921
15350TIP3    H267466   5.893   5.902   2.016  1.3825  0.3394 -0.1436
15351TIP3   OH267467   3.835   2.787  12.370 -0.0538 -0.4731 -0.0305
15351TIP3    H167468   3.857   2.713  12.427  0.4847 -0.2590  0.0448
15351TIP3    H267469   3.891   2.775  12.294  0.1890 -0.0282  0.0766
15352TIP3   OH267470   6.452   2.782   0.248  0.0346 -0.1029 -0.8143
15352TIP3    H167471   6.528   2.830   0.217  1.3476 -2.0869 -0.8540
15352TIP3    H267472   6.427   2.726   0.173  0.8557 -2.1233  0.3297
15353TIP3   OH267473   3.849   4.620   3.115  0.1634  0.6342  0.2710
15353TIP3    H167474   3.858   4.616   3.210  1.5743 -0.7693  0.1087
15353TIP3    H267475   3.763   4.582   3.097 -0.0486  0.7722  0.9678
15354TIP3   OH267476   0.395   6.312  10.947 -0.1822 -0.0477 -0.5418
15354TIP3    H167477   0.355   6.237  10.991 -0.8497  0.9990  0.7228
15354TIP3    H267478   0.323   6.374  10.935  0.8183  1.5198  0.9768
15355TIP3   OH267479   3.442   3.489   5.899  0.0183 -0.0097  0.1377
15355TIP3    H167480   3.360   3.528   5.932 -0.6791  0.0708 -1.5829
15355TIP3    H267481   3.442   3.400   5.934 -0.9997 -0.1250 -0.1006
15356TIP3   OH267482   2.378   3.148  15.530 -0.1404 -0.0578 -0.3501
15356TIP3    H167483   2.307   3.141  15.467 -1.1785  0.0082  0.7802
15356TIP3    H267484   2.360   3.229  15.578  0.4370 -0.2739  0.2478
15357TIP3   OH267485   6.656   6.685  12.898  0.1615 -0.5693  0.5122
15357TIP3    H167486   6.574   6.716  12.859  0.3142  0.1274  0.7155
15357TIP3    H267487   6.633   6.602  12.939 -0.1504 -0.9878 -0.4813
15358TIP3   OH267488   6.235   2.875   2.342 -0.0714  0.1415  0.0926
15358TIP3    H167489   6.328   2.897   2.344  0.1214  0.1953 -3.1475
15358TIP3    H267490   6.229   2.792   2.390  1.5436  0.3962  0.8076
15359TIP3   OH267491   0.025   6.574   3.868 -0.2526 -0.1893  0.0540
15359TIP3    H167492  -0.020   6.650   3.831 -0.2831 -0.6339 -0.8571
15359TIP3    H267493   0.037   6.515   3.793  2.5513  0.2442  0.0891
15360TIP3   OH267494   3.639   2.415  15.983 -0.2588 -0.5195  0.4325
15360TIP3    H167495   3.698   2.341  15.978  0.8313  0.2770  1.0810
15360TIP3    H267496   3.592   2.404  16.065  1.0458  0.2938  1.3321
15361TIP3   OH267497   6.070   3.896  12.488 -0.1862  0.5368 -0.2151
15361TIP3    H167498   6.057   3.899  12.583  0.7699 -0.4981 -0.0188
15361TIP3    H267499   6.060   3.986  12.459 -1.1049  0.7752  0.7795
15362TIP3   OH267500   5.221   2.104   0.723  0.3776  0.1804 -0.2513
15362TIP3    H167501   5.193   2.185   0.766  0.0152  0.0747 -0.2825
15362TIP3    H267502   5.257   2.133   0.639 -0.0571  0.2865 -0.4066
15363TIP3   OH267503   1.099   1.412   0.713  0.4612  0.2591 -0.1396
15363TIP3    H167504   1.107   1.496   0.758  0.3475  1.1226 -1.6573
15363TIP3    H267505   1.180   1.403   0.664  0.1507 -0.1478 -0.5882
15364TIP3   OH267506   0.176   5.989   3.169 -0.8843 -0.2533 -0.6271
15364TIP3    H167507   0.187   5.894   3.179  1.8229 -0.2659 -2.4718
15364TIP3    H267508   0.121   5.998   3.091 -0.2419 -0.3623 -1.1077
15365TIP3   OH267509   5.628   2.495  13.108 -0.1156 -0.4124  0.3916
15365TIP3    H167510   5.563   2.565  13.098 -0.3749 -0.4948  1.3831
15365TIP3    H267511   5.691   2.529  13.171 -0.4440 -1.2015  1.1698
15366TIP3   OH267512   1.364   4.707  16.418 -0.1563 -0.2555 -0.4121
15366TIP3    H167513   1.290   4.749  16.462 -0.4427 -0.6597 -0.5020
15366TIP3    H267514   1.410   4.779  16.374 -0.8393 -0.0719 -0.8531
15367TIP3   OH267515   0.331   3.766   4.733  0.0605 -0.1186 -0.0818
15367TIP3    H167516   0.369   3.833   4.791  1.7017  1.9670 -3.2268
15367TIP3    H267517   0.286   3.816   4.665 -0.7719 -2.3575 -1.2834
15368TIP3   OH267518   2.685   2.849   2.993 -0.2769  0.2844 -0.0978
15368TIP3    H167519   2.766   2.819   3.034 -0.5134 -2.0980 -1.1464
15368TIP3    H267520   2.620   2.845   3.062  0.2364  0.8853  0.4223
15369TIP3   OH267521   2.273   5.994  11.179 -0.1770 -0.2702  0.2216
15369TIP3    H167522   2.323   6.060  11.132  0.6580 -0.8066  0.3337
15369TIP3    H267523   2.186   5.996  11.140 -0.1776  0.9367  0.2731
15370TIP3   OH267524   1.924   2.989  12.454 -0.1740  0.4197 -0.2281
15370TIP3    H167525   1.834   2.963  12.434  0.4876 -2.3734  0.0225
15370TIP3    H267526   1.942   2.949  12.539  2.0724 -1.3495 -1.4111
15371TIP3   OH267527   6.723   3.402   4.468  0.1958  0.2007 -0.0149
15371TIP3    H167528   6.639   3.370   4.435  0.7532  1.3419 -2.8215
15371TIP3    H267529   6.782   3.327   4.461 -0.1199 -0.0603  0.1022
15372TIP3   OH267530   6.362   3.995   1.714 -0.1364 -0.2689  0.8811
15372TIP3    H167531   6.323   3.912   1.686  2.0434 -0.4332 -2.0226
15372TIP3    H267532   6.449   3.971   1.747  0.1214  0.7683  0.9863
15373TIP3   OH267533   0.760   4.335   1.210 -0.2261  0.0802 -0.2466
15373TIP3    H167534   0.797   4.247   1.206  1.0831  0.5626  0.5795
15373TIP3    H267535   0.665   4.322   1.209 -0.0510 -1.3658  0.2938
15374TIP3   OH267536   0.860   5.277   5.662 -0.2203 -0.2860 -0.0309
15374TIP3    H167537   0.901   5.258   5.747 -0.9009 -0.2921  0.2999
15374TIP3    H267538   0.795   5.344   5.682  0.0143  0.1364 -0.6558
15375TIP3   OH267539   5.206   6.768  14.502  0.6693  0.5569 -0.5853
15375TIP3    H167540   5.290   6.807  14.479  0.8292  0.0752 -0.8296
15375TIP3    H267541   5.215   6.676  14.478  0.1949  0.4293 -0.2853
15376TIP3   OH267542   6.024   5.783  15.644 -0.3480 -0.9509  0.5864
15376TIP3    H167543   6.060   5.871  15.649 -0.3548 -0.8345 -0.9562
15376TIP3    H267544   5.954   5.789  15.579  0.5357 -2.3475 -0.5805
15377TIP3   OH267545   3.892   3.515   3.753 -0.5359  0.1275  0.4585
15377TIP3    H167546   3.898   3.598   3.798  0.4057  0.0441  0.4907
15377TIP3    H267547   3.939   3.528   3.671  0.7332 -0.7360  1.0200
15378TIP3   OH267548   3.637   1.800   2.166 -0.1619 -0.2189  0.7629
15378TIP3    H167549   3.548   1.775   2.143 -1.3057  1.2949  3.1923
15378TIP3    H267550   3.640   1.797   2.261  1.7465  1.7476  0.8456
15379TIP3   OH267551   0.394   4.848  13.311 -0.3557  0.0892 -0.0764
15379TIP3    H167552   0.377   4.921  13.251 -0.2923  0.9771  0.9480
15379TIP3    H267553   0.345   4.775  13.274 -1.8049  1.0920 -0.2415
15380TIP3   OH267554   6.247   1.973   4.335 -0.8056  0.0571 -0.7918
15380TIP3    H167555   6.311   1.904   4.320  0.6935  1.7797 -3.0771
15380TIP3    H267556   6.298   2.054   4.331 -2.5891  1.3858  1.1193
15381TIP3   OH267557   0.758   1.486  14.052 -0.5579  0.2163  0.2150
15381TIP3    H167558   0.834   1.433  14.077 -0.3330  0.0842 -0.7129
15381TIP3    H267559   0.795   1.555  13.996 -1.1075  0.2038 -0.1721
15382TIP3   OH267560   4.728   6.534   0.638  0.2244  0.3016  0.2556
15382TIP3    H167561   4.676   6.463   0.602 -0.6220  0.3013  1.4100
15382TIP3    H267562   4.792   6.556   0.570  1.4425 -2.4949  0.3737
15383TIP3   OH267563   6.428   3.317   6.397  0.0743  0.8774  0.1634
15383TIP3    H167564   6.350   3.270   6.367 -1.0048  2.4089  0.5051
15383TIP3    H267565   6.478   3.251   6.445 -2.5093  0.5536  2.6738
15384TIP3   OH267566   6.303   5.636   0.015 -0.5212  0.5195 -0.4089
15384TIP3    H167567   6.252   5.623  -0.065 -0.4240 -1.4773 -0.1991
15384TIP3    H267568   6.333   5.727   0.010 -0.3615  0.4070 -2.7288
15385TIP3   OH267569   1.006   4.239   4.168 -0.3805 -0.0504  0.2029
15385TIP3    H167570   0.989   4.331   4.151  0.6318 -0.0236 -0.7338
15385TIP3    H267571   0.920   4.202   4.189 -0.8116  1.0666  0.4657
15386TIP3   OH267572   3.605   2.895   5.459 -0.2694  0.6002  0.5198
15386TIP3    H167573   3.644   2.948   5.389  0.4402  1.0633  1.2611
15386TIP3    H267574   3.528   2.855   5.417 -0.1091  1.2145 -0.4041
15387TIP3   OH267575   4.049   4.943  13.369  0.0403 -0.0475  0.0399
15387TIP3    H167576   3.977   4.983  13.321 -1.1672 -2.1597 -0.0027
15387TIP3    H267577   4.124   4.948  13.309 -0.7629 -0.2326 -1.0035
15388TIP3   OH267578   1.649   5.882   0.273 -0.8960 -0.0378 -0.3934
15388TIP3    H167579   1.574   5.823   0.271 -1.0576  0.1358  0.4152
15388TIP3    H267580   1.717   5.832   0.318 -0.6447 -0.0556 -0.7907
15389TIP3   OH267581   0.132   2.058   2.581 -0.4390 -0.1070  0.1367
15389TIP3    H167582   0.179   1.979   2.609 -1.4561 -1.0535 -0.7449
15389TIP3    H267583   0.045   2.049   2.620 -1.0497 -0.1906 -1.1770
15390TIP3   OH267584   2.644   6.513  15.671  0.5761  0.1106 -0.2278
15390TIP3    H167585   2.725   6.493  15.718 -0.1413 -0.5511  0.7454
15390TIP3    H267586   2.581   6.448  15.701  0.1826 -0.6403 -2.4304
15391TIP3   OH267587   4.701   5.854  13.979 -0.2358  0.1053  0.4433
15391TIP3    H167588   4.637   5.830  13.912 -2.2463  0.4947  2.1209
15391TIP3    H267589   4.786   5.848  13.934 -1.3493 -1.1396 -1.6788
15392TIP3   OH267590   1.936   5.109   0.540 -0.2576  0.0841 -0.5332
15392TIP3    H167591   1.930   5.068   0.626 -0.5014  1.4265  0.1104
15392TIP3    H267592   1.960   5.037   0.481 -0.6852 -0.9736  0.5411
15393TIP3   OH267593   1.877   1.776  14.627 -0.2721 -0.7865  0.4417
15393TIP3    H167594   1.957   1.733  14.659 -1.6169 -2.2404  2.0212
15393TIP3    H267595   1.821   1.705  14.598 -1.6726  0.0576  0.9778
15394TIP3   OH267596   4.254   4.596   3.265  0.4746  0.5113 -0.0814
15394TIP3    H167597   4.274   4.526   3.203  1.4908  0.4223  0.3306
15394TIP3    H267598   4.181   4.643   3.225  0.5507 -0.0680 -0.9279
15395TIP3   OH267599   6.244   5.418  16.123 -0.0356  0.4893  0.4778
15395TIP3    H167600   6.269   5.469  16.045 -0.9076 -0.0006 -0.1379
15395TIP3    H267601   6.157   5.384  16.102 -0.5235  0.8047  1.8995
15396TIP3   OH267602   4.415   3.397  12.846  0.1177  0.0538 -0.2296
15396TIP3    H167603   4.335   3.382  12.897  1.3127 -0.3456  1.5962
15396TIP3    H267604   4.385   3.395  12.755 -1.8543 -0.6854  0.3779
15397TIP3   OH267605   5.135   3.416  16.666  0.1706 -0.0416 -0.4147
15397TIP3    H167606   5.156   3.457  16.750  1.5900 -0.4776 -0.5318
15397TIP3    H267607   5.039   3.416  16.662  0.0999  0.4889  0.9477
15398TIP3   OH267608   6.632   4.119  13.326 -0.3417 -0.3642 -0.1007
15398TIP3    H167609   6.615   4.113  13.232  0.3165  0.9411 -0.3364
15398TIP3    H267610   6.645   4.213  13.341  1.5728 -0.7523  0.9327
15399TIP3   OH267611   6.181   3.903   4.258 -0.0781 -0.3332  0.5789
15399TIP3    H167612   6.221   3.987   4.280 -0.3898  0.4393 -1.4961
15399TIP3    H267613   6.254   3.847   4.233  0.0636 -0.3677  1.0814
15400TIP3   OH267614   3.115   3.751   5.655  0.1128 -0.2418 -0.3704
15400TIP3    H167615   3.200   3.720   5.686 -0.4815 -1.6262 -0.0106
15400TIP3    H267616   3.129   3.842   5.630  1.7857 -0.5671 -0.6915
15401TIP3   OH267617   1.797   2.870   4.905  0.0523 -0.3060  0.1017
15401TIP3    H167618   1.751   2.954   4.899  0.2887 -0.1979 -0.2405
15401TIP3    H267619   1.729   2.806   4.926 -1.0298 -0.7968 -4.0213
15402TIP3   OH267620   6.473   0.641  11.177  0.2664 -0.5220 -0.2195
15402TIP3    H167621   6.460   0.549  11.202 -1.0070 -0.1900  0.4146
15402TIP3    H267622   6.567   0.656  11.189  0.3316 -1.4674  0.5887
15403TIP3   OH267623   0.451   1.547  16.153 -0.0812 -0.0218  0.6825
15403TIP3    H167624   0.532   1.500  16.172  0.5217  0.7551  0.1099
15403TIP3    H267625   0.455   1.564  16.059 -1.7102 -1.4329  0.3009
15404TIP3   OH267626   6.484   5.186  17.225  0.6758  0.2821  0.1608
15404TIP3    H167627   6.422   5.113  17.228  0.6646  0.3020  0.4183
15404TIP3    H267628   6.557   5.158  17.281  1.7933 -0.5561 -1.6277
15405TIP3   OH267629   5.488   4.827  15.004 -0.1099 -0.5091 -0.0793
15405TIP3    H167630   5.445   4.762  15.060 -2.5106 -0.6460 -1.9195
15405TIP3    H267631   5.431   4.904  15.010 -0.5785 -0.6144 -2.4461
15406TIP3   OH267632   5.922   0.384   0.901  0.2329  0.3438  0.2816
15406TIP3    H167633   6.013   0.379   0.930  0.1545  0.9625  0.6471
15406TIP3    H267634   5.925   0.443   0.825  0.2126 -0.0481 -0.0238
15407TIP3   OH267635   6.736   5.758  15.955 -0.4800  0.1476  0.3579
15407TIP3    H167636   6.672   5.689  15.972 -0.1652 -0.7912 -2.0029
15407TIP3    H267637   6.687   5.839  15.967 -2.2101 -0.5467 -1.5620
15408TIP3   OH267638   0.661   2.345   0.241  0.6569 -0.0669 -0.8209
15408TIP3    H167639   0.663   2.329   0.146  0.6016 -1.9803 -0.5304
15408TIP3    H267640   0.644   2.259   0.280 -4.0299  1.2799  0.7856
15409TIP3   OH267641   3.405   3.460   4.885  0.3646  0.5849 -0.5019
15409TIP3    H167642   3.398   3.514   4.806  0.0927 -0.3317 -1.1114
15409TIP3    H267643   3.433   3.522   4.953 -1.2817  1.7920 -0.8596
15410TIP3   OH267644   0.806   0.423  14.268 -0.0694  0.2307  0.4506
15410TIP3    H167645   0.874   0.483  14.301  0.0998  1.6525 -2.1669
15410TIP3    H267646   0.842   0.336  14.283  0.6617  0.8171  2.4362
15411TIP3   OH267647   3.555   3.083  14.732  0.1926  1.1412 -0.1953
15411TIP3    H167648   3.528   3.158  14.680 -0.1313  0.6710 -0.7088
15411TIP3    H267649   3.648   3.073  14.713  0.1966  1.3002 -0.2603
15412TIP3   OH267650   4.246   5.533  13.276 -0.8837  0.0066  0.1902
15412TIP3    H167651   4.319   5.541  13.337 -2.2214  0.3845  1.8081
15412TIP3    H267652   4.211   5.445  13.291 -1.7383  0.4015  0.6031
15413TIP3   OH267653   1.484   0.257   1.213  0.1257  0.2668 -0.1289
15413TIP3    H167654   1.573   0.227   1.234  0.6628  1.5257 -0.5288
15413TIP3    H267655   1.492   0.352   1.205 -1.3615  0.4515  0.2983
15414TIP3   OH267656   6.121   4.782  15.624 -0.7318 -0.0841 -0.1844
15414TIP3    H167657   6.174   4.750  15.697 -0.1346  1.1262 -0.0683
15414TIP3    H267658   6.132   4.716  15.556 -0.8094 -0.9229  0.5873
15415TIP3   OH267659   5.369   1.107   0.353 -0.1495 -0.0549  0.1304
15415TIP3    H167660   5.324   1.138   0.431 -0.7013  0.2797 -0.3092
15415TIP3    H267661   5.301   1.059   0.304  0.4229 -1.0765  0.3027
15416TIP3   OH267662   4.150   2.149   1.233  0.1189 -0.1797 -0.5792
15416TIP3    H167663   4.090   2.081   1.201 -0.5725 -0.0731  0.4538
15416TIP3    H267664   4.097   2.229   1.234  0.7032  0.2228 -1.0235
15417TIP3   OH267665   3.544   4.970  13.299 -0.0563  0.2081 -0.2515
15417TIP3    H167666   3.601   4.894  13.290 -0.4090 -0.1908  0.8047
15417TIP3    H267667   3.590   5.029  13.358  1.1406  1.7528 -2.5657
15418TIP3   OH267668   2.130   1.674  14.753  0.1363  0.4025 -0.6136
15418TIP3    H167669   2.143   1.690  14.847  2.6181 -1.0686 -0.6132
15418TIP3    H267670   2.205   1.716  14.711  0.0728 -0.5683 -1.7492
15419TIP3   OH267671   2.752   2.709  14.037 -0.1010 -0.1262 -0.2737
15419TIP3    H167672   2.738   2.774  13.967 -0.8132 -0.5104 -0.4921
15419TIP3    H267673   2.666   2.698  14.077 -0.0241 -1.0593 -0.3425
15420TIP3   OH267674   5.451   4.052  11.051 -0.1165  0.1547 -0.1846
15420TIP3    H167675   5.450   4.146  11.071 -1.2789 -0.4212  3.1665
15420TIP3    H267676   5.536   4.037  11.010 -0.2488  2.7794 -1.6281
15421TIP3   OH267677   3.891   4.979   5.270  0.0629  0.3708 -0.1528
15421TIP3    H167678   3.870   5.022   5.187 -0.4588  2.2231  0.8762
15421TIP3    H267679   3.973   4.932   5.253  0.6369  1.7346 -1.3915
15422TIP3   OH267680   2.084   1.124  16.745  0.5294 -0.4361 -0.0271
15422TIP3    H167681   2.135   1.128  16.664 -0.0761  0.2846 -0.3786
15422TIP3    H267682   2.078   1.215  16.774 -2.0842 -0.2216 -0.9601
15423TIP3   OH267683   3.303   1.370   0.853 -0.3246  0.1268  0.2990
15423TIP3    H167684   3.279   1.288   0.896  0.9995  0.1611  1.1491
15423TIP3    H267685   3.336   1.426   0.923  0.2532  0.8259 -0.5095
15424TIP3   OH267686   5.072   6.145   3.081  0.1361  0.1451  0.3530
15424TIP3    H167687   5.056   6.063   3.033  0.6686 -0.1783  0.7148
15424TIP3    H267688   5.046   6.214   3.020 -0.7934 -0.3016  0.2254
15425TIP3   OH267689   1.567   3.175  15.900 -0.0425  0.0508  0.5981
15425TIP3    H167690   1.607   3.197  15.816  0.6821  1.7312  1.3453
15425TIP3    H267691   1.475   3.199  15.889  0.7203  3.8699  1.4070
15426TIP3   OH267692   3.778   1.898   5.605  0.1231  0.2677  0.0178
15426TIP3    H167693   3.685   1.915   5.621 -0.8654 -2.9833 -1.3872
15426TIP3    H267694   3.783   1.881   5.511  1.7082 -1.7112  0.3831
15427TIP3   OH267695   1.864   5.576   6.554  0.7517 -0.5463 -0.0428
15427TIP3    H167696   1.838   5.504   6.612  2.9149 -1.5844 -0.2793
15427TIP3    H267697   1.957   5.590   6.573  1.4046 -0.5073 -2.7595
15428TIP3   OH267698   2.540   2.581  14.177 -0.4129 -0.0188 -0.0747
15428TIP3    H167699   2.516   2.521  14.107  0.9862  0.0971 -0.6905
15428TIP3    H267700   2.457   2.617  14.207 -1.2151 -1.7033 -0.1827
15429TIP3   OH267701   1.043   5.650  13.002  0.6014  0.4792  0.2787
15429TIP3    H167702   1.108   5.686  12.942  0.8098  0.4936  0.5141
15429TIP3    H267703   0.966   5.706  12.991 -0.0195 -0.6119 -1.3583
15430TIP3   OH267704   6.532   4.429  16.422 -0.1224 -0.0857  0.8292
15430TIP3    H167705   6.498   4.465  16.504  1.4489  0.2469  1.3810
15430TIP3    H267706   6.581   4.501  16.383 -0.8400 -0.2477 -0.4136
15431TIP3   OH267707   5.154   3.689   5.223  0.1410 -0.2127 -0.2074
15431TIP3    H167708   5.067   3.689   5.182 -0.0816 -2.2956  0.1425
15431TIP3    H267709   5.161   3.602   5.262  2.3257 -0.0186 -0.0771
15432TIP3   OH267710   6.531   1.138   4.769 -0.5648  0.4186 -0.4147
15432TIP3    H167711   6.468   1.076   4.732  0.9574 -1.8460  0.5818
15432TIP3    H267712   6.567   1.183   4.693 -2.8679  1.3173 -1.0478
15433TIP3   OH267713   6.409   3.639  16.660 -0.4285 -0.3148 -0.1646
15433TIP3    H167714   6.340   3.698  16.626 -0.9494 -0.3629  0.7843
15433TIP3    H267715   6.441   3.594  16.582  0.2908  1.5199 -1.0010
15434TIP3   OH267716   1.792   1.933   1.849 -0.1002  1.2079 -1.0181
15434TIP3    H167717   1.732   1.940   1.775 -0.3475 -1.4734 -1.1852
15434TIP3    H267718   1.737   1.945   1.926 -0.5332  0.5892 -1.2193
15435TIP3   OH267719   2.389   4.667  15.352 -0.1225  0.2691 -0.1742
15435TIP3    H167720   2.383   4.760  15.334 -0.6054  0.3036  0.1412
15435TIP3    H267721   2.440   4.661  15.433 -1.2491  0.3572  0.5757
15436TIP3   OH267722   4.762   2.782  15.762 -0.1657  0.0694 -0.0273
15436TIP3    H167723   4.760   2.695  15.723 -1.5231  0.1497 -0.1643
15436TIP3    H267724   4.710   2.837  15.704  0.0641  0.8125  0.4466
15437TIP3   OH267725   3.316   5.898  15.879  0.5060 -0.3103 -0.5661
15437TIP3    H167726   3.329   5.988  15.849  0.9052  0.8548  2.7372
15437TIP3    H267727   3.223   5.893  15.901  0.8293 -0.0634  0.9677
15438TIP3   OH267728   3.085   2.354   0.990  0.1801 -0.4572 -0.2749
15438TIP3    H167729   3.055   2.361   1.080 -0.6209  0.2768 -0.5846
15438TIP3    H267730   3.023   2.295   0.948 -0.0745  0.0269 -0.5940
15439TIP3   OH267731   2.987   4.457  14.414  0.4852  0.2514  0.5897
15439TIP3    H167732   2.893   4.445  14.425  0.2712  2.1995  1.3640
15439TIP3    H267733   2.995   4.525  14.348  1.2995  0.7373  1.1645
15440TIP3   OH267734   6.452   3.211  12.055  0.1666  0.3429 -0.2297
15440TIP3    H167735   6.409   3.287  12.095  0.2753  1.3814 -1.9736
15440TIP3    H267736   6.496   3.247  11.978 -2.2889 -1.9634 -2.8925
15441TIP3   OH267737   4.710   4.793   4.778  0.0021 -0.4924  0.3032
15441TIP3    H167738   4.679   4.742   4.853 -0.8752 -0.6602 -0.1573
15441TIP3    H267739   4.776   4.738   4.737  0.4720 -0.4107  0.9284
15442TIP3   OH267740   2.011   1.287   1.206 -0.4290 -0.6527  0.5938
15442TIP3    H167741   2.006   1.196   1.237  0.1787 -1.4421 -1.4456
15442TIP3    H267742   1.941   1.295   1.142  0.1966 -0.0302 -0.0342
15443TIP3   OH267743   0.254   1.922   0.368  0.0001 -0.3019 -0.0202
15443TIP3    H167744   0.178   1.870   0.396 -0.5089 -0.9761 -2.4091
15443TIP3    H267745   0.327   1.861   0.370 -0.0246 -0.3337 -0.0752
15444TIP3   OH267746   2.061   5.932   0.253  0.5872 -0.4437  0.1472
15444TIP3    H167747   2.031   6.014   0.214 -0.4988 -0.9932 -0.2249
15444TIP3    H267748   2.009   5.924   0.333  0.4488 -0.9194  0.0136
15445TIP3   OH267749   0.027   3.807  12.181  0.3651  0.0382  0.2175
15445TIP3    H167750   0.000   3.738  12.120  0.7496  0.5557 -0.5617
15445TIP3    H267751  -0.048   3.867  12.184  0.0427 -0.3943  0.8709
15446TIP3   OH267752   1.135   3.819   0.458 -0.0391 -0.2128 -0.6085
15446TIP3    H167753   1.160   3.743   0.404  2.1361 -0.0269  0.0255
15446TIP3    H267754   1.217   3.845   0.501 -1.3855  0.6265  1.5617
15447TIP3   OH267755   3.848   4.534   2.010  0.1872  0.0091 -0.1351
15447TIP3    H167756   3.906   4.608   2.029 -0.9536  1.1546 -0.8683
15447TIP3    H267757   3.817   4.551   1.921 -0.6323 -1.0021 -0.0613
15448TIP3   OH267758   4.396   2.703  15.322  0.1406 -0.0699 -0.0169
15448TIP3    H167759   4.429   2.786  15.289  1.8994 -1.0336 -0.8427
15448TIP3    H267760   4.398   2.713  15.417 -0.0863  0.9753 -0.1116
15449TIP3   OH267761   1.998   0.518  11.283 -0.0555  0.4049 -0.1113
15449TIP3    H167762   2.030   0.599  11.246  2.5971 -0.1271  0.8210
15449TIP3    H267763   2.014   0.452  11.215  0.5977  0.1761  0.2616
15450TIP3   OH267764   5.883   3.195   5.755  0.3570 -0.1749 -0.2059
15450TIP3    H167765   5.829   3.146   5.693  0.0442  0.9582 -0.8642
15450TIP3    H267766   5.891   3.137   5.830 -0.7886 -0.8553 -0.5704
15451TIP3   OH267767   1.645   1.257  16.755 -0.5513 -0.0511  0.5269
15451TIP3    H167768   1.604   1.193  16.696  1.5344 -0.3043 -0.7521
15451TIP3    H267769   1.693   1.316  16.696 -0.4792  1.2465  1.8381
15452TIP3   OH267770   2.017   0.977  14.396 -0.1448  0.4507 -0.0986
15452TIP3    H167771   2.039   0.884  14.407  1.2184  0.7939  0.3083
15452TIP3    H267772   1.964   0.998  14.473  0.9567  0.3840  0.7209
15453TIP3   OH267773   3.008   4.171   0.671  0.1560  0.1487  0.2880
15453TIP3    H167774   3.010   4.179   0.766  0.1166 -2.3994  0.5552
15453TIP3    H267775   2.915   4.169   0.650  0.1633  0.9926  0.1480
15454TIP3   OH267776   2.472   3.327   2.697  0.7218 -0.5720  0.3180
15454TIP3    H167777   2.482   3.255   2.759  0.4435  0.5675  1.7671
15454TIP3    H267778   2.438   3.287   2.617 -2.6292 -1.6922  2.1037
15455TIP3   OH267779   2.022   0.726  12.621  0.3508  0.1362  0.1079
15455TIP3    H167780   2.114   0.720  12.596  0.2199 -1.1226 -0.1512
15455TIP3    H267781   1.996   0.815  12.597  1.3273  0.2871 -0.4245
15456TIP3   OH267782   2.689   3.433  12.483 -0.5355 -0.0617  0.9582
15456TIP3    H167783   2.689   3.340  12.506 -1.6807  0.2314  2.2405
15456TIP3    H267784   2.720   3.435  12.392 -0.3743 -1.6751  0.9472
15457TIP3   OH267785   0.351   1.395   4.768  0.0972  0.0808 -0.2481
15457TIP3    H167786   0.352   1.310   4.812  1.9005  1.2777  2.2506
15457TIP3    H267787   0.286   1.385   4.698 -2.4045 -2.2378  2.1808
15458TIP3   OH267788   4.906   6.097  14.131 -0.0120  0.0129  0.7202
15458TIP3    H167789   4.989   6.067  14.095 -0.4337 -0.2750 -0.0261
15458TIP3    H267790   4.930   6.173  14.185  0.4009  2.0423 -2.1083
15459TIP3   OH267791   1.545   5.128   1.626  0.0129 -0.0860 -0.1636
15459TIP3    H167792   1.498   5.045   1.632 -1.7539  0.5597 -2.9143
15459TIP3    H267793   1.577   5.131   1.535  0.3263  2.0678 -0.0408
15460TIP3   OH267794   0.273   6.410  13.337  0.3928 -0.3969  0.0839
15460TIP3    H167795   0.313   6.496  13.350 -0.8114  0.4830 -1.6633
15460TIP3    H267796   0.201   6.408  13.400 -0.5979  0.5966 -0.9743
15461TIP3   OH267797   3.445   5.388  13.131 -0.2468 -0.4903  0.2636
15461TIP3    H167798   3.438   5.439  13.050  0.3469 -0.0402  0.4803
15461TIP3    H267799   3.367   5.411  13.182 -0.2048 -0.1307  0.1685
15462TIP3   OH267800   2.676   2.560   5.531 -0.4507 -0.6274  0.4985
15462TIP3    H167801   2.630   2.604   5.459 -1.4946 -2.2405  0.1240
15462TIP3    H267802   2.613   2.561   5.603  0.2022  0.0453  1.0761
15463TIP3   OH267803   0.636   5.205   4.396  0.7076 -0.6423  0.2333
15463TIP3    H167804   0.542   5.201   4.415  0.7212  1.8239  1.3338
15463TIP3    H267805   0.646   5.285   4.344  2.1548 -1.0792 -0.2051
15464TIP3   OH267806   5.252   6.758   2.360 -0.4676 -0.0903  0.5817
15464TIP3    H167807   5.230   6.841   2.318  0.7253 -1.1285 -2.3737
15464TIP3    H267808   5.339   6.773   2.398 -0.3832  0.1213  0.3100
15465TIP3   OH267809   1.786   0.544  13.612 -0.2185  0.2287 -0.0804
15465TIP3    H167810   1.738   0.590  13.543  1.6399  0.7472 -1.0800
15465TIP3    H267811   1.742   0.569  13.693 -2.0652  0.1104 -0.9945
15466TIP3   OH267812   4.102   1.810   2.952  0.2008  0.0935  0.1383
15466TIP3    H167813   4.054   1.799   2.870 -0.2414  0.6366  0.3237
15466TIP3    H267814   4.065   1.743   3.010  2.0937 -1.9012 -0.7793
15467TIP3   OH267815   5.614   3.235  13.960 -0.0027 -0.6758  0.4119
15467TIP3    H167816   5.537   3.188  13.927 -2.1018  2.9610 -0.3665
15467TIP3    H267817   5.596   3.250  14.052 -1.0795  1.5526 -0.1177
15468TIP3   OH267818   1.542   2.453  10.972  0.1028  0.2855 -0.1268
15468TIP3    H167819   1.545   2.416  11.060 -0.3626  1.1564  0.2636
15468TIP3    H267820   1.469   2.409  10.929  1.4446 -1.4894 -0.7228
15469TIP3   OH267821   5.888   3.656  11.496 -0.3184  0.3375 -0.7009
15469TIP3    H167822   5.852   3.744  11.509  0.0093  0.7062 -2.1500
15469TIP3    H267823   5.823   3.611  11.441 -1.1347 -0.8008  1.0972
15470TIP3   OH267824   6.028   4.966   3.338 -0.3747  0.2939  0.0210
15470TIP3    H167825   6.099   4.982   3.401 -1.1809  0.9676  0.7867
15470TIP3    H267826   5.953   4.941   3.392 -1.3755  1.8755 -0.5660
15471TIP3   OH267827   3.655   3.621   0.344  0.0601 -0.4775 -0.2824
15471TIP3    H167828   3.743   3.652   0.319  0.8358 -1.5499  1.0348
15471TIP3    H267829   3.610   3.700   0.374  0.7080  0.0104 -0.5595
15472TIP3   OH267830   4.812   3.681  14.067  0.0390  0.2971 -0.3531
15472TIP3    H167831   4.755   3.753  14.042  2.0909  1.1829 -2.9763
15472TIP3    H267832   4.753   3.610  14.090 -2.0511  2.1002  0.2200
15473TIP3   OH267833   3.252   6.456  11.342 -0.2412  0.4169  0.6355
15473TIP3    H167834   3.315   6.400  11.296  1.7392  2.8387  0.1620
15473TIP3    H267835   3.211   6.508  11.273 -1.4510  0.1524  1.1304
15474TIP3   OH267836   3.117   1.155   0.320  0.5320 -0.4534  0.1517
15474TIP3    H167837   3.199   1.191   0.286  0.5467 -2.0051 -1.5869
15474TIP3    H267838   3.074   1.116   0.244 -0.3042 -2.5124  1.5980
15475TIP3   OH267839   4.965   5.518   0.011 -0.0886 -0.2832 -0.0957
15475TIP3    H167840   4.995   5.444   0.063 -1.5153  1.0363  2.8385
15475TIP3    H267841   4.891   5.483  -0.040  0.2005 -1.1973  0.0926
15476TIP3   OH267842   6.612   5.960  10.856 -0.2670  0.0885  0.2693
15476TIP3    H167843   6.581   6.038  10.809 -0.6214  0.6284  1.3675
15476TIP3    H267844   6.655   5.908  10.789 -0.1046  1.1888 -0.5131
15477TIP3   OH267845   2.858   2.342  16.780  0.2716 -0.3924 -0.2131
15477TIP3    H167846   2.816   2.428  16.783  1.5480  0.2844 -0.9389
15477TIP3    H267847   2.950   2.360  16.798  0.8473 -1.3765 -1.9557
15478TIP3   OH267848   0.582   3.161  16.610  0.1539  0.5273 -0.7245
15478TIP3    H167849   0.673   3.137  16.598  0.2865  0.5022  0.2925
15478TIP3    H267850   0.536   3.121  16.536  0.7878 -0.4474 -0.6010
15479TIP3   OH267851   3.112   4.340  15.461  0.2860  0.0724 -0.3416
15479TIP3    H167852   3.134   4.274  15.527 -1.2942 -0.1862 -0.0394
15479TIP3    H267853   3.183   4.405  15.467 -1.0536  1.4606  3.4862
15480TIP3   OH267854   0.534   4.890   3.292  0.7537 -0.1048 -0.1978
15480TIP3    H167855   0.456   4.921   3.338  0.2085 -1.5702 -0.0673
15480TIP3    H267856   0.578   4.834   3.356  1.0753 -0.5181 -0.7737
15481TIP3   OH267857   1.827   6.178   1.337 -0.9187 -0.0674 -0.2139
15481TIP3    H167858   1.906   6.136   1.303 -0.0436  0.2935  1.2715
15481TIP3    H267859   1.786   6.112   1.393  0.2648  0.8078  1.8313
15482TIP3   OH267860   4.462   6.601  16.940  0.1631  0.5666  0.6759
15482TIP3    H167861   4.475   6.525  16.997 -0.2905 -1.0279 -1.2146
15482TIP3    H267862   4.390   6.650  16.980 -1.3256 -1.4526  0.6051
15483TIP3   OH267863   1.588   3.637   1.687 -0.0319  0.5938 -0.4114
15483TIP3    H167864   1.611   3.612   1.776 -1.0961 -0.7839 -0.4825
15483TIP3    H267865   1.502   3.678   1.695  1.7278  4.6927 -0.2753
15484TIP3   OH267866   4.294   3.503  13.442 -0.2382  0.3437  0.0709
15484TIP3    H167867   4.282   3.443  13.516 -2.1829  1.1351  0.4760
15484TIP3    H267868   4.207   3.541  13.428  0.3857  1.2206 -1.7760
15485TIP3   OH267869   1.389   0.816   5.008 -0.0381 -0.0832 -0.2275
15485TIP3    H167870   1.371   0.887   5.070 -0.3468 -0.9883  0.7463
15485TIP3    H267871   1.451   0.854   4.946  0.8377  0.6381  1.0463
15486TIP3   OH267872   6.718   2.094   0.117 -0.1783 -0.0674  0.1414
15486TIP3    H167873   6.812   2.112   0.115 -0.8003  4.2929  0.7673
15486TIP3    H267874   6.697   2.088   0.210 -1.0860  4.3690  0.4424
15487TIP3   OH267875   6.670   2.578   2.917  0.1121 -0.5518 -0.9556
15487TIP3    H167876   6.672   2.560   2.823  0.1182  1.5990 -1.4248
15487TIP3    H267877   6.734   2.648   2.929 -0.0559 -0.6480  0.6220
15488TIP3   OH267878   5.432   6.654  16.577 -0.3234  0.1986 -0.0721
15488TIP3    H167879   5.478   6.720  16.629 -0.1637  2.4079 -2.7552
15488TIP3    H267880   5.350   6.697  16.551 -1.3912 -1.6284  0.1247
15489TIP3   OH267881   6.328   5.792   0.557  0.7092  0.1735  0.5521
15489TIP3    H167882   6.268   5.781   0.483  1.2186  2.5428 -0.3123
15489TIP3    H267883   6.408   5.745   0.531  1.1538  1.5885 -0.8061
15490TIP3   OH267884   2.437   6.567   2.363  0.1209 -0.6110  0.1788
15490TIP3    H167885   2.398   6.588   2.278 -1.4048 -1.0254  0.7427
15490TIP3    H267886   2.397   6.629   2.423 -0.5786 -1.7831  0.9689
15491TIP3   OH267887   3.561   2.958   3.330  0.4148  0.2975 -0.0616
15491TIP3    H167888   3.537   3.020   3.261 -1.5398 -2.0001 -1.5744
15491TIP3    H267889   3.487   2.962   3.391  1.2319  0.8826  0.9231
15492TIP3   OH267890   1.894   0.712   0.955  0.3303 -0.1627 -0.1304
15492TIP3    H167891   1.872   0.619   0.946 -1.0862  0.1047  0.3194
15492TIP3    H267892   1.874   0.750   0.870 -1.8138  0.2179  0.4894
15493TIP3   OH267893   2.743   5.640   0.916 -0.2484 -0.1814 -0.2242
15493TIP3    H167894   2.814   5.585   0.882 -0.8172  0.1605 -2.0597
15493TIP3    H267895   2.663   5.593   0.892 -0.6877 -0.4476  1.6239
15494TIP3   OH267896   0.073   0.983  13.687  0.7339 -0.0984  0.0628
15494TIP3    H167897  -0.020   0.978  13.710  0.6969 -1.4357 -0.3074
15494TIP3    H267898   0.101   1.068  13.720  0.1411 -0.9541  3.0938
15495TIP3   OH267899   2.225   3.567   2.524  0.5712  0.1219 -0.0079
15495TIP3    H167900   2.303   3.610   2.561  0.9133 -0.4010 -0.1155
15495TIP3    H267901   2.228   3.589   2.431  0.3900  0.4000  0.0499
15496TIP3   OH267902   5.525   1.715   4.209 -0.2133  0.0038  0.2257
15496TIP3    H167903   5.536   1.627   4.173 -0.7160  0.4175 -1.0129
15496TIP3    H267904   5.606   1.732   4.257  1.9021  0.4481 -3.0947
15497TIP3   OH267905   1.672   2.993   4.535 -0.2947 -0.3593  0.1577
15497TIP3    H167906   1.637   2.904   4.540 -2.2458  0.3268 -0.2186
15497TIP3    H267907   1.679   3.011   4.441  1.1452 -0.4771  0.2268
15498TIP3   OH267908   0.697   6.160   3.169  0.4407 -0.2630  0.1151
15498TIP3    H167909   0.759   6.107   3.219  1.7849  1.4879  0.4031
15498TIP3    H267910   0.693   6.118   3.083  0.6375 -1.4284  0.6614
15499TIP3   OH267911   2.200   1.196  11.193  0.5556  1.1802  0.0179
15499TIP3    H167912   2.175   1.106  11.216  1.9130  0.5941 -0.6794
15499TIP3    H267913   2.130   1.225  11.134  0.9651 -0.0824 -1.1570
15500TIP3   OH267914   0.469   6.488  14.752  0.4820 -1.0477 -0.3611
15500TIP3    H167915   0.529   6.416  14.732  3.8186  1.6311 -0.9012
15500TIP3    H267916   0.504   6.527  14.832 -1.9532 -0.6299  0.6065
15501TIP3   OH267917   6.020   1.683  13.306  0.0920  0.0504 -0.2770
15501TIP3    H167918   5.964   1.726  13.242 -0.4908 -2.9811 -2.0059
15501TIP3    H267919   6.105   1.725  13.295 -0.6316  1.3574 -1.1609
15502TIP3   OH267920   6.352   4.336  16.744 -0.9040 -0.6202 -0.4738
15502TIP3    H167921   6.403   4.366  16.819  0.7232  0.4122 -1.9068
15502TIP3    H267922   6.360   4.406  16.680 -2.6569 -1.2553 -1.4491
15503TIP3   OH267923   2.309   5.078  12.292  0.0202  0.1492 -0.1167
15503TIP3    H167924   2.225   5.116  12.267  0.1099  0.9628  0.7600
15503TIP3    H267925   2.330   5.120  12.376  0.2003 -1.7214  0.8262
15504TIP3   OH267926   4.993   4.543   4.938  0.0434 -0.4118 -0.3760
15504TIP3    H167927   5.078   4.502   4.921  0.9396  1.4451 -0.6208
15504TIP3    H267928   4.961   4.569   4.852  0.3791  1.0298 -0.0881
15505TIP3   OH267929   2.574   3.845  13.103  0.1676  0.6662 -0.2164
15505TIP3    H167930   2.611   3.905  13.167  0.5298  0.1436  0.0707
15505TIP3    H267931   2.588   3.758  13.140  0.1710  0.3674 -0.8939
15506TIP3   OH267932   4.213   4.457  14.493 -0.5640  0.3292  0.3612
15506TIP3    H167933   4.239   4.529  14.436  1.5288 -0.5609  0.0848
15506TIP3    H267934   4.206   4.496  14.580 -0.8692  1.1282 -0.0177
15507TIP3   OH267935   5.346   6.052   3.573 -0.3247  0.0359  0.0171
15507TIP3    H167936   5.297   6.020   3.649  0.3164 -0.8639  0.0736
15507TIP3    H267937   5.289   6.117   3.533 -1.4812 -0.8518  0.1749
15508TIP3   OH267938   2.393   4.041  17.107  0.2438  0.1076 -0.1407
15508TIP3    H167939   2.312   3.995  17.128  0.0526 -0.5396 -2.0190
15508TIP3    H267940   2.439   4.050  17.190 -0.5502 -1.8933  0.5715
15509TIP3   OH267941   0.873   5.289   0.435  0.0433  0.6063 -0.8645
15509TIP3    H167942   0.934   5.262   0.367  0.6899 -0.0538 -0.0389
15509TIP3    H267943   0.814   5.215   0.446  2.1921 -0.9108  1.8351
15510TIP3   OH267944   0.434   0.038  16.595 -0.2551  0.5879  0.0404
15510TIP3    H167945   0.435   0.008  16.504 -0.5423 -1.7432  0.7404
15510TIP3    H267946   0.445   0.133  16.589  0.1128  0.4564 -2.3906
15511TIP3   OH267947   5.415   1.919  13.953  0.0481  0.0069 -0.1133
15511TIP3    H167948   5.395   1.830  13.982 -1.6318  0.6809  0.9591
15511TIP3    H267949   5.508   1.931  13.971  1.2291 -2.6250 -3.3671
15512TIP3   OH267950   2.274   0.190  15.036 -0.3075  0.3660  1.1557
15512TIP3    H167951   2.191   0.174  14.991 -0.5064 -0.5021  1.8083
15512TIP3    H267952   2.309   0.103  15.054  0.3565  0.7180  1.5961
15513TIP3   OH267953   4.977   6.760   4.884 -0.3020 -0.7573 -0.2973
15513TIP3    H167954   4.909   6.768   4.817  2.4805  2.6391 -3.1710
15513TIP3    H267955   4.946   6.813   4.957 -1.5948 -0.9847 -0.6638
15514TIP3   OH267956   2.896   0.243  16.014 -0.7249 -0.4059  0.0570
15514TIP3    H167957   2.897   0.233  15.919 -2.4843 -1.0544  0.0689
15514TIP3    H267958   2.819   0.194  16.042  0.0082 -0.5833  1.8696
15515TIP3   OH267959   2.330   1.425  14.967 -0.5376  0.8988 -0.0151
15515TIP3    H167960   2.243   1.411  14.928 -1.2098 -1.1663  2.0034
15515TIP3    H267961   2.314   1.424  15.061  1.5098  1.9923  0.3873
15516TIP3   OH267962   3.417   1.899   1.116  0.2597 -0.2166 -0.3512
15516TIP3    H167963   3.442   1.911   1.025 -0.1393  1.4091 -0.2761
15516TIP3    H267964   3.422   1.986   1.154 -2.3696 -0.3320  0.4592
15517TIP3   OH267965   0.745   1.080  16.166  0.6516  0.2214  0.0589
15517TIP3    H167966   0.820   1.051  16.218  1.0866 -0.0177 -0.6895
15517TIP3    H267967   0.783   1.112  16.084  0.0795  1.7643  0.3687
15518TIP3   OH267968   3.068   5.692  11.406  0.2466 -0.5681 -0.2596
15518TIP3    H167969   3.152   5.653  11.431  0.0790 -0.2009  0.9359
15518TIP3    H267970   3.091   5.761  11.343  0.7007 -1.3696 -1.0000
15519TIP3   OH267971   4.989   6.271  12.963 -0.1109  0.1031 -0.1098
15519TIP3    H167972   5.084   6.277  12.977 -0.0699  1.8758 -0.8960
15519TIP3    H267973   4.968   6.346  12.908 -1.7024 -1.3201 -1.5487
15520TIP3   OH267974   3.705   3.423  12.438 -0.2574 -0.2626  0.6926
15520TIP3    H167975   3.752   3.400  12.357 -0.0155  0.5627  0.5923
15520TIP3    H267976   3.764   3.394  12.508  1.6579  2.9505  0.6152
15521TIP3   OH267977   0.185   5.435  15.369 -0.2141 -0.0335 -0.3065
15521TIP3    H167978   0.211   5.420  15.278  0.3813 -3.0985  0.2516
15521TIP3    H267979   0.123   5.365  15.388  2.0175 -1.4764  2.4663
15522TIP3   OH267980   0.906   0.515   3.708  0.5855 -0.4303  0.2119
15522TIP3    H167981   0.889   0.552   3.795  1.2240 -2.2258  1.1514
15522TIP3    H267982   0.988   0.467   3.718  1.1187  0.0201 -1.6340
15523TIP3   OH267983   0.908   2.348  13.508 -0.2789  0.9193  0.5445
15523TIP3    H167984   0.855   2.403  13.449  0.7905  0.8306 -0.5317
15523TIP3    H267985   0.938   2.409  13.575  2.2886  2.1444 -1.5442
15524TIP3   OH267986   3.529   3.686  13.674  0.2297 -0.0234 -0.0510
15524TIP3    H167987   3.497   3.740  13.602  0.4215 -0.2957 -0.3422
15524TIP3    H267988   3.550   3.749  13.743 -0.3418  0.2051 -0.0791
15525TIP3   OH267989   3.233   1.990  12.792 -0.1544 -0.2861  0.4335
15525TIP3    H167990   3.244   1.965  12.700 -1.6101  2.5810 -0.6310
15525TIP3    H267991   3.323   2.003  12.824  0.3402  1.3144 -1.4342
15526TIP3   OH267992   2.166   2.365  12.853 -0.5096 -1.1497 -0.4833
15526TIP3    H167993   2.216   2.301  12.802 -0.5106 -1.0585 -0.5989
15526TIP3    H267994   2.077   2.329  12.857 -0.2865 -1.6585  0.3053
15527TIP3   OH267995   5.796   1.916   1.297  0.2078 -0.6140 -0.2478
15527TIP3    H167996   5.775   1.976   1.226 -0.1575 -0.3321  0.0898
15527TIP3    H267997   5.825   1.972   1.369 -0.6131 -0.7899  0.2400
15528TIP3   OH267998   5.053   0.852   1.590  0.1314  0.1959 -0.1660
15528TIP3    H167999   5.009   0.852   1.505  0.1277  0.9747 -0.1713
15528TIP3    H268000   5.018   0.930   1.634  2.6145  1.7522 -0.7610
15529TIP3   OH268001   2.901   6.420   0.395 -0.3416  0.1569  0.6242
15529TIP3    H168002   2.988   6.459   0.384  0.5189 -1.6536  0.5816
15529TIP3    H268003   2.856   6.479   0.455  0.2867  2.0526 -0.6688
15530TIP3   OH268004   2.516   5.650  13.725  0.4633  0.5231  0.0520
15530TIP3    H168005   2.475   5.681  13.644 -0.1422 -0.1250  0.0956
15530TIP3    H268006   2.592   5.707  13.737 -0.7686  2.1872  0.3217
15531TIP3   OH268007   2.007   5.513  17.021  0.2206 -1.0476 -0.0142
15531TIP3    H168008   2.025   5.419  17.026 -2.4007 -1.5870  1.4149
15531TIP3    H268009   1.994   5.539  17.112 -1.5476  0.0929 -0.5317
15532TIP3   OH268010   2.602   1.795   6.129  0.6326  0.6008 -0.0576
15532TIP3    H168011   2.590   1.876   6.178  0.5726  1.2450 -1.1190
15532TIP3    H268012   2.550   1.806   6.050 -0.1145 -0.8554  0.2017
15533TIP3   OH268013   5.468   4.116  11.794 -0.1664 -0.4350  0.3737
15533TIP3    H168014   5.466   4.038  11.850 -0.0772 -1.7012 -1.3007
15533TIP3    H268015   5.481   4.082  11.706 -1.2994  1.4060 -0.5776
15534TIP3   OH268016   0.717   1.001  10.707  0.1915  0.2509 -0.1479
15534TIP3    H168017   0.709   0.917  10.662  0.9718  0.7321 -1.2297
15534TIP3    H268018   0.759   0.981  10.790  2.9044 -0.1384 -1.5153
15535TIP3   OH268019   1.826   2.637  15.266  0.6877 -0.1088  0.2749
15535TIP3    H168020   1.787   2.590  15.339  1.5448 -0.0311  0.7972
15535TIP3    H268021   1.878   2.572  15.219  1.8507  0.2937  0.9823
15536TIP3   OH268022   0.833   2.692   1.849 -0.0784  0.0938 -0.0406
15536TIP3    H168023   0.844   2.597   1.859 -0.5053  0.0025 -0.3996
15536TIP3    H268024   0.839   2.726   1.939  0.0197 -0.2763  0.0959
15537TIP3   OH268025   0.202   5.651   6.022  0.1936 -0.3915  0.1180
15537TIP3    H168026   0.276   5.700   6.060 -0.6363 -0.7229  2.3393
15537TIP3    H268027   0.240   5.567   5.998  0.7644 -0.1644  0.1814
15538TIP3   OH268028   1.613   0.587   4.937 -0.7775  0.1248 -0.0888
15538TIP3    H168029   1.541   0.538   4.896  0.7300 -1.3555 -1.0861
15538TIP3    H268030   1.611   0.558   5.029 -1.9514  0.7508  0.1085
15539TIP3   OH268031   0.982   6.707  14.079  0.0127 -0.6403  0.1914
15539TIP3    H168032   0.901   6.662  14.103  0.7353 -1.5289  1.0494
15539TIP3    H268033   1.026   6.647  14.019  1.0175 -1.1583  1.3979
15540TIP3   OH268034   1.349   4.624  12.385  0.2140  0.1509 -0.0172
15540TIP3    H168035   1.261   4.601  12.416  0.6494 -1.3345  0.2023
15540TIP3    H268036   1.334   4.682  12.310 -0.9237  0.6492  0.5688
15541TIP3   OH268037   2.845   2.902  12.696  0.7153  0.2424  0.2438
15541TIP3    H168038   2.859   2.985  12.742 -1.3503  0.7092  0.1369
15541TIP3    H268039   2.762   2.914  12.651  0.4722 -1.8413  0.0477
15542TIP3   OH268040   0.886   5.890  11.413  0.5679  0.1172 -0.1241
15542TIP3    H168041   0.810   5.895  11.471  1.4021 -1.8821  1.2407
15542TIP3    H268042   0.896   5.979  11.378  1.0781  1.9897  4.1978
15543TIP3   OH268043   5.073   3.403   0.404 -0.3987  0.0330 -0.1999
15543TIP3    H168044   5.131   3.469   0.442 -1.7087  1.3436 -0.3809
15543TIP3    H268045   5.033   3.359   0.480  0.6587 -0.7668 -0.0774
15544TIP3   OH268046   2.587   5.545   0.573  0.0787  0.8914  0.1083
15544TIP3    H168047   2.669   5.496   0.576 -1.3203 -1.5735  0.7404
15544TIP3    H268048   2.558   5.548   0.664 -1.2579  0.3846 -0.2829
15545TIP3   OH268049   4.244   3.097  12.220  0.1361 -1.1705 -0.3796
15545TIP3    H168050   4.170   3.062  12.171 -0.9199  0.5022 -0.0634
15545TIP3    H268051   4.207   3.167  12.274  1.7472 -1.0878  0.6960
15546TIP3   OH268052   5.673   6.167   0.698  0.2548  0.0457 -0.2670
15546TIP3    H168053   5.619   6.144   0.623  0.7234  1.2458 -0.9999
15546TIP3    H268054   5.683   6.085   0.747  0.9640 -1.0670 -2.1667
15547TIP3   OH268055   1.216   4.948   3.877 -0.0660 -0.6043 -0.4636
15547TIP3    H168056   1.221   4.992   3.793 -0.4489 -0.9314 -0.6613
15547TIP3    H268057   1.301   4.964   3.918 -0.2627  0.4813 -0.4488
15548TIP3   OH268058   6.437   5.011   2.489 -0.3359 -0.5512  0.1070
15548TIP3    H168059   6.522   4.984   2.524 -0.9478 -3.0663 -0.1601
15548TIP3    H268060   6.383   5.029   2.566  0.1217  0.0036  0.2975
15549TIP3   OH268061   1.757   6.716   4.069 -0.6136 -0.0883  0.3110
15549TIP3    H168062   1.747   6.711   3.974 -0.4081  2.1374  0.1105
15549TIP3    H268063   1.851   6.705   4.084 -0.0317  3.2797 -0.1778
15550TIP3   OH268064   2.196   4.629  16.960  0.1882 -0.2557 -0.8569
15550TIP3    H168065   2.123   4.616  17.020  2.1856 -1.9796  1.4461
15550TIP3    H268066   2.162   4.607  16.874 -1.6810 -2.3889  0.3349
15551TIP3   OH268067   4.605   1.061   5.379 -0.2097  0.9404  0.5168
15551TIP3    H168068   4.549   0.986   5.355 -1.1071  1.9007 -0.4817
15551TIP3    H268069   4.686   1.021   5.412 -0.9290 -0.4723  0.6558
15552TIP3   OH268070   2.686   5.966   0.617 -0.2340 -0.0874  0.5320
15552TIP3    H168071   2.737   5.907   0.561 -0.2429 -0.0348  0.4686
15552TIP3    H268072   2.752   6.012   0.669 -0.2596 -0.6209  1.0477
15553TIP3   OH268073   1.439   0.415  12.406  0.5408 -0.9884  0.3135
15553TIP3    H168074   1.516   0.433  12.352  0.2277 -2.3793 -0.6274
15553TIP3    H268075   1.383   0.492  12.395  1.8220  0.1068  1.1243
15554TIP3   OH268076   3.378   0.964  17.141  0.0586  0.4192  0.2192
15554TIP3    H168077   3.325   0.939  17.216  1.6467 -1.1204  0.9082
15554TIP3    H268078   3.316   0.975  17.069 -1.2347 -0.6542  1.1342
15555TIP3   OH268079   3.105   6.417   3.740  0.0925  0.1874  0.1069
15555TIP3    H168080   3.137   6.459   3.820  0.1021 -3.0939  2.0042
15555TIP3    H268081   3.017   6.385   3.763 -0.6552  0.6975 -1.8330
15556TIP3   OH268082   0.490   1.186   1.918  0.4055  0.2042  0.0483
15556TIP3    H168083   0.418   1.163   1.858 -0.7383  1.3555  0.9409
15556TIP3    H268084   0.554   1.229   1.862  0.4466 -0.8859 -0.7767
15557TIP3   OH268085   3.552   5.522   5.025 -0.2619  0.3712  0.1944
15557TIP3    H168086   3.561   5.588   4.956 -4.2686 -0.6084 -1.5930
15557TIP3    H268087   3.461   5.530   5.053 -0.0855 -2.5186  1.9271
15558TIP3   OH268088   5.045   1.943   2.441 -0.4589 -0.1476  0.3089
15558TIP3    H168089   5.056   1.860   2.394  0.7768  1.2780 -2.1588
15558TIP3    H268090   5.108   1.939   2.513 -1.0950 -1.6952  0.8222
15559TIP3   OH268091   1.751   4.640  14.242 -0.0718 -0.1911 -0.0182
15559TIP3    H168092   1.693   4.713  14.218  2.4246  1.6104 -1.0668
15559TIP3    H268093   1.705   4.595  14.313 -1.1590  3.2686  1.7156
15560TIP3   OH268094   3.759   4.954  12.768  0.4073 -0.1923 -0.1808
15560TIP3    H168095   3.745   4.982  12.858  0.0044 -3.0090  0.7384
15560TIP3    H268096   3.849   4.981  12.749  1.0681 -0.8914  1.6659
15561TIP3   OH268097   4.638   3.250  12.284 -0.1309  0.2126 -0.5814
15561TIP3    H168098   4.574   3.217  12.220 -0.8959  0.1629  0.1817
15561TIP3    H268099   4.609   3.339  12.302 -0.3472 -0.0131  0.2143
15562TIP3   OH268100   2.091   2.004  12.774  0.2341  0.7245  0.5369
15562TIP3    H168101   2.014   2.025  12.720  0.1917  1.1716  0.7746
15562TIP3    H268102   2.136   1.935  12.725  0.1761  1.1043 -0.0597
15563TIP3   OH268103   6.713   1.029   3.184 -0.3418 -0.0208  0.2691
15563TIP3    H168104   6.705   0.950   3.237 -0.9142 -0.2038 -0.0799
15563TIP3    H268105   6.804   1.057   3.195  0.0146 -1.0347 -0.0503
15564TIP3   OH268106   4.911   4.694   5.777 -0.1154 -0.1714  0.0312
15564TIP3    H168107   4.883   4.756   5.710 -0.0796 -1.4212 -1.2066
15564TIP3    H268108   4.856   4.713   5.853 -0.8881  0.6210 -0.7105
15565TIP3   OH268109   6.032   6.263   4.671 -0.1198  0.5756 -0.1146
15565TIP3    H168110   6.074   6.347   4.651  1.0896 -0.1437 -0.7720
15565TIP3    H268111   5.983   6.279   4.751  0.3908  1.8156 -0.0238
15566TIP3   OH268112   3.689   4.746  12.992  0.4769  0.2610  0.1076
15566TIP3    H168113   3.635   4.747  12.913  1.1335  1.8607 -0.3657
15566TIP3    H268114   3.629   4.720  13.062 -0.9180  1.8822 -0.4074
15567TIP3   OH268115   3.577   2.335   2.331 -0.4428  0.0876 -0.1108
15567TIP3    H168116   3.637   2.270   2.368  0.1350  0.7812  0.1809
15567TIP3    H268117   3.504   2.339   2.394  0.1522  0.6773  0.5573
15568TIP3   OH268118   4.573   1.308   5.329  0.4786  0.2306 -0.2664
15568TIP3    H168119   4.664   1.336   5.321  1.1743 -1.6082  0.6318
15568TIP3    H268120   4.577   1.212   5.334 -1.4109  0.1465  0.7353
15569TIP3   OH268121   5.350   0.815   4.524  1.1778  0.5296 -0.0868
15569TIP3    H168122   5.357   0.801   4.619 -0.2604 -1.6294 -0.2236
15569TIP3    H268123   5.440   0.824   4.494  1.7000  0.4757  1.3895
15570TIP3   OH268124   6.610   3.496  16.510  0.2777  0.0486 -0.4025
15570TIP3    H168125   6.664   3.452  16.444  0.5381  0.8382 -0.7343
15570TIP3    H268126   6.600   3.432  16.580  2.1545  0.0569 -0.0674
15571TIP3   OH268127   2.869   2.365   5.610 -0.0097  0.2436  0.1573
15571TIP3    H168128   2.913   2.432   5.664  0.8896 -0.8207  0.7872
15571TIP3    H268129   2.803   2.414   5.561 -0.4699  1.3508  1.7894
15572TIP3   OH268130   2.744   2.171   5.327 -0.1507  0.7278  0.3942
15572TIP3    H168131   2.827   2.204   5.293 -1.2097  1.7929 -1.3009
15572TIP3    H268132   2.746   2.078   5.306 -0.6295  1.2763 -2.5286
15573TIP3   OH268133   3.726   4.973   4.573 -0.1311  0.2307 -0.2081
15573TIP3    H168134   3.769   4.895   4.607  0.3853 -0.4413 -2.2752
15573TIP3    H268135   3.781   5.002   4.500 -2.4552  0.0430 -2.1776
15574TIP3   OH268136   0.431   4.822  11.634  0.1147 -0.0076 -0.2200
15574TIP3    H168137   0.509   4.838  11.686  0.6439 -2.7393 -0.0361
15574TIP3    H268138   0.438   4.882  11.560  3.1957 -1.1521 -0.9949
15575TIP3   OH268139   4.933   5.819   0.224 -0.3838  0.0603 -0.4442
15575TIP3    H168140   4.954   5.778   0.139  0.4247 -0.1263 -0.1627
15575TIP3    H268141   4.875   5.891   0.202 -2.8199 -1.8775 -0.8820
15576TIP3   OH268142   5.801   6.427  12.329 -0.2042 -0.4459  0.3489
15576TIP3    H168143   5.848   6.427  12.412  0.8087 -0.0559 -0.1941
15576TIP3    H268144   5.722   6.478  12.345  0.5360  0.5983  0.7941
15577TIP3   OH268145   4.150   1.805   5.121  0.4881 -0.9445 -0.6054
15577TIP3    H168146   4.114   1.827   5.035  0.0817 -2.7249 -0.9300
15577TIP3    H268147   4.244   1.797   5.107  1.3533  4.1264  0.3273
15578TIP3   OH268148   3.393   6.347  11.847  1.0557 -0.0550  0.7778
15578TIP3    H168149   3.463   6.291  11.882  0.9320 -0.4026  0.4724
15578TIP3    H268150   3.344   6.290  11.788  1.3721  0.5877 -0.1114
15579TIP3   OH268151   0.831   2.741  11.454  0.5309 -0.2116  0.1263
15579TIP3    H168152   0.799   2.655  11.428 -1.5532  0.4524  0.2691
15579TIP3    H268153   0.890   2.767  11.383  1.0804 -1.6714  0.0186
15580TIP3   OH268154   5.179   6.730   5.172 -0.0693  0.0459  0.1777
15580TIP3    H168155   5.181   6.776   5.088 -0.5530 -0.9041 -0.3744
15580TIP3    H268156   5.261   6.680   5.174  0.9043  1.6003  1.1955
15581TIP3   OH268157   2.121   5.357   2.593  0.0561 -0.2786  0.6816
15581TIP3    H168158   2.175   5.402   2.657  0.7042  0.4935 -0.3627
15581TIP3    H268159   2.034   5.396   2.604  0.5669  1.1625 -0.0826
15582TIP3   OH268160   2.908   1.247   3.916  0.3427 -0.2044  0.6874
15582TIP3    H168161   2.831   1.249   3.973  0.5400 -0.2457  0.9571
15582TIP3    H268162   2.938   1.156   3.919 -1.0969 -0.8072 -1.4480
15583TIP3   OH268163   3.263   1.708   0.198  0.3377 -0.1701 -0.0300
15583TIP3    H168164   3.306   1.654   0.265  0.6512  0.7863  0.5513
15583TIP3    H268165   3.170   1.698   0.216  0.4295  0.4266  0.8415
15584TIP3   OH268166   1.397   5.071   5.979 -0.5652 -0.2313 -0.1761
15584TIP3    H168167   1.327   5.135   5.981  0.8711  1.5172 -1.9624
15584TIP3    H268168   1.409   5.046   6.071 -1.4551  1.7554  0.5320
15585TIP3   OH268169   2.364   3.946  12.557 -0.2280 -0.3652  0.0987
15585TIP3    H168170   2.421   4.014  12.520  1.5929 -1.3227  0.9826
15585TIP3    H268171   2.297   3.932  12.491  0.8297  0.5095 -1.2164
15586TIP3   OH268172   4.625   0.863   4.852 -0.1108  0.4672 -0.5302
15586TIP3    H168173   4.629   0.887   4.944  1.6291  0.4883 -0.5911
15586TIP3    H268174   4.604   0.945   4.807 -0.6333  0.5220 -0.1936
15587TIP3   OH268175   3.313   6.439   0.066  0.2371  0.2335  0.1454
15587TIP3    H168176   3.228   6.455   0.025 -0.8758 -3.9877  0.3284
15587TIP3    H268177   3.377   6.461  -0.002 -1.1323  0.7881 -1.0221
15588TIP3   OH268178   3.832   4.480   0.397 -0.4742 -0.0762  0.3027
15588TIP3    H168179   3.813   4.510   0.486  0.1545  0.9659  0.1064
15588TIP3    H268180   3.777   4.535   0.341 -3.6782 -3.1192  0.1363
15589TIP3   OH268181   2.023   0.108  15.549 -0.0570 -0.2870  0.6247
15589TIP3    H168182   2.086   0.140  15.485  1.6888 -2.3325  1.2288
15589TIP3    H268183   2.047   0.017  15.564 -1.5326 -0.3896  2.8655
15590TIP3   OH268184   2.197   0.286   1.100 -0.3688 -0.0101 -0.2102
15590TIP3    H168185   2.119   0.320   1.142 -0.6681  0.6987 -1.2969
15590TIP3    H268186   2.170   0.265   1.011  0.7093  0.3880 -0.6527
15591TIP3   OH268187   3.969   3.925  15.176 -0.1550  0.0989 -0.4549
15591TIP3    H168188   3.985   3.887  15.263 -1.2732 -0.1566 -0.3475
15591TIP3    H268189   4.003   4.015  15.183  2.1472 -0.6900 -0.5922
15592TIP3   OH268190   0.316   1.977   6.063 -0.1094 -0.8402  0.0626
15592TIP3    H168191   0.240   2.033   6.047 -0.7184 -1.9872 -1.2520
15592TIP3    H268192   0.313   1.959   6.157  0.1304  1.3166  0.5378
15593TIP3   OH268193   0.314   1.321   0.879  0.3240 -0.0403 -0.0532
15593TIP3    H168194   0.293   1.252   0.942  0.0478 -0.9213 -1.0716
15593TIP3    H268195   0.398   1.294   0.842 -0.2711 -0.3958 -1.1938
15594TIP3   OH268196   1.580   6.149  16.999  0.3657  0.2479  0.5652
15594TIP3    H168197   1.518   6.123  17.066 -0.8678  1.7588  0.0708
15594TIP3    H268198   1.535   6.131  16.916  0.7896  0.8208  0.1955
15595TIP3   OH268199   2.265   4.410  15.353 -0.0572 -0.2497  0.4505
15595TIP3    H168200   2.322   4.487  15.353  0.2287 -0.4556 -0.0203
15595TIP3    H268201   2.179   4.443  15.380  0.2551  0.0843  1.0449
15596TIP3   OH268202   4.457   2.420  16.395 -0.0520 -0.5133 -0.2558
15596TIP3    H168203   4.512   2.496  16.376 -0.8473  0.0957 -0.1887
15596TIP3    H268204   4.368   2.456  16.401 -0.5967 -1.6022 -1.2806
15597TIP3   OH268205   6.001   1.548  16.008  0.1486 -0.8021  0.2853
15597TIP3    H168206   5.977   1.620  15.949 -1.8084 -2.0819 -0.5769
15597TIP3    H268207   5.966   1.574  16.093  1.0027  0.0297  0.4014
15598TIP3   OH268208   0.265   0.540  15.136  0.1385 -0.0206 -0.7830
15598TIP3    H168209   0.200   0.493  15.084  0.7081 -2.0300  0.2340
15598TIP3    H268210   0.347   0.531  15.086  0.4058 -0.7707 -0.2129
15599TIP3   OH268211   5.467   1.314   2.848  0.1131  0.4406 -0.1949
15599TIP3    H168212   5.493   1.398   2.810 -1.5524  1.4338  0.7182
15599TIP3    H268213   5.516   1.309   2.930  1.1512 -0.1002 -0.8273
15600TIP3   OH268214   5.918   4.824   2.533 -0.0889 -0.0639  0.4762
15600TIP3    H168215   5.842   4.819   2.475  0.8465 -1.7070 -0.6890
15600TIP3    H268216   5.968   4.899   2.501  0.3983 -0.9370 -0.8459
15601TIP3   OH268217   4.557   5.796   0.091 -0.0738 -0.0564  0.0829
15601TIP3    H168218   4.608   5.717   0.104  1.4097  0.8241 -0.1279
15601TIP3    H268219   4.617   5.867   0.115 -0.4470  1.1210 -2.2072
15602TIP3   OH268220   2.521   5.177  12.148  0.6121 -0.0661  0.2625
15602TIP3    H168221   2.531   5.118  12.073 -1.6324  0.3393 -0.4321
15602TIP3    H268222   2.464   5.130  12.208  0.7455  0.4444  0.8026
15603TIP3   OH268223   2.088   5.453  13.713  0.1539  0.6410  0.1780
15603TIP3    H168224   2.100   5.547  13.702  1.5537  0.7103  1.8840
15603TIP3    H268225   2.040   5.426  13.634  0.3830  2.6315 -0.7169
15604TIP3   OH268226   0.854   2.886  14.604 -0.0232  0.5277  0.2428
15604TIP3    H168227   0.906   2.919  14.677 -1.2397 -0.2336  1.5084
15604TIP3    H268228   0.806   2.811  14.640 -1.0692  0.4507 -1.1869
15605TIP3   OH268229   3.737   5.831  13.223  0.3423  0.6969 -0.2620
15605TIP3    H168230   3.831   5.850  13.226  0.6767 -0.8271 -0.6818
15605TIP3    H268231   3.715   5.834  13.130  0.2519 -0.2275 -0.2729
15606TIP3   OH268232   1.192   2.171   3.525  0.3054  0.5171 -0.0065
15606TIP3    H168233   1.135   2.158   3.449  0.2784 -0.6719  0.2123
15606TIP3    H268234   1.241   2.250   3.503 -0.6460  0.9495 -0.6719
15607TIP3   OH268235   6.207   6.333   2.428  1.0706 -0.0546 -0.0454
15607TIP3    H168236   6.153   6.271   2.379  0.2275  0.8923 -0.3433
15607TIP3    H268237   6.249   6.387   2.361  0.7087  0.5909  0.2419
15608TIP3   OH268238   2.228   6.202  16.188 -0.2123  0.1704 -0.1057
15608TIP3    H168239   2.275   6.227  16.108 -0.0847  1.3072  0.2979
15608TIP3    H268240   2.156   6.147  16.158 -0.1386  0.5480 -1.0093
15609TIP3   OH268241   3.422   3.622  13.039  0.9580  0.0430  0.1063
15609TIP3    H168242   3.495   3.631  13.100  2.0372 -1.4057 -0.8932
15609TIP3    H268243   3.347   3.601  13.095  2.0955 -2.1448  0.9317
15610TIP3   OH268244   2.209   2.043   4.459  0.3283 -0.0795  0.0594
15610TIP3    H168245   2.288   2.033   4.406 -0.2224  2.5406 -1.4111
15610TIP3    H268246   2.147   1.981   4.421 -0.0486  1.7155 -2.5096
15611TIP3   OH268247   1.933   5.716   5.585  0.1825  0.2561  0.0329
15611TIP3    H168248   1.953   5.625   5.609  0.6303 -0.3606 -2.3772
15611TIP3    H268249   1.841   5.728   5.608  0.1991 -0.7227  0.6367
15612TIP3   OH268250   4.641   5.518  12.896 -0.4733  0.1812  0.0200
15612TIP3    H168251   4.546   5.523  12.907 -0.5196  1.5513 -0.7607
15612TIP3    H268252   4.675   5.515  12.985 -1.1996  1.1598  0.3449
15613TIP3   OH268253   3.177   3.707  15.544  0.0018 -0.4062 -0.5692
15613TIP3    H168254   3.256   3.738  15.500 -0.3374  1.7084  0.1996
15613TIP3    H268255   3.206   3.632  15.595  1.4113  0.0225 -0.6892
15614TIP3   OH268256   0.228   5.568   5.572  0.2434 -0.2160 -0.9014
15614TIP3    H168257   0.235   5.489   5.626  1.5796 -0.9433 -2.0586
15614TIP3    H268258   0.235   5.641   5.634  2.4881 -1.0076 -0.1243
15615TIP3   OH268259   2.629   0.128  12.348 -0.4037  0.1158 -0.2441
15615TIP3    H168260   2.578   0.177  12.284  0.5444 -1.1032 -2.0060
15615TIP3    H268261   2.695   0.190  12.380 -0.3372  0.4904 -1.1002
15616TIP3   OH268262   1.784   1.969  13.283  0.0023  0.2760 -0.0433
15616TIP3    H168263   1.868   2.014  13.275 -0.7176  1.9490  1.1452
15616TIP3    H268264   1.793   1.891  13.229  2.3471  0.3531  0.1386
15617TIP3   OH268265   3.727   0.236   5.489  0.1973  0.5578 -0.2966
15617TIP3    H168266   3.689   0.324   5.486  1.5911  1.2235  0.4397
15617TIP3    H268267   3.753   0.219   5.398  2.0408  1.9420 -0.1021
15618TIP3   OH268268   4.889   3.935  15.534  0.2276  0.5458 -0.3545
15618TIP3    H168269   4.929   4.007  15.486  1.2990  0.0456 -0.2431
15618TIP3    H268270   4.854   3.975  15.613 -0.8083  1.2336 -1.1333
15619TIP3   OH268271   6.545   0.549   4.012 -0.0990  0.2897 -0.3703
15619TIP3    H168272   6.516   0.617   3.952  2.6060 -0.0507 -2.2272
15619TIP3    H268273   6.527   0.467   3.967 -1.2827 -0.1854  0.8875
15620TIP3   OH268274   3.867   6.618  14.617 -0.2665  0.4644 -0.5494
15620TIP3    H168275   3.922   6.645  14.690 -1.0312  0.1375  0.1771
15620TIP3    H268276   3.911   6.651  14.539  0.2904  1.2932  0.0992
15621TIP3   OH268277   6.395   5.253  10.598 -0.2721  0.1453 -0.0443
15621TIP3    H168278   6.455   5.325  10.577 -2.8518  2.1955 -0.9606
15621TIP3    H268279   6.396   5.248  10.693 -0.2913  1.6849  0.0749
15622TIP3   OH268280   2.975   1.934   2.371  0.4534  0.0480  0.5159
15622TIP3    H168281   2.889   1.923   2.413  1.4006 -0.8586  2.3072
15622TIP3    H268282   3.004   1.845   2.352  0.8840  0.3649 -0.3684
15623TIP3   OH268283   6.674   3.414  11.266  0.1261 -0.2922 -0.0993
15623TIP3    H168284   6.710   3.479  11.206 -0.2631 -1.4606 -1.6784
15623TIP3    H268285   6.699   3.330  11.228  0.1791 -1.0792  1.6059
15624TIP3   OH268286   4.822   6.673  14.037  0.3628  0.0863  0.0735
15624TIP3    H168287   4.820   6.644  13.946 -0.6119 -0.4715  0.2553
15624TIP3    H268288   4.839   6.767  14.033 -1.0112  0.3161 -0.7535
15625TIP3   OH268289   4.437   5.752  14.859  0.2587 -0.4185 -0.2237
15625TIP3    H168290   4.406   5.840  14.835 -0.9816 -0.6301  0.5258
15625TIP3    H268291   4.522   5.767  14.899  0.1343  0.4272 -0.2513
15626TIP3   OH268292   4.811   4.592   0.139 -0.5431 -0.3957  0.7325
15626TIP3    H168293   4.865   4.560   0.067 -0.2301  1.5309  0.0478
15626TIP3    H268294   4.732   4.627   0.097 -0.4987  0.4735  1.3334
15627TIP3   OH268295   3.247   3.906  11.523  0.1918 -0.3900 -0.7512
15627TIP3    H168296   3.237   3.811  11.533 -0.6695 -0.1208  1.5182
15627TIP3    H268297   3.158   3.940  11.532  0.7831  0.7781  1.2843
15628TIP3   OH268298   5.525   5.059  12.428 -0.5346 -0.1357  0.0483
15628TIP3    H168299   5.453   5.115  12.399  0.0067  0.7185  0.3173
15628TIP3    H268300   5.482   4.987  12.474 -1.2883 -0.4249 -1.0712
15629TIP3   OH268301   6.545   0.611  16.103  0.4484 -0.3920 -0.0590
15629TIP3    H168302   6.625   0.643  16.145 -0.2376 -0.3792  1.2999
15629TIP3    H268303   6.504   0.555  16.169 -1.1920  0.4454 -0.3033
15630TIP3   OH268304   6.585   5.591  14.831 -0.6693  0.3576 -0.0264
15630TIP3    H168305   6.500   5.548  14.825 -0.3322 -0.2089 -1.0551
15630TIP3    H268306   6.632   5.544  14.899 -0.4698 -0.6419 -0.8274
15631TIP3   OH268307   2.312   1.252  12.765 -0.1927  0.1239 -0.3486
15631TIP3    H168308   2.402   1.256  12.799 -0.8371  0.5404  1.4345
15631TIP3    H268309   2.268   1.186  12.819 -2.1069  3.0370  1.9993
15632TIP3   OH268310   6.606   3.184   4.052 -0.2717  0.8875  0.1048
15632TIP3    H168311   6.592   3.166   4.145  1.1315  0.7593  0.3129
15632TIP3    H268312   6.673   3.253   4.051  0.0371  0.5926 -0.8060
15633TIP3   OH268313   2.405   1.632  12.302 -0.5983 -0.0261  0.2161
15633TIP3    H168314   2.454   1.703  12.344  1.1445 -0.4887 -0.9428
15633TIP3    H268315   2.410   1.559  12.364  0.1758 -0.0558  0.1281
15634TIP3   OH268316   0.393   0.803   5.458 -0.0357 -0.5966 -0.0748
15634TIP3    H168317   0.409   0.763   5.372  0.3845  1.1890 -0.8785
15634TIP3    H268318   0.480   0.829   5.487 -0.4830  1.5978 -0.5679
15635TIP3   OH268319   5.608   0.844   3.077 -0.2417  0.0494  0.0335
15635TIP3    H168320   5.525   0.829   3.031 -0.5569  0.2436  0.5218
15635TIP3    H268321   5.674   0.799   3.024 -0.6575 -0.0939 -0.3700
15636TIP3   OH268322   3.237   2.156   2.212 -0.4356 -0.4197  0.0128
15636TIP3    H168323   3.215   2.091   2.145 -0.6092 -1.6629  1.2386
15636TIP3    H268324   3.217   2.113   2.295 -3.4938  2.2762  0.8377
15637TIP3   OH268325   2.470   2.518  17.066 -0.1211  0.8003  0.1686
15637TIP3    H168326   2.533   2.487  17.001  0.3782  0.5174  0.7646
15637TIP3    H268327   2.473   2.451  17.135 -0.4970  1.1802  0.5616
15638TIP3   OH268328   5.209   0.946  13.098 -0.6806 -0.8668 -0.2020
15638TIP3    H168329   5.186   0.936  13.005  0.5011 -1.4093 -0.4671
15638TIP3    H268330   5.255   1.030  13.101 -2.2745  0.0312  0.2522
15639TIP3   OH268331   0.151   1.022  16.516 -0.4206  0.5583 -0.4368
15639TIP3    H168332   0.092   1.006  16.590  2.2429  2.2786  2.2947
15639TIP3    H268333   0.146   1.116  16.501  0.6529  0.5451 -0.9942
15640TIP3   OH268334   4.050   4.227  13.774 -0.1500  0.2656  0.0891
15640TIP3    H168335   4.038   4.303  13.716  0.2465  0.1883 -0.0972
15640TIP3    H268336   4.071   4.155  13.715  0.2702  0.1886  0.3286
15641TIP3   OH268337   0.851   1.569   6.033  0.0502 -0.5865  0.5665
15641TIP3    H168338   0.769   1.613   6.011  0.3902  0.2916  1.0331
15641TIP3    H268339   0.862   1.584   6.127  2.1679  1.8035  0.0374
15642TIP3   OH268340   2.385   4.217  14.747  0.3339  0.5513 -0.3859
15642TIP3    H168341   2.330   4.173  14.683 -0.0647  0.7120 -0.1614
15642TIP3    H268342   2.344   4.303  14.758 -0.0919  0.2322  0.6910
15643TIP3   OH268343   4.316   0.884  11.939  0.1032  0.2953  0.1536
15643TIP3    H168344   4.251   0.863  11.873  0.0624  1.1203 -0.0825
15643TIP3    H268345   4.358   0.964  11.906  2.6189 -1.2696 -0.7085
15644TIP3   OH268346   2.978   6.363   5.553  0.3867  0.6770  0.3150
15644TIP3    H168347   2.895   6.395   5.588  0.5994  0.9383  0.5803
15644TIP3    H268348   3.031   6.442   5.540  0.5275  0.5287 -0.0272
15645TIP3   OH268349   1.985   5.523  14.735 -0.2606 -0.4302 -0.5022
15645TIP3    H168350   1.915   5.520  14.670  0.4612  0.6171 -1.3825
15645TIP3    H268351   1.956   5.466  14.805 -0.9644 -1.8356 -1.8676
15646TIP3   OH268352   4.986   0.302   1.556 -0.5983  0.2918  0.0392
15646TIP3    H168353   4.906   0.354   1.559 -1.3928 -0.8960  0.7176
15646TIP3    H268354   5.026   0.322   1.472 -0.1380  2.9947  0.8237
15647TIP3   OH268355   3.703   1.182   2.185  0.2680 -0.1335  0.0950
15647TIP3    H168356   3.746   1.206   2.103  2.5947  2.1454  1.7955
15647TIP3    H268357   3.613   1.212   2.175  0.8510  1.3370 -1.1605
15648TIP3   OH268358   5.620   3.808   4.645  0.4298 -0.0903 -0.2390
15648TIP3    H168359   5.709   3.839   4.663  0.2480  0.5357 -0.4140
15648TIP3    H268360   5.588   3.862   4.574  0.3011 -1.0529 -0.9393
15649TIP3   OH268361   4.950   4.938   0.505  0.3657  0.1762  0.8813
15649TIP3    H168362   4.863   4.976   0.491  1.0191  0.6086 -3.0549
15649TIP3    H268363   4.932   4.846   0.528 -1.0625  1.0891  3.9850
15650TIP3   OH268364   2.298   5.993   0.729 -0.1991  0.0265  0.2962
15650TIP3    H168365   2.340   5.908   0.742  0.6030  0.2395 -0.7234
15650TIP3    H268366   2.235   5.977   0.659  0.5649  0.4324 -0.5149
15651TIP3   OH268367   4.714   4.958  10.586 -0.4572  0.0603  0.3334
15651TIP3    H168368   4.683   4.876  10.547  1.4180 -3.4769  5.2317
15651TIP3    H268369   4.809   4.958  10.571 -0.6860  3.0226 -1.9767
15652TIP3   OH268370   0.053   5.256  11.399  0.3304 -0.0016  0.3540
15652TIP3    H168371   0.002   5.310  11.339 -0.3639  0.1279  1.0507
15652TIP3    H268372   0.101   5.318  11.453 -0.0066 -0.0852  0.7569
15653TIP3   OH268373   0.920   4.274  13.610 -0.1181 -0.0509 -0.3980
15653TIP3    H168374   0.967   4.207  13.659  1.8113  1.7229  0.3078
15653TIP3    H268375   0.911   4.237  13.522  1.1514 -1.1253 -0.1132
15654TIP3   OH268376   1.836   5.911   3.658  0.7647  0.7855  0.4548
15654TIP3    H168377   1.917   5.934   3.703 -0.1513 -0.1042  2.6928
15654TIP3    H268378   1.857   5.830   3.611  1.4384  1.1545  0.0952
15655TIP3   OH268379   4.849   2.461  16.656 -0.7021 -0.1525 -0.1516
15655TIP3    H168380   4.797   2.469  16.736 -0.3101 -2.3958  0.4024
15655TIP3    H268381   4.878   2.370  16.656 -0.2878 -0.0827 -2.6187
15656TIP3   OH268382   6.034   5.209  15.572 -0.1271  0.1952 -0.6902
15656TIP3    H168383   6.091   5.153  15.625 -0.8386  1.7805  1.9351
15656TIP3    H268384   5.955   5.156  15.558 -0.8188  0.4359  1.7967
15657TIP3   OH268385   6.722   2.963  12.457 -0.4040  0.0160  0.2135
15657TIP3    H168386   6.668   3.042  12.454  0.4198  0.5733 -1.8483
15657TIP3    H268387   6.811   2.994  12.442 -0.1026 -1.2929 -0.9525
15658TIP3   OH268388   2.419   2.632   6.456 -0.0361  0.7723 -0.4020
15658TIP3    H168389   2.361   2.571   6.410 -0.2410 -0.3926  1.3318
15658TIP3    H268390   2.462   2.579   6.522  0.1959  2.4134  0.8224
15659TIP3   OH268391   3.296   1.834  14.498  0.5122  0.3667  0.4180
15659TIP3    H168392   3.303   1.855  14.405  0.6926  1.2789  0.6348
15659TIP3    H268393   3.228   1.892  14.531  0.5641  0.1593  0.8929
15660TIP3   OH268394   4.826   5.670  10.469 -0.1859  0.2742 -0.1254
15660TIP3    H168395   4.775   5.612  10.526 -1.2236  0.6950 -0.6073
15660TIP3    H268396   4.917   5.646  10.487 -0.5238 -0.2356  1.0237
15661TIP3   OH268397   1.963   6.007  13.431  0.1763  0.2548 -1.1939
15661TIP3    H168398   1.920   6.061  13.497  1.7915  0.8633 -0.5812
15661TIP3    H268399   1.901   6.004  13.358 -0.4006  2.0586 -0.8303
15662TIP3   OH268400   6.368   0.145  13.106 -0.3900 -0.3976  0.5211
15662TIP3    H168401   6.418   0.195  13.171 -1.8627 -0.5960  1.8669
15662TIP3    H268402   6.388   0.054  13.125 -0.1584 -0.4278  0.1331
15663TIP3   OH268403   1.270   2.028   0.532  0.0409 -0.7284  0.5013
15663TIP3    H168404   1.283   1.961   0.465  1.0272  0.2243 -0.3250
15663TIP3    H268405   1.176   2.043   0.534 -0.0580 -1.2003 -0.2618
15664TIP3   OH268406   0.494   1.721   5.670  0.3019  0.3231 -0.0229
15664TIP3    H168407   0.492   1.644   5.613 -1.2815  0.4136 -0.1380
15664TIP3    H268408   0.403   1.734   5.696  1.1182 -0.7615  4.0339
15665TIP3   OH268409   4.637   2.271  12.931  0.4389 -0.0188 -0.4222
15665TIP3    H168410   4.684   2.354  12.943 -0.4238  0.3525  0.4540
15665TIP3    H268411   4.629   2.235  13.019 -0.9667 -0.0446 -0.5507
15666TIP3   OH268412   5.876   5.595   3.609 -0.0558 -0.2593 -0.8593
15666TIP3    H168413   5.880   5.682   3.648  0.5525 -0.0396 -1.3979
15666TIP3    H268414   5.966   5.563   3.612 -0.2326 -0.7734 -0.8824
15667TIP3   OH268415   2.430   2.332  16.633 -0.1161 -0.1525 -0.2477
15667TIP3    H168416   2.438   2.427  16.627 -0.9517 -0.0209  0.5767
15667TIP3    H268417   2.419   2.303  16.542  0.8572  0.4599 -0.5758
15668TIP3   OH268418   1.362   1.074   3.788 -0.0074 -1.2297 -0.0330
15668TIP3    H168419   1.326   1.024   3.861  0.4328 -0.8350  0.4640
15668TIP3    H268420   1.454   1.088   3.812  0.4382 -2.0674 -1.1881
15669TIP3   OH268421   6.015   1.536  12.844 -0.3461  0.2047 -0.0244
15669TIP3    H168422   6.011   1.616  12.793 -0.0720 -0.2492 -0.7795
15669TIP3    H268423   5.940   1.541  12.904  0.4343  1.6379  0.8828
15670TIP3   OH268424   0.506   6.273   4.168 -0.0577  0.3294 -0.7746
15670TIP3    H168425   0.503   6.345   4.105  0.1114  1.7943  0.8201
15670TIP3    H268426   0.599   6.251   4.175  0.0853  1.0917 -0.0750
15671TIP3   OH268427   4.538   0.087   2.916 -0.0664  0.5267  0.3175
15671TIP3    H168428   4.543   0.004   2.963  0.0806  0.7401  0.6879
15671TIP3    H268429   4.463   0.077   2.858 -0.0815  0.1533  0.3962
15672TIP3   OH268430   5.040   5.282  17.068  0.0943 -0.2664 -0.0892
15672TIP3    H168431   5.021   5.368  17.031  1.2209 -0.0914 -0.2868
15672TIP3    H268432   5.079   5.232  16.996  1.8115 -0.0919  0.6616
15673TIP3   OH268433   0.330   2.422  15.054  0.5938  0.0945  0.1250
15673TIP3    H168434   0.257   2.360  15.057 -1.3233  2.0514 -1.9770
15673TIP3    H268435   0.309   2.486  15.122  0.8594  0.2080  0.1005
15674TIP3   OH268436   4.311   0.737  12.872 -0.6650  0.1597  0.4430
15674TIP3    H168437   4.340   0.810  12.928 -1.2910  2.5781 -2.1463
15674TIP3    H268438   4.390   0.707  12.828 -0.6288  0.2956  0.4156
15675TIP3   OH268439   5.210   1.941  16.844 -0.4071 -0.3237 -0.1753
15675TIP3    H168440   5.161   1.992  16.908  0.8659 -1.2070  1.5892
15675TIP3    H268441   5.283   1.998  16.820  0.1734 -0.7051  0.6435
15676TIP3   OH268442   5.106   2.725  12.458 -0.0717 -0.0234 -0.3038
15676TIP3    H168443   5.141   2.689  12.377  0.3340  0.5283 -0.3852
15676TIP3    H268444   5.161   2.689  12.527 -1.9047 -2.4556  0.0217
15677TIP3   OH268445   2.598   6.059  14.629  0.1342 -0.6648 -0.7479
15677TIP3    H168446   2.690   6.033  14.634  1.0650  2.4760  2.1449
15677TIP3    H268447   2.575   6.085  14.718 -2.9757  0.6098 -1.7669
15678TIP3   OH268448   5.992   3.176   0.130  0.4203  0.0864 -0.0406
15678TIP3    H168449   6.064   3.128   0.090  0.1079 -1.3969  1.0928
15678TIP3    H268450   5.914   3.148   0.082  0.3360  0.0535  0.1143
15679TIP3   OH268451   6.276   0.008  14.282  0.0889  0.1895  0.1646
15679TIP3    H168452   6.240  -0.063  14.335 -1.4111  1.1429  0.4863
15679TIP3    H268453   6.276   0.083  14.341 -0.7965  1.0685 -0.9172
15680TIP3   OH268454   2.061   3.582   4.106  0.0840  0.0663  0.0944
15680TIP3    H168455   2.036   3.594   4.198  0.3056  2.6846 -0.1205
15680TIP3    H268456   2.142   3.631   4.096  0.8968 -1.4246 -1.2073
15681TIP3   OH268457   4.382   3.969  17.331  0.0786 -0.0210  0.0569
15681TIP3    H168458   4.292   4.000  17.343 -0.1927 -0.9524  0.5457
15681TIP3    H268459   4.372   3.880  17.298  0.7638 -1.0514  2.4140
15682TIP3   OH268460   5.576   3.819   3.273  0.6405  0.2650  0.5781
15682TIP3    H168461   5.515   3.760   3.316 -1.1169  1.6783  0.1188
15682TIP3    H268462   5.550   3.906   3.301  2.7911  0.9170  0.7612
15683TIP3   OH268463   5.759   1.852  16.048  0.2423  0.0426 -0.4681
15683TIP3    H168464   5.851   1.865  16.025  0.2859  0.3166 -0.1488
15683TIP3    H268465   5.758   1.847  16.143  0.2725 -2.7170 -0.5439
15684TIP3   OH268466   2.722   0.106   4.715 -0.2975  0.2315 -0.4693
15684TIP3    H168467   2.648   0.135   4.769 -0.2299 -1.5933  0.7028
15684TIP3    H268468   2.764   0.187   4.687 -0.3735  1.3172  2.2237
15685TIP3   OH268469   1.115   4.333  12.493  0.3463  0.4627 -0.0313
15685TIP3    H168470   1.125   4.385  12.413  1.2468 -1.3338 -1.1539
15685TIP3    H268471   1.028   4.358  12.526 -0.1740  1.0768 -1.7033
15686TIP3   OH268472   2.731   0.273   1.692  0.2149  0.0463 -0.1324
15686TIP3    H168473   2.767   0.197   1.738 -2.1681 -0.7429  0.5719
15686TIP3    H268474   2.745   0.255   1.599  0.9349 -0.5575  0.0852
15687TIP3   OH268475   2.575   5.094  15.515  0.0725 -0.0364 -0.3163
15687TIP3    H168476   2.622   5.035  15.456  0.6912 -0.9852  1.0661
15687TIP3    H268477   2.590   5.181  15.479  2.3964 -0.3579 -0.2773
15688TIP3   OH268478   4.086   2.002   2.213 -0.0330  0.1376  0.0164
15688TIP3    H168479   4.008   1.950   2.192 -0.6457  1.1451 -0.2628
15688TIP3    H268480   4.154   1.968   2.154  0.1645 -1.7196  1.2572
15689TIP3   OH268481   6.535   0.477  13.095  0.8380  0.2790  0.1631
15689TIP3    H168482   6.476   0.429  13.037  0.6549  0.7710 -0.0621
15689TIP3    H268483   6.532   0.430  13.178 -0.5899  0.8219  0.4426
15690TIP3   OH268484   3.337   2.323   0.560 -0.0001 -0.5019 -0.0914
15690TIP3    H168485   3.307   2.287   0.643  0.2022  1.0927  0.7209
15690TIP3    H268486   3.414   2.272   0.538  0.3421 -0.5130  1.0580
15691TIP3   OH268487   2.946   5.364   2.179  0.2766 -0.0997  0.3838
15691TIP3    H168488   2.947   5.447   2.131 -1.0791 -1.2194 -1.7703
15691TIP3    H268489   3.035   5.331   2.172 -0.3720 -1.6160 -4.2740
15692TIP3   OH268490   1.297   3.861   3.970 -0.3552 -0.1699 -0.3991
15692TIP3    H168491   1.380   3.832   4.010 -0.3190 -0.0926 -0.4187
15692TIP3    H268492   1.261   3.924   4.032 -1.4602 -1.7642  0.6763
15693TIP3   OH268493   5.447   3.198  16.030 -0.2785 -0.5674 -0.5767
15693TIP3    H168494   5.408   3.121  16.070 -1.9944 -0.2970 -1.6274
15693TIP3    H268495   5.373   3.246  15.993  0.5137  2.4460  1.4173
15694TIP3   OH268496   2.399   4.522  17.184  0.0432 -0.4163 -0.0782
15694TIP3    H168497   2.410   4.428  17.171 -0.8736 -0.4106 -1.0649
15694TIP3    H268498   2.372   4.555  17.098 -0.3506  0.6365  0.4294
15695TIP3   OH268499   6.641   3.203  16.301  0.0962 -0.1662 -0.0053
15695TIP3    H168500   6.624   3.170  16.390 -0.6888  0.1009 -0.0493
15695TIP3    H268501   6.735   3.189  16.288  0.1574 -0.5084  0.7439
15696TIP3   OH268502   5.094   3.307  15.652 -0.1383 -0.2207 -0.0346
15696TIP3    H168503   5.082   3.249  15.727 -0.9061  0.0279  0.0442
15696TIP3    H268504   5.126   3.251  15.582  2.1249 -0.2089  0.8901
15697TIP3   OH268505   4.089   3.910   1.177 -0.2610  0.2180  0.0673
15697TIP3    H168506   4.093   3.913   1.082 -0.3600  1.3542  0.0859
15697TIP3    H268507   4.166   3.959   1.206  0.6210 -1.4111  0.5965
15698TIP3   OH268508   1.587   4.949   1.923  0.7212  0.3850 -0.6151
15698TIP3    H168509   1.511   5.007   1.912  0.9219  0.4944 -1.5607
15698TIP3    H268510   1.552   4.871   1.965  0.4952  1.2850  0.9360
15699TIP3   OH268511   2.782   0.859  16.431 -0.1229 -0.0261  0.0172
15699TIP3    H168512   2.771   0.950  16.456  0.4482  0.1842 -0.4578
15699TIP3    H268513   2.877   0.849  16.419 -0.1929 -0.6483 -0.0501
15700TIP3   OH268514   2.507   0.357   4.960  0.8858  0.2471  0.1813
15700TIP3    H168515   2.519   0.362   4.865  1.3053 -2.2024  0.0284
15700TIP3    H268516   2.494   0.264   4.977 -1.3329  0.8539  2.3273
15701TIP3   OH268517   2.461   3.009  17.019 -0.3433  0.1598 -0.0717
15701TIP3    H168518   2.442   3.045  16.933  2.8640 -0.4540 -1.1546
15701TIP3    H268519   2.414   2.926  17.021  1.3533 -0.9411 -2.2593
15702TIP3   OH268520   1.100   0.359  15.243 -0.2092  0.3938  0.0672
15702TIP3    H168521   1.019   0.403  15.269 -1.0701 -0.1081 -1.5808
15702TIP3    H268522   1.156   0.430  15.213 -1.5490  0.5139 -2.4692
15703TIP3   OH268523   1.101   1.492   2.257 -0.6025 -0.5005 -0.0313
15703TIP3    H168524   1.159   1.425   2.294 -1.2209 -0.5033  0.9486
15703TIP3    H268525   1.013   1.457   2.267 -0.7987 -0.5410 -1.6105
15704TIP3   OH268526   3.940   4.951   2.597  0.1376  0.1766 -0.3182
15704TIP3    H168527   4.027   4.988   2.610  0.5428 -0.1541 -1.8717
15704TIP3    H268528   3.942   4.915   2.509 -1.2990 -0.6310 -0.0603
15705TIP3   OH268529   3.089   6.649   2.482  0.1503  0.3720  0.4055
15705TIP3    H168530   3.002   6.631   2.518  0.4557 -1.4881  0.3015
15705TIP3    H268531   3.083   6.740   2.450 -2.0152  0.0203 -0.3736
15706TIP3   OH268532   1.732   6.299   1.085 -1.0828 -0.3847  0.4168
15706TIP3    H168533   1.769   6.224   1.039 -2.7922 -0.9907 -0.0557
15706TIP3    H268534   1.746   6.280   1.178  0.1190 -0.3811  0.2492
15707TIP3   OH268535   5.020   3.021   0.711  0.3415 -0.1131  0.3823
15707TIP3    H168536   5.094   3.057   0.759 -0.0238 -0.1459  0.9871
15707TIP3    H268537   5.029   2.926   0.721 -0.9480 -0.1108  2.3515
15708TIP3   OH268538   4.182   5.589   4.044  0.1716  0.1767 -0.7436
15708TIP3    H168539   4.107   5.631   4.087  1.8740  1.1877  1.4321
15708TIP3    H268540   4.228   5.661   4.000 -0.6996 -0.6151 -3.1099
15709TIP3   OH268541   3.521   3.717   3.383  0.1801 -0.2956 -0.1123
15709TIP3    H168542   3.533   3.765   3.301  0.1802 -0.8883 -0.4650
15709TIP3    H268543   3.426   3.713   3.394  0.1853  0.1348  0.1343
15710TIP3   OH268544   0.959   3.685  16.681  0.4578 -0.1771  0.1929
15710TIP3    H168545   0.966   3.753  16.613  0.4477  0.2186  0.5861
15710TIP3    H268546   0.997   3.607  16.640 -2.8787 -1.0126 -1.6862
15711TIP3   OH268547   1.762   5.727  16.986 -0.0899  0.0962 -0.6217
15711TIP3    H168548   1.796   5.701  16.900  0.1683  0.1160 -0.5261
15711TIP3    H268549   1.839   5.761  17.033 -0.4252  1.1204 -0.7736
15712TIP3   OH268550   2.104   2.023  13.733  0.4692 -0.0464  0.6414
15712TIP3    H168551   2.023   2.067  13.708  0.7175  0.4561  0.6949
15712TIP3    H268552   2.098   1.936  13.694  0.2992  0.2890 -0.1006
15713TIP3   OH268553   4.143   6.317  12.044  0.6180 -0.2564  0.1415
15713TIP3    H168554   4.081   6.366  12.099 -0.2795  0.6009 -1.5504
15713TIP3    H268555   4.095   6.238  12.019  0.6089 -0.1181 -0.2818
15714TIP3   OH268556   0.287   0.340  15.974  0.2037  0.5242  0.3872
15714TIP3    H168557   0.276   0.248  15.999  0.6869  0.5134  0.5742
15714TIP3    H268558   0.230   0.351  15.898 -0.7258  0.3741  1.0449
15715TIP3   OH268559   5.113   2.055  16.082  0.1267 -0.6242 -0.2436
15715TIP3    H168560   5.202   2.023  16.072 -0.2751 -1.7364 -0.3941
15715TIP3    H268561   5.074   1.999  16.149 -0.2168  0.3923  0.4480
15716TIP3   OH268562   6.067   4.471   0.933 -0.9141 -0.4449 -0.4010
15716TIP3    H168563   6.137   4.466   0.868 -0.9633 -1.4248 -0.3974
15716TIP3    H268564   6.013   4.394   0.915 -1.7329  0.0560 -0.1126
15717TIP3   OH268565   2.792   4.170  11.395  0.3384 -0.4280 -0.5195
15717TIP3    H168566   2.699   4.165  11.418  0.7564  0.1855  1.5454
15717TIP3    H268567   2.812   4.263  11.396  1.1902 -0.6079  0.0531
15718TIP3   OH268568   0.304   1.416   5.818  0.5950  0.8367 -0.3491
15718TIP3    H168569   0.346   1.330   5.824 -0.6581  0.3086  2.4733
15718TIP3    H268570   0.330   1.462   5.898 -3.1898  0.8343  1.0804
15719TIP3   OH268571   3.376   6.176  13.808 -0.0632  0.4188  0.3467
15719TIP3    H168572   3.324   6.169  13.888  1.2981  1.8345  1.4056
15719TIP3    H268573   3.462   6.143  13.832 -0.0078 -0.4368 -0.9489
15720TIP3   OH268574   0.650   5.487   1.000  0.5806  0.2654 -0.3895
15720TIP3    H168575   0.641   5.468   1.093 -0.0373  0.3602 -0.4279
15720TIP3    H268576   0.672   5.402   0.960  1.1328  0.2808 -0.1224
15721TIP3   OH268577   3.979   2.168   4.577 -0.2019  0.5677  0.2910
15721TIP3    H168578   4.039   2.160   4.651 -1.6443  0.8287  1.5616
15721TIP3    H268579   4.017   2.115   4.508  1.0305  0.0452  1.3407
15722TIP3   OH268580   0.257   3.047  14.359  0.3675 -0.0428 -0.9193
15722TIP3    H168581   0.199   3.041  14.435  1.3536  1.1544 -0.0315
15722TIP3    H268582   0.292   2.959  14.350 -0.6379 -0.4812 -0.7029
15723TIP3   OH268583   5.688   2.011   4.568  0.1905  0.2650  0.2480
15723TIP3    H168584   5.641   1.992   4.487  0.2124 -1.3178  0.5665
15723TIP3    H268585   5.624   2.058   4.622 -0.4376 -0.2529 -0.0255
15724TIP3   OH268586   5.227   1.555   5.450  0.2087  0.0131  0.1360
15724TIP3    H168587   5.256   1.532   5.539  0.1176 -0.9625 -0.0762
15724TIP3    H268588   5.162   1.624   5.463  0.8728  0.5380  0.7665
15725TIP3   OH268589   4.833   6.112  16.261  0.2707 -0.4561 -0.2332
15725TIP3    H168590   4.772   6.058  16.312 -1.1353 -0.6822 -2.0746
15725TIP3    H268591   4.828   6.199  16.301  0.7647 -1.0625  1.2597
15726TIP3   OH268592   5.656   3.634   4.116 -0.2141  0.6397  0.2683
15726TIP3    H168593   5.651   3.706   4.053 -1.1582  0.9601  0.6940
15726TIP3    H268594   5.724   3.576   4.081 -1.5290  0.1960 -1.6901
15727TIP3   OH268595   2.318   2.699   5.476 -0.4254  0.7163  0.2268
15727TIP3    H168596   2.387   2.697   5.409 -0.5555  1.5528  0.0541
15727TIP3    H268597   2.288   2.790   5.477 -0.4126  0.7235  1.4497
15728TIP3   OH268598   4.105   4.229   3.162 -0.2844  0.1488  0.0932
15728TIP3    H168599   4.194   4.262   3.146 -0.0715 -0.5602 -0.2027
15728TIP3    H268600   4.071   4.285   3.232  0.6808 -0.0848  0.7574
15729TIP3   OH268601   1.948   5.185   3.162 -0.0922  0.0345  0.2049
15729TIP3    H168602   1.957   5.194   3.067  1.3904 -0.8742  0.2272
15729TIP3    H268603   1.881   5.117   3.174 -0.6393  0.4939 -0.1520
15730TIP3   OH268604   3.164   3.308  14.184 -0.4549  0.3529 -0.0005
15730TIP3    H168605   3.130   3.321  14.273  0.2317 -0.8442  0.4708
15730TIP3    H268606   3.110   3.237  14.148  0.2311 -0.1849  0.0177
15731TIP3   OH268607   6.154   6.531   3.554  0.0046  0.6030  0.2923
15731TIP3    H168608   6.068   6.515   3.515  0.6704 -1.9190 -0.3255
15731TIP3    H268609   6.135   6.549   3.646 -1.1995  0.1511  0.1551
15732TIP3   OH268610   4.336   2.890  14.742 -0.2977 -0.2920 -0.2109
15732TIP3    H168611   4.325   2.967  14.799 -3.3436  0.5546 -1.7263
15732TIP3    H268612   4.265   2.831  14.768 -0.0716 -1.0772 -1.3094
15733TIP3   OH268613   0.857   3.473   5.031 -0.5618 -0.4742  0.7564
15733TIP3    H168614   0.921   3.472   5.103  0.3444  0.4442 -0.0022
15733TIP3    H268615   0.773   3.454   5.073  0.2586 -2.2491  1.7001
15734TIP3   OH268616   4.694   1.548  14.350  0.5704 -1.2579 -0.7120
15734TIP3    H168617   4.613   1.538  14.299 -0.5359 -0.6386  0.8614
15734TIP3    H268618   4.720   1.459  14.372 -0.8005 -1.4020  0.4278
15735TIP3   OH268619   1.043   6.277   6.024  0.0247 -0.3770 -0.6364
15735TIP3    H168620   1.006   6.267   6.112  1.3356 -0.7045 -0.0900
15735TIP3    H268621   1.023   6.367   5.999  0.6345  0.0977  0.5079
15736TIP3   OH268622   3.003   3.229  16.140  0.4695  0.3587 -0.1076
15736TIP3    H168623   2.960   3.289  16.201  2.2338  2.1736 -0.5424
15736TIP3    H268624   2.933   3.170  16.110 -1.3602  2.2155  0.3157
15737TIP3   OH268625   3.222   1.489  14.184  0.5835  0.1103  0.4273
15737TIP3    H168626   3.146   1.485  14.126  1.3788 -1.4309 -0.5685
15737TIP3    H268627   3.200   1.431  14.257  0.5709  0.1241  0.4348
15738TIP3   OH268628   0.959   5.481   1.646 -0.8930 -0.5263 -0.0813
15738TIP3    H168629   0.989   5.402   1.601 -0.7270 -1.0067  0.8432
15738TIP3    H268630   0.907   5.449   1.720 -0.7946  0.2294  0.3330
15739TIP3   OH268631   4.577   2.046  12.148  0.4746  0.3245 -0.3284
15739TIP3    H168632   4.614   1.970  12.193 -1.3750  0.6949  2.0317
15739TIP3    H268633   4.562   2.110  12.217 -0.9663  1.6024 -1.7388
15740TIP3   OH268634   1.224   4.571  11.248  0.0205 -0.4802 -0.4955
15740TIP3    H168635   1.243   4.664  11.261 -0.5581 -0.5034  0.6145
15740TIP3    H268636   1.164   4.570  11.173 -0.3539  0.0969 -0.2168
15741TIP3   OH268637   3.565   2.091  11.984  0.6282 -0.0133 -0.0775
15741TIP3    H168638   3.579   2.045  11.901 -0.6516  0.0936 -0.3842
15741TIP3    H268639   3.532   2.024  12.044 -2.1580  0.5724 -0.7934
15742TIP3   OH268640   2.174   3.044   4.081  0.4592 -0.3292  0.3998
15742TIP3    H168641   2.106   3.004   4.136 -0.4911  0.5966 -0.0653
15742TIP3    H268642   2.148   3.023   3.992  3.0027 -3.4567  0.2005
15743TIP3   OH268643   2.403   1.901  12.759  0.2604 -0.9523  0.7409
15743TIP3    H168644   2.362   1.962  12.820 -3.2514 -1.4707 -0.8022
15743TIP3    H268645   2.385   1.814  12.796  0.7962 -1.1747  0.4851
15744TIP3   OH268646   2.738   4.297   0.408 -0.0120 -0.1425 -0.1768
15744TIP3    H168647   2.829   4.275   0.428  0.5552  1.2573 -1.0396
15744TIP3    H268648   2.697   4.309   0.493  0.9285  0.3597  0.2172
15745TIP3   OH268649   6.345   4.361   5.686  0.1848 -0.1205  0.2269
15745TIP3    H168650   6.361   4.451   5.658 -0.6290 -0.5691 -1.8552
15745TIP3    H268651   6.431   4.319   5.684  0.8031  0.8999  2.5547
15746TIP3   OH268652   4.704   1.822  12.281  0.1897 -0.0321  0.1891
15746TIP3    H168653   4.726   1.850  12.369 -1.5998  1.7330  0.1534
15746TIP3    H268654   4.629   1.764  12.292  1.2483 -1.4913 -0.0585
15747TIP3   OH268655   6.673   3.019   2.541  0.0983 -0.1866  0.2209
15747TIP3    H168656   6.754   2.995   2.495  0.5772  0.1508  0.8731
15747TIP3    H268657   6.604   3.008   2.475  0.1301 -4.0483  0.6061
15748TIP3   OH268658   3.089   1.123   1.728 -0.4633 -0.1939  0.1255
15748TIP3    H168659   3.129   1.202   1.691 -1.4263  0.0131 -0.5194
15748TIP3    H268660   3.031   1.092   1.659 -1.4543 -0.4446  1.0515
15749TIP3   OH268661   1.499   3.114  14.516 -0.2702  0.2068 -0.0637
15749TIP3    H168662   1.528   3.135  14.427  0.7111 -0.5385  0.0648
15749TIP3    H268663   1.403   3.115  14.511 -0.2285 -0.3720 -1.2708
15750TIP3   OH268664   1.773   5.875  14.674  0.1944 -0.0933  0.7422
15750TIP3    H168665   1.688   5.834  14.690 -0.7701  1.6629  0.3172
15750TIP3    H268666   1.753   5.958  14.631  2.1329  0.3621  0.6006
15751TIP3   OH268667   6.656   3.845   4.953  0.4895  0.1292  0.2627
15751TIP3    H168668   6.621   3.772   5.005  0.0634  0.0393 -0.1471
15751TIP3    H268669   6.737   3.811   4.916  0.1701 -0.2295 -0.1246
15752TIP3   OH268670   6.701   3.214   3.415 -0.0576  0.0140 -0.0049
15752TIP3    H168671   6.745   3.206   3.500 -0.7620  0.3171  0.3984
15752TIP3    H268672   6.638   3.142   3.414 -0.0961  0.0513 -0.2348
15753TIP3   OH268673   3.126   4.580   5.693 -0.5358  0.3892 -0.2658
15753TIP3    H168674   3.210   4.600   5.652 -0.6810  1.2019 -0.1886
15753TIP3    H268675   3.075   4.661   5.684 -1.1330  0.0649  0.1201
15754TIP3   OH268676   3.646   6.620  17.324 -0.2545  0.3870 -0.1204
15754TIP3    H168677   3.617   6.655  17.408  1.2123 -3.2290  2.1597
15754TIP3    H268678   3.567   6.611  17.272 -1.8080 -0.4461  2.2412
15755TIP3   OH268679   5.536   6.306  13.413 -0.2962  0.1526 -0.3602
15755TIP3    H168680   5.452   6.300  13.458 -2.0195  0.1757 -3.3149
15755TIP3    H268681   5.579   6.382  13.452 -1.1224 -0.4832  1.9391
15756TIP3   OH268682   0.747   3.397  15.586 -0.1259  0.0646  0.4926
15756TIP3    H168683   0.823   3.345  15.612 -0.2838 -0.6275 -0.3977
15756TIP3    H268684   0.737   3.461  15.657  0.6831 -0.4629  1.1062
15757TIP3   OH268685   2.989   6.060   2.241 -0.2795 -0.1294 -0.3249
15757TIP3    H168686   2.911   6.040   2.293  1.2807 -1.7546  1.5437
15757TIP3    H268687   2.991   6.156   2.237 -0.6385  0.0734  2.4335
15758TIP3   OH268688   6.335   6.076  16.811 -0.4081  0.0639 -0.3277
15758TIP3    H168689   6.249   6.037  16.827  0.2404 -0.6249  1.7996
15758TIP3    H268690   6.391   6.003  16.785 -0.3657  0.4581 -1.4044
15759TIP3   OH268691   2.266   5.659  11.981  0.2764 -0.2328 -0.5027
15759TIP3    H168692   2.221   5.642  11.898  2.9082  1.4488 -2.4023
15759TIP3    H268693   2.320   5.582  11.996  1.8924  0.5947 -1.8781
15760TIP3   OH268694   3.454   0.541  12.324 -0.0331 -0.7707  0.3643
15760TIP3    H168695   3.513   0.545  12.249 -1.2487  0.2640 -0.5791
15760TIP3    H268696   3.446   0.632  12.354 -4.3494  0.0020 -2.2072
15761TIP3   OH268697   1.279   6.586  14.891 -0.2505  0.2592 -0.1787
15761TIP3    H168698   1.218   6.622  14.955 -0.6225 -0.0682 -0.3490
15761TIP3    H268699   1.333   6.526  14.942 -0.0411  0.5721 -0.0219
15762TIP3   OH268700   1.507   2.015   3.466 -0.5655  0.0325  0.7099
15762TIP3    H168701   1.524   1.930   3.508  1.0820  0.4762  1.0216
15762TIP3    H268702   1.454   2.063   3.530 -0.0037 -0.1308  1.3101
15763TIP3   OH268703   1.360   3.199  12.989  0.7182  0.3525  0.0942
15763TIP3    H168704   1.342   3.130  13.053  0.5359  1.6955  1.5592
15763TIP3    H268705   1.452   3.186  12.965  0.6501 -0.4705  0.2315
15764TIP3   OH268706   4.605   1.352  13.477  0.3965 -0.0116 -0.0909
15764TIP3    H168707   4.595   1.263  13.443 -0.8026  0.1322 -0.1633
15764TIP3    H268708   4.657   1.342  13.557  0.3456 -0.7689 -0.1467
15765TIP3   OH268709   1.711   3.148   4.744  0.3189 -0.3470  0.4615
15765TIP3    H168710   1.662   3.230   4.733  0.2889 -0.4211  0.0375
15765TIP3    H268711   1.680   3.092   4.673  0.7571 -0.5187  0.4038
15766TIP3   OH268712   2.517   2.826  17.343  0.7579 -0.3818 -0.1839
15766TIP3    H168713   2.447   2.833  17.408  1.0178  0.4165  0.0207
15766TIP3    H268714   2.554   2.739  17.357  0.9287 -0.1560  0.8682
15767TIP3   OH268715   5.772   2.834  14.061 -0.9789 -0.4340 -0.0341
15767TIP3    H168716   5.857   2.794  14.084 -0.7137  1.1949  2.1605
15767TIP3    H268717   5.789   2.882  13.980  0.4932  0.5981  0.8324
15768TIP3   OH268718   0.219   3.604  11.886 -0.1838 -0.2439 -0.1356
15768TIP3    H168719   0.263   3.558  11.815 -0.3308 -1.4161  0.5096
15768TIP3    H268720   0.288   3.658  11.926  0.0102  0.0439 -0.8400
15769TIP3   OH268721   3.711   1.688  16.061 -0.3697  0.2574 -0.2819
15769TIP3    H168722   3.681   1.637  15.986  0.1371 -2.2633  1.0879
15769TIP3    H268723   3.756   1.763  16.024 -0.7160 -0.5585 -2.4581
15770TIP3   OH268724   0.845   2.836   3.991  0.2923  0.1004 -0.6632
15770TIP3    H168725   0.811   2.918   4.025  0.6490  0.4907 -1.2283
15770TIP3    H268726   0.921   2.816   4.046 -1.4595 -1.3707  1.3518
15771TIP3   OH268727   6.466   0.537   2.927  0.3839 -0.4445 -0.2382
15771TIP3    H168728   6.533   0.606   2.923 -0.6608  0.6382  0.1853
15771TIP3    H268729   6.510   0.464   2.969  0.5531  1.2357  2.7769
15772TIP3   OH268730   0.697   4.669  16.212 -0.0471 -0.3263  0.1222
15772TIP3    H168731   0.645   4.709  16.282  1.2016  0.9453  0.3607
15772TIP3    H268732   0.648   4.686  16.132  0.6538  2.1904  0.1477
15773TIP3   OH268733   6.727   0.725  11.156  0.3654  0.0065 -0.4263
15773TIP3    H168734   6.747   0.672  11.079  0.2272 -1.3032  0.3970
15773TIP3    H268735   6.812   0.756  11.186  0.4930 -0.0703 -0.7015
15774TIP3   OH268736   3.855   3.008   0.086  0.0599  0.4021 -0.2210
15774TIP3    H168737   3.778   3.065   0.087 -0.2472 -0.0179  0.2331
15774TIP3    H268738   3.838   2.943   0.153  0.7889  0.2641 -0.1603
15775TIP3   OH268739   2.205   1.442  15.230  0.5062 -0.5497 -0.5336
15775TIP3    H168740   2.258   1.424  15.307  1.0022  1.3110 -0.3960
15775TIP3    H268741   2.116   1.449  15.264  0.8355  1.1826  0.0693
15776TIP3   OH268742   5.424   1.027   3.230  1.0092 -0.5204  0.4892
15776TIP3    H168743   5.415   1.080   3.309 -1.5577  1.1230 -0.8208
15776TIP3    H268744   5.386   0.942   3.254 -3.4260  1.1351  0.0562
15777TIP3   OH268745   6.714   1.818   1.472 -0.6258 -0.0036 -0.5268
15777TIP3    H168746   6.779   1.878   1.435 -1.6623  1.4982 -0.0272
15777TIP3    H268747   6.675   1.775   1.396  0.4147 -0.3628 -0.8737
15778TIP3   OH268748   0.515   5.400  11.782 -0.4342 -0.2842  0.6481
15778TIP3    H168749   0.478   5.446  11.706 -0.6982 -1.6772 -0.1009
15778TIP3    H268750   0.606   5.384  11.757 -0.0461  0.7317  1.3513
15779TIP3   OH268751   6.490   5.840  14.657 -0.1428  0.6672  0.2912
15779TIP3    H168752   6.434   5.843  14.734 -1.9941  3.3382 -0.9915
15779TIP3    H268753   6.570   5.796  14.687 -1.7285 -0.6391  2.9951
15780TIP3   OH268754   2.558   2.169  13.904 -1.1616 -0.2401  0.5793
15780TIP3    H168755   2.535   2.140  13.992 -0.1892  1.0334  1.2804
15780TIP3    H268756   2.556   2.265  13.909 -0.2969 -0.1435 -0.5664
15781TIP3   OH268757   2.319   1.705   1.781  0.1854  0.5252  0.5833
15781TIP3    H168758   2.246   1.691   1.720  0.4478 -0.8015  0.5496
15781TIP3    H268759   2.395   1.719   1.724  0.5072 -1.1150  0.5646
15782TIP3   OH268760   6.714   4.818  15.092  0.0280 -0.6600  0.1280
15782TIP3    H168761   6.665   4.892  15.128  0.7535 -0.2898  0.3538
15782TIP3    H268762   6.652   4.745  15.098 -1.2329  0.2167 -1.4840
15783TIP3   OH268763   6.623   3.050  15.424 -0.2812  0.0748 -0.0223
15783TIP3    H168764   6.611   3.141  15.398 -0.2389  0.1040  0.0621
15783TIP3    H268765   6.694   3.053  15.489  0.3584 -0.1145 -0.6897
15784TIP3   OH268766   3.264   6.609  14.856 -0.1330  0.2286 -0.5429
15784TIP3    H168767   3.264   6.608  14.761  1.0028 -1.2721 -0.5689
15784TIP3    H268768   3.351   6.642  14.880  0.2309 -0.9918 -0.0836
15785TIP3   OH268769   2.249   4.420   2.857  0.3265  0.4217  0.7118
15785TIP3    H168770   2.301   4.384   2.784 -0.1213 -1.1642  1.1403
15785TIP3    H268771   2.192   4.485   2.816  0.8121  0.3042 -0.1825
15786TIP3   OH268772   1.647   5.857  15.190 -0.3330 -0.1350 -0.1832
15786TIP3    H168773   1.629   5.852  15.096  1.5002 -0.3789 -0.5719
15786TIP3    H268774   1.674   5.768  15.213  2.1098  0.5344 -0.1405
15787TIP3   OH268775   2.353   6.341   4.724 -0.2533  0.2237 -0.0952
15787TIP3    H168776   2.261   6.316   4.711 -0.5959  0.8147  1.0228
15787TIP3    H268777   2.402   6.280   4.669 -1.1967 -1.4364  0.8157
15788TIP3   OH268778   4.363   4.151   4.488 -0.5914  0.4089  0.2736
15788TIP3    H168779   4.342   4.241   4.511  1.0132  1.0924 -0.7494
15788TIP3    H268780   4.459   4.147   4.491 -0.6278 -1.2143  0.1378
15789TIP3   OH268781   4.497   4.033  13.379  0.4248  0.4235 -0.3098
15789TIP3    H168782   4.578   3.990  13.408  0.5021  1.1470  0.5889
15789TIP3    H268783   4.451   4.054  13.459 -1.1481 -0.8352 -0.8431
15790TIP3   OH268784   1.416   3.792   1.334  0.7426  0.2719 -0.3595
15790TIP3    H168785   1.386   3.723   1.393  1.2289 -0.2523 -0.7117
15790TIP3    H268786   1.423   3.749   1.248 -0.1310  1.0615 -0.8541
15791TIP3   OH268787   2.770   6.070   5.341  0.1071  0.5388 -0.0124
15791TIP3    H168788   2.728   5.994   5.383 -1.3521  0.4850 -1.4572
15791TIP3    H268789   2.696   6.122   5.309  1.1448  1.5013 -0.8811
15792TIP3   OH268790   5.982   3.444   2.373 -0.0854  0.5369  0.2250
15792TIP3    H168791   5.974   3.538   2.384 -2.6420  0.2579  1.4537
15792TIP3    H268792   5.985   3.409   2.462  0.3359 -0.5809 -0.2082
15793TIP3   OH268793   0.648   5.600  13.104 -0.0035 -0.5411  0.1350
15793TIP3    H168794   0.721   5.660  13.088  0.5066 -1.1558  0.1052
15793TIP3    H268795   0.623   5.617  13.195  0.2837 -0.4406  0.1956
15794TIP3   OH268796   0.916   5.444   3.914 -0.1534  0.3143  0.3328
15794TIP3    H168797   0.874   5.519   3.872  1.3461  1.7242  1.2480
15794TIP3    H268798   0.848   5.376   3.915 -0.2836  0.0427 -4.4603
15795TIP3   OH268799   5.350   2.386   4.733  0.5328 -0.3655 -0.4741
15795TIP3    H168800   5.304   2.307   4.759  0.5710 -1.0588 -2.3600
15795TIP3    H268801   5.436   2.379   4.775  0.6532 -1.5123 -0.8786
15796TIP3   OH268802   6.180   6.538  13.242  0.3327 -0.4450 -0.5378
15796TIP3    H168803   6.099   6.526  13.192 -0.4488  1.3888  0.2214
15796TIP3    H268804   6.170   6.478  13.316 -1.8990  1.9453  1.3057
15797TIP3   OH268805   6.142   4.263   5.909 -0.2450 -0.2428 -0.3251
15797TIP3    H168806   6.147   4.168   5.894 -1.0354 -0.2148 -0.8361
15797TIP3    H268807   6.211   4.299   5.853 -1.4661 -0.3502 -1.9796
15798TIP3   OH268808   0.702   6.712  16.121  0.2798  0.8244  1.0101
15798TIP3    H168809   0.774   6.652  16.100  1.6957  1.3643  3.7477
15798TIP3    H268810   0.632   6.688  16.060  2.1457 -0.9126 -0.6266
15799TIP3   OH268811   2.721   0.627   3.874 -0.6512  0.7056  0.1145
15799TIP3    H168812   2.740   0.565   3.803 -1.8269 -0.3412  0.6750
15799TIP3    H268813   2.759   0.585   3.952 -0.0249  1.4859  0.2354
15800TIP3   OH268814   1.899   2.114   1.182 -0.4412 -0.0540 -0.2478
15800TIP3    H168815   1.854   2.179   1.236  1.6418  2.5763 -1.3890
15800TIP3    H268816   1.909   2.038   1.239  0.5416  2.0855  2.7341
15801TIP3   OH268817   0.882   6.337   5.707  0.5003  0.1171 -0.0770
15801TIP3    H168818   0.854   6.317   5.618 -0.5677 -0.4712  0.3666
15801TIP3    H268819   0.900   6.431   5.706 -2.3539  0.7457 -0.2192
15802TIP3   OH268820   4.491   5.088   1.253 -0.4551  0.1129  0.0872
15802TIP3    H168821   4.576   5.124   1.232 -0.7761  0.6826 -0.2552
15802TIP3    H268822   4.507   4.994   1.265  0.3640  0.3379  0.8684
15803TIP3   OH268823   1.934   3.947  15.936 -0.1491  0.3491  0.1071
15803TIP3    H168824   1.966   3.874  15.988 -0.0999  0.2915 -0.0041
15803TIP3    H268825   1.898   3.907  15.857 -0.3182  0.4282  0.1448
15804TIP3   OH268826   0.124   2.370   5.500  0.1114  0.0534  0.4273
15804TIP3    H168827   0.053   2.316   5.465  0.0195  0.3215  0.1947
15804TIP3    H268828   0.136   2.339   5.590 -0.5056  0.2055  0.5711
15805TIP3   OH268829   0.513   6.411   0.805 -0.3299  0.2217 -0.0606
15805TIP3    H168830   0.573   6.402   0.731  1.5059 -0.1848  1.4134
15805TIP3    H268831   0.543   6.490   0.850 -0.5672 -0.2852  0.9979
15806TIP3   OH268832   6.597   6.361   4.503 -0.0813 -0.1546 -0.3805
15806TIP3    H168833   6.572   6.275   4.468 -0.6454  0.4155 -1.4225
15806TIP3    H268834   6.514   6.406   4.516  0.2668  0.7189 -1.1268
15807TIP3   OH268835   3.795   5.730   6.611 -0.1234 -0.1848  0.1754
15807TIP3    H168836   3.773   5.687   6.529  1.8872  1.6660 -1.4560
15807TIP3    H268837   3.716   5.781   6.633 -0.5050 -0.3194 -0.8571
15808TIP3   OH268838   3.912   4.550  12.020 -0.3805 -0.0190  0.4961
15808TIP3    H168839   3.855   4.504  11.959  1.8699 -0.5417 -1.3767
15808TIP3    H268840   3.926   4.636  11.981  4.7885 -1.8201 -2.6645
15809TIP3   OH268841   3.702   2.708  15.114  0.4236  0.0663  0.4498
15809TIP3    H168842   3.734   2.640  15.173  0.3196 -0.4073 -0.0290
15809TIP3    H268843   3.621   2.740  15.155 -0.5518 -1.4086 -0.2288
15810TIP3   OH268844   0.115   6.292  15.443  0.3328 -0.5089  0.2389
15810TIP3    H168845   0.176   6.363  15.462 -0.8972  0.5667  0.3461
15810TIP3    H268846   0.138   6.263  15.355 -0.1896  1.1984 -0.5068
15811TIP3   OH268847   2.874   0.418  13.953 -0.3462 -0.4557  0.5209
15811TIP3    H168848   2.874   0.370  14.036 -1.2179 -0.1333  0.7241
15811TIP3    H268849   2.881   0.510  13.979  0.1528 -0.4027  0.1952
15812TIP3   OH268850   5.873   4.833  15.950  0.4429  0.4126  0.0684
15812TIP3    H168851   5.901   4.792  16.032  1.2886  2.2860  0.7646
15812TIP3    H268852   5.796   4.884  15.975  0.2321  0.3745 -0.4945
15813TIP3   OH268853   0.091   1.963   5.416 -0.1060  0.0191  0.5783
15813TIP3    H168854   0.017   2.014   5.385  1.7940  2.1380 -0.8201
15813TIP3    H268855   0.054   1.901   5.479 -2.6449  2.8171  2.0437
15814TIP3   OH268856   1.965   5.516   2.840  0.4101  0.1334  0.2508
15814TIP3    H168857   1.888   5.539   2.892 -1.7425  2.1316 -3.3649
15814TIP3    H268858   1.940   5.537   2.750  5.5900  2.1028 -1.1150
15815TIP3   OH268859   0.943   0.250  11.012 -0.0978 -0.0227  0.0828
15815TIP3    H168860   0.867   0.191  11.023  0.6854 -1.4065 -1.5065
15815TIP3    H268861   1.019   0.192  11.018  0.7344  0.9096 -1.0218
15816TIP3   OH268862   0.226   4.969   0.902  0.2931  0.0373 -0.0577
15816TIP3    H168863   0.268   5.054   0.917 -0.3225  0.3723 -0.2059
15816TIP3    H268864   0.298   4.907   0.902  0.5299  0.1262  3.1562
15817TIP3   OH268865   6.753   2.764   6.361  0.1615 -0.5137  0.2909
15817TIP3    H168866   6.707   2.815   6.427  0.9114  0.1886  0.2975
15817TIP3    H268867   6.807   2.829   6.314 -0.5146 -0.9518 -1.1510
15818TIP3   OH268868   2.022   5.172  12.539  0.5576 -0.1048 -0.1675
15818TIP3    H168869   1.934   5.140  12.518 -0.0342  0.3633  1.4338
15818TIP3    H268870   2.042   5.133  12.624  2.8665 -1.9956 -1.4610
15819TIP3   OH268871   5.950   5.192   2.179  0.0354 -0.0600 -0.4784
15819TIP3    H168872   5.992   5.179   2.264  0.8745  0.4366 -0.7979
15819TIP3    H268873   6.023   5.188   2.116  0.0847  3.5083 -0.8490
15820TIP3   OH268874   5.865   3.367   0.621  0.4808 -0.3483 -0.1135
15820TIP3    H168875   5.918   3.288   0.615  1.6547  0.2293  2.0171
15820TIP3    H268876   5.889   3.407   0.704 -0.5805  1.9193 -0.8147
15821TIP3   OH268877   3.432   0.541   5.889 -0.6361  0.4043  0.4448
15821TIP3    H168878   3.373   0.564   5.961 -0.8809  1.4581 -0.0708
15821TIP3    H268879   3.507   0.499   5.931 -0.6823  1.1866  1.3339
15822TIP3   OH268880   3.885   5.653   1.255 -0.0850 -0.1636 -0.5269
15822TIP3    H168881   3.817   5.587   1.269  0.5670 -0.7745 -0.1856
15822TIP3    H268882   3.856   5.700   1.177  0.4666 -2.2526 -2.1053
15823TIP3   OH268883   0.787   5.583   2.842 -0.2646  0.1394  0.1915
15823TIP3    H168884   0.734   5.530   2.782 -2.1492  0.9288  1.1070
15823TIP3    H268885   0.782   5.538   2.926  0.4462  0.2877  0.3249
15824TIP3   OH268886   3.741   6.564   3.439 -0.6413  0.0353  0.0636
15824TIP3    H168887   3.756   6.488   3.494 -1.0893  0.1308  0.3237
15824TIP3    H268888   3.774   6.539   3.352  0.3105 -0.0195  0.4322
15825TIP3   OH268889   5.640   1.403   3.459 -0.2445  0.5256 -0.0779
15825TIP3    H168890   5.671   1.494   3.451  0.8624  0.1271 -0.5387
15825TIP3    H268891   5.646   1.384   3.553  0.9873  0.4544 -0.1540
15826TIP3   OH268892   4.564   6.217   0.237  0.0910 -0.3916 -0.4556
15826TIP3    H168893   4.521   6.290   0.281  1.0315  0.2700 -0.6139
15826TIP3    H268894   4.510   6.200   0.160 -0.3999 -0.1857 -0.1589
15827TIP3   OH268895   4.780   2.308   1.642  0.0739  0.1267  0.0370
15827TIP3    H168896   4.754   2.389   1.597  0.3288  0.8736  1.1878
15827TIP3    H268897   4.716   2.243   1.614  0.6405  0.3435 -1.9824
15828TIP3   OH268898   3.367   4.388   0.599 -0.0435  1.2295 -0.4523
15828TIP3    H168899   3.356   4.354   0.688 -0.0716 -0.3567 -1.0169
15828TIP3    H268900   3.462   4.400   0.590  0.4557 -2.2544 -1.3678
15829TIP3   OH268901   0.964   3.252   2.920  0.5375  0.3602  0.2795
15829TIP3    H168902   1.032   3.251   2.987  0.4878  0.1654  0.3269
15829TIP3    H268903   0.904   3.181   2.944 -0.5441  1.5203  1.1349
15830TIP3   OH268904   1.480   4.583  14.434 -0.1754  0.0049 -0.3203
15830TIP3    H168905   1.425   4.563  14.358  0.5921  0.0909 -0.9106
15830TIP3    H268906   1.521   4.500  14.456 -0.7836 -0.1307  0.3253
15831TIP3   OH268907   0.619   3.362   5.524 -0.1842 -0.3583 -0.0410
15831TIP3    H168908   0.568   3.394   5.450  0.0395 -1.8570 -0.8850
15831TIP3    H268909   0.586   3.411   5.599 -1.1160  0.4754 -0.9591
15832TIP3   OH268910   4.779   4.258  11.901  0.4829  0.2152  0.3042
15832TIP3    H168911   4.774   4.353  11.894  1.0781  0.1011 -2.7204
15832TIP3    H268912   4.747   4.225  11.818  0.5636 -2.2551  1.1611
15833TIP3   OH268913   1.408   2.253  16.601  0.7830 -0.1537 -0.2542
15833TIP3    H168914   1.334   2.285  16.550 -0.5006 -1.6289  0.5938
15833TIP3    H268915   1.418   2.162  16.572 -0.1857 -1.1388  2.2852
15834TIP3   OH268916   4.459   2.919   5.272 -0.1606  0.3016 -0.0935
15834TIP3    H168917   4.380   2.884   5.315  0.4264  0.5289  1.2232
15834TIP3    H268918   4.508   2.841   5.247 -0.5803  0.1615 -0.4954
15835TIP3   OH268919   0.537   5.464  16.550  0.1559 -0.3223 -0.1537
15835TIP3    H168920   0.503   5.402  16.486  0.1918  0.0013 -0.4849
15835TIP3    H268921   0.460   5.513  16.579  0.2913  0.1827 -0.6549
15836TIP3   OH268922   3.406   4.296   4.466 -0.5097  0.4219 -0.0041
15836TIP3    H168923   3.378   4.343   4.545  1.2429  0.7668  0.4542
15836TIP3    H268924   3.499   4.281   4.479 -0.6237 -1.4733 -1.0397
15837TIP3   OH268925   3.268   1.332  10.951  0.1586  0.0001  0.0208
15837TIP3    H168926   3.186   1.291  10.924 -0.7523  2.0944 -0.5872
15837TIP3    H268927   3.275   1.311  11.044 -0.3269 -1.3503 -0.2126
15838TIP3   OH268928   3.584   1.817   2.722  0.6397 -0.2443 -0.0723
15838TIP3    H168929   3.658   1.854   2.771  1.3933 -0.3782 -1.0856
15838TIP3    H268930   3.514   1.882   2.732  1.5008  0.8152 -0.6870
15839TIP3   OH268931   5.108   2.447  12.787 -0.8109  0.3475  0.2079
15839TIP3    H168932   5.192   2.420  12.825 -0.2077  0.3805 -1.0570
15839TIP3    H268933   5.062   2.365  12.771  0.4489  0.0372 -2.3302
15840TIP3   OH268934   1.321   5.318  14.479  0.2708 -0.1797 -0.2744
15840TIP3    H168935   1.410   5.282  14.474 -0.2726 -1.6234 -0.0557
15840TIP3    H268936   1.281   5.295  14.396  0.1494  0.6814 -0.4681
15841TIP3   OH268937   6.591   0.921  12.210 -0.1114 -0.0922  0.6224
15841TIP3    H168938   6.661   0.861  12.182 -1.5859 -1.2027 -0.8666
15841TIP3    H268939   6.515   0.865  12.220 -1.3840  1.4318 -0.1589
15842TIP3   OH268940   0.412   1.284   3.117  0.3587  0.0227 -1.1209
15842TIP3    H168941   0.383   1.373   3.098 -0.3824 -0.0849 -0.5326
15842TIP3    H268942   0.497   1.295   3.161  0.2046  0.4475 -0.9271
15843TIP3   OH268943   1.210   3.836  12.729 -0.6994  0.2324  0.2120
15843TIP3    H168944   1.180   3.908  12.784 -2.7871  0.2273 -0.8270
15843TIP3    H268945   1.166   3.759  12.764 -0.0610 -0.2064  0.0712
15844TIP3   OH268946   1.276   6.167   5.928  0.1014  0.0271 -0.1758
15844TIP3    H168947   1.191   6.191   5.965  0.5124 -0.6382  1.2513
15844TIP3    H268948   1.338   6.179   6.000  1.2163  0.3511 -1.1487
15845TIP3   OH268949   5.877   5.471  11.755 -0.2597  0.0715 -0.1394
15845TIP3    H168950   5.819   5.464  11.831 -1.3274  0.4107 -0.8883
15845TIP3    H268951   5.897   5.381  11.731  0.9818 -0.0420  1.1688
15846TIP3   OH268952   1.403   0.643   1.903 -0.1509 -0.7650  0.2689
15846TIP3    H168953   1.476   0.625   1.845 -0.4411 -0.6276 -0.1425
15846TIP3    H268954   1.396   0.566   1.959  0.2898 -0.7865  0.2953
15847TIP3   OH268955   4.740   6.014   0.150  0.2668  0.0484  0.4454
15847TIP3    H168956   4.768   6.089   0.096  0.1075  0.4340  0.8934
15847TIP3    H268957   4.672   6.050   0.207 -0.8476 -0.7739 -0.3313
15848TIP3   OH268958   5.681   1.893  14.817 -0.6614  0.2716 -0.1003
15848TIP3    H168959   5.745   1.864  14.751 -0.0528 -0.5263  0.8198
15848TIP3    H268960   5.612   1.826  14.814 -0.2980 -0.1355  0.5438
15849TIP3   OH268961   5.981   5.379  14.038 -0.1550  1.3850  0.3316
15849TIP3    H168962   5.988   5.447  14.105  1.4547  1.2659  0.3255
15849TIP3    H268963   5.997   5.297  14.085 -1.2602  1.0644  0.1858
15850TIP3   OH268964   3.156   1.387  11.817 -0.4691  0.1152  0.1925
15850TIP3    H168965   3.100   1.311  11.834 -0.1059 -0.6556 -1.8080
15850TIP3    H268966   3.103   1.462  11.843 -2.0991 -0.6472 -0.8083
15851TIP3   OH268967   4.564   4.428   4.813 -0.0315 -0.4663 -0.1297
15851TIP3    H168968   4.560   4.512   4.858 -0.1478  0.1903 -1.3217
15851TIP3    H268969   4.496   4.375   4.854  0.7224 -0.3460  1.3147
15852TIP3   OH268970   3.610   1.630   0.151 -0.4835  0.2387 -0.4379
15852TIP3    H168971   3.687   1.617   0.097 -0.8698 -1.1335 -0.6976
15852TIP3    H268972   3.537   1.599   0.098 -0.7335 -2.4725  1.2853
15853TIP3   OH268973   4.802   6.735  12.117 -0.0686  0.2297  0.4028
15853TIP3    H168974   4.887   6.771  12.141  0.8598 -0.9645 -0.9176
15853TIP3    H268975   4.773   6.686  12.194  0.6339  0.3062  0.7145
15854TIP3   OH268976   1.044   6.148  15.141 -0.3952  0.0924  0.1583
15854TIP3    H168977   1.068   6.100  15.062 -0.7046 -0.1629  0.2170
15854TIP3    H268978   0.966   6.199  15.115  0.2934  1.0594 -0.0864
15855TIP3   OH268979   0.816   5.131  12.487  0.1674 -0.0900  0.1549
15855TIP3    H168980   0.752   5.093  12.547 -2.0472  1.8119 -0.8679
15855TIP3    H268981   0.768   5.199  12.439  3.1162  1.9804 -0.1841
15856TIP3   OH268982   5.921   5.640  16.685  0.2805  0.2664  0.7423
15856TIP3    H168983   5.830   5.661  16.666  0.0466 -1.9802 -0.9311
15856TIP3    H268984   5.927   5.646  16.781 -2.0102 -0.8645  1.0318
15857TIP3   OH268985   0.773   6.519  15.156 -0.5862 -0.0823 -0.3975
15857TIP3    H168986   0.836   6.518  15.228 -0.7412  1.8767 -0.1796
15857TIP3    H268987   0.688   6.534  15.198 -0.5401  2.3516 -0.9727
15858TIP3   OH268988   2.710   2.871  16.743  0.1945 -0.1789 -0.3970
15858TIP3    H168989   2.704   2.924  16.823  0.5094 -1.4954  0.5192
15858TIP3    H268990   2.748   2.931  16.678  1.4224  0.4591  0.8527
15859TIP3   OH268991   3.456   5.508  11.662 -0.0431 -0.1608  0.0532
15859TIP3    H168992   3.477   5.547  11.577 -0.6368  0.4152  0.1602
15859TIP3    H268993   3.383   5.449  11.645  0.0952 -0.3467  0.0978
15860TIP3   OH268994   3.008   5.597   5.790 -0.0906  0.0620 -0.0699
15860TIP3    H168995   3.020   5.685   5.827 -1.6933  0.7064 -0.9567
15860TIP3    H268996   3.013   5.610   5.696  1.6454 -1.1742 -0.1916
15861TIP3   OH268997   4.341   2.255  11.250 -0.0359 -0.0507 -0.5727
15861TIP3    H168998   4.382   2.202  11.319 -0.1515  1.1520  0.4409
15861TIP3    H268999   4.388   2.338  11.253 -1.5729  0.8419 -0.3712
15862TIP3   OH269000   6.507   5.625  17.062  0.4197  0.1835 -0.4839
15862TIP3    H169001   6.558   5.631  16.981  0.2969  0.0545 -0.5735
15862TIP3    H269002   6.520   5.534  17.091  0.3769  0.1992 -0.4163
15863TIP3   OH269003   2.045   0.691   4.072  0.6260  0.6616 -0.3805
15863TIP3    H169004   1.972   0.690   4.134  2.1406  0.2437  1.5048
15863TIP3    H269005   2.057   0.784   4.051  0.2446  0.8482  0.1868
15864TIP3   OH269006   2.346   6.380  14.200  0.0959 -0.1245  0.3327
15864TIP3    H169007   2.408   6.310  14.181 -0.0242 -0.1499  0.0368
15864TIP3    H269008   2.264   6.334  14.221 -0.1877 -0.0650 -0.5778
15865TIP3   OH269009   0.488   0.380   0.415 -0.2436 -0.2243  0.5248
15865TIP3    H169010   0.553   0.411   0.478 -0.7189  1.3271  0.2953
15865TIP3    H269011   0.535   0.374   0.332 -0.3083  0.6385  0.4152
15866TIP3   OH269012   4.289   5.875  12.297 -0.6281 -0.2261 -0.5126
15866TIP3    H169013   4.211   5.830  12.265  0.0464 -1.1494 -0.8996
15866TIP3    H269014   4.362   5.824  12.262  0.1448  0.2005  0.4302
15867TIP3   OH269015   4.981   5.394   2.126  0.5908 -0.4718  0.2461
15867TIP3    H169016   5.065   5.423   2.162  0.6922 -1.9229  1.2822
15867TIP3    H269017   4.916   5.450   2.168  1.0419  0.9065 -0.8420
15868TIP3   OH269018   1.006   6.239   2.870 -0.1501  0.1579 -0.4558
15868TIP3    H169019   1.086   6.291   2.869  0.7638 -1.1772 -1.5636
15868TIP3    H269020   1.028   6.162   2.818 -2.2513 -0.1365 -0.9721
15869TIP3   OH269021   2.659   0.451  14.841  0.1288  0.1567  0.3260
15869TIP3    H169022   2.577   0.463  14.794  1.5817 -0.4265 -2.5412
15869TIP3    H269023   2.700   0.374  14.800  1.9674  0.2285  1.8829
15870TIP3   OH269024   2.171   3.696   3.691  0.1950  0.4809  0.0651
15870TIP3    H169025   2.153   3.602   3.694 -0.8590  0.6977  2.4728
15870TIP3    H269026   2.249   3.708   3.746 -0.3336  1.1172  0.6994
15871TIP3   OH269027   0.182   4.341  16.984 -0.2329  0.4464 -0.1391
15871TIP3    H169028   0.277   4.352  16.979 -0.1541 -0.7326 -2.6795
15871TIP3    H269029   0.169   4.247  16.993 -1.1499  0.4262 -1.4193
15872TIP3   OH269030   4.402   1.276   6.109  0.4110 -0.6075  0.2070
15872TIP3    H169031   4.414   1.321   6.193 -2.4193  0.3227  0.2159
15872TIP3    H269032   4.347   1.200   6.130 -0.9852  0.0638 -0.8633
15873TIP3   OH269033   0.464   3.290   3.326  0.2276  0.1879  1.0617
15873TIP3    H169034   0.558   3.304   3.324  0.3188 -0.0312  2.8245
15873TIP3    H269035   0.449   3.213   3.272  0.6691  1.9091 -1.7305
15874TIP3   OH269036   6.529   5.353   4.997  0.0959 -0.6268 -0.0637
15874TIP3    H169037   6.574   5.417   5.052  2.0292 -1.6640 -0.3449
15874TIP3    H269038   6.525   5.274   5.051 -0.8646 -0.7417 -0.2833
15875TIP3   OH269039   5.149   3.739   4.525 -0.0817  0.0045 -0.0521
15875TIP3    H169040   5.064   3.742   4.482 -1.2340  0.1948  2.0820
15875TIP3    H269041   5.163   3.829   4.556  0.9524 -0.0066 -0.4345
15876TIP3   OH269042   2.080   6.595  15.623  0.7348  0.2856  0.1396
15876TIP3    H169043   2.106   6.545  15.701 -0.9510 -1.1597 -0.1542
15876TIP3    H269044   2.069   6.529  15.555  0.7078  1.3563 -0.9197
15877TIP3   OH269045   5.021   2.484  13.086 -0.9214 -0.5020  0.1004
15877TIP3    H169046   4.991   2.556  13.141 -1.5473 -1.9556  1.7741
15877TIP3    H269047   4.951   2.473  13.021 -0.4158  0.8932 -0.7357
15878TIP3   OH269048   2.120   3.919  11.670 -0.1328  0.0403 -0.0014
15878TIP3    H169049   2.179   3.935  11.597  0.0408  2.2307  0.5414
15878TIP3    H269050   2.037   3.960  11.643 -0.6511 -0.7979  0.2695
15879TIP3   OH269051   4.805   1.573   5.398 -0.2532  0.5108 -0.7578
15879TIP3    H169052   4.731   1.634   5.403  1.6833  2.9491  0.4034
15879TIP3    H269053   4.835   1.579   5.307 -0.1801  1.1933 -0.6948
15880TIP3   OH269054   2.413   6.669  12.430  0.0995 -0.1540 -0.0544
15880TIP3    H169055   2.341   6.623  12.474 -0.3692 -1.5921 -2.1837
15880TIP3    H269056   2.488   6.657  12.488 -0.4277 -2.1559  0.2827
15881TIP3   OH269057   5.535   4.742  16.599  0.5987 -0.1079 -0.4324
15881TIP3    H169058   5.572   4.722  16.513  1.3946  0.8758 -0.3259
15881TIP3    H269059   5.448   4.778  16.580 -0.3749 -2.4103 -0.6831
15882TIP3   OH269060   3.822   4.509  11.766 -0.1569 -0.6283 -0.5883
15882TIP3    H169061   3.743   4.491  11.714 -0.1111  0.4420 -1.0608
15882TIP3    H269062   3.893   4.511  11.701 -0.0091  0.1390 -0.4095
15883TIP3   OH269063   4.106   1.619   3.591 -0.4464 -0.2306  0.4041
15883TIP3    H169064   4.038   1.589   3.530 -0.2166  0.6729 -0.3235
15883TIP3    H269065   4.187   1.611   3.540 -0.4797  2.5469 -0.2139
15884TIP3   OH269066   3.610   1.258   0.102  0.1840  0.3933 -0.2793
15884TIP3    H169067   3.599   1.163   0.093 -0.4522  0.4975 -0.6284
15884TIP3    H269068   3.701   1.274   0.074  0.3971 -0.1446  0.0808
15885TIP3   OH269069   2.748   6.313   1.687  0.0448  0.1673 -0.3246
15885TIP3    H169070   2.680   6.292   1.751 -0.8550  0.4078 -1.1724
15885TIP3    H269071   2.729   6.403   1.661 -0.1032 -0.1860 -1.5052
15886TIP3   OH269072   1.881   3.705  17.302 -0.0312  0.4533 -0.1641
15886TIP3    H169073   1.955   3.743  17.351 -1.5688  2.3193  0.8672
15886TIP3    H269074   1.827   3.664  17.369  0.0481 -0.9241 -0.9151
15887TIP3   OH269075   0.910   6.580  14.701  0.1057  0.3205 -0.3557
15887TIP3    H169076   0.880   6.516  14.636 -0.8926  0.3806  0.0437
15887TIP3    H269077   0.931   6.527  14.778 -2.4807  0.5898  0.6273
15888TIP3   OH269078   0.353   2.323   6.543  1.1973  0.0208 -0.0515
15888TIP3    H169079   0.420   2.378   6.503  0.6708  0.7444  0.0517
15888TIP3    H269080   0.339   2.253   6.479  1.1482  0.5604 -0.6411
15889TIP3   OH269081   4.900   3.980   3.361  0.0468 -0.1120  0.0867
15889TIP3    H169082   4.956   4.015   3.430 -0.6368  2.4523 -0.5678
15889TIP3    H269083   4.814   3.972   3.401 -0.4306  1.7109 -0.5005
15890TIP3   OH269084   3.264   0.723   2.823  0.4159 -0.5523 -0.5205
15890TIP3    H169085   3.284   0.634   2.794 -1.1689 -0.6459 -1.4141
15890TIP3    H269086   3.218   0.763   2.749 -1.8777 -0.1010  1.0381
15891TIP3   OH269087   4.635   4.231  11.466  0.3686  0.2379  0.3659
15891TIP3    H169088   4.543   4.258  11.466  0.0104 -0.9085  0.6298
15891TIP3    H269089   4.638   4.158  11.405  1.0900  0.2028  0.4406
15892TIP3   OH269090   3.250   2.811  15.509 -0.0837  0.3188 -0.5252
15892TIP3    H169091   3.243   2.906  15.494  0.3471  0.5071  0.4328
15892TIP3    H269092   3.171   2.776  15.468 -0.3197  1.1066 -0.7810
15893TIP3   OH269093   0.556   3.615  13.602  0.1043 -0.6255  0.4738
15893TIP3    H169094   0.537   3.667  13.523  1.0012 -0.8665  0.0945
15893TIP3    H269095   0.495   3.541  13.596 -0.5530 -0.1071  0.5530
15894TIP3   OH269096   4.969   5.788  13.927 -0.5235  0.1887 -0.0654
15894TIP3    H169097   5.050   5.831  13.956  0.0901 -1.9862  1.7296
15894TIP3    H269098   4.983   5.772  13.834  0.8601  0.4084  0.0768
15895TIP3   OH269099   3.584   6.512  16.894 -0.1765  0.3100 -0.2203
15895TIP3    H169100   3.567   6.541  16.804 -0.3959  0.1954 -0.2168
15895TIP3    H269101   3.517   6.447  16.911 -0.5321  0.7938  0.2517
15896TIP3   OH269102   5.451   4.839  11.786 -0.7497  0.3833  0.0272
15896TIP3    H169103   5.503   4.776  11.837 -0.4189  1.0930  0.5767
15896TIP3    H269104   5.515   4.904  11.756 -1.3813  1.6078  1.2251
15897TIP3   OH269105   5.785   5.430   5.875 -0.1121 -0.0260 -0.0722
15897TIP3    H169106   5.810   5.346   5.837  0.4170  0.0735  0.0448
15897TIP3    H269107   5.867   5.478   5.884 -0.3079  0.2078  0.5724
15898TIP3   OH269108   0.968   4.894   1.564 -0.4421 -0.3469  0.4306
15898TIP3    H169109   1.044   4.948   1.542 -1.0418  0.0059 -0.9215
15898TIP3    H269110   0.990   4.807   1.532 -0.7568 -0.1464 -0.3658
15899TIP3   OH269111   2.440   5.684   4.878 -0.0286  0.2647  0.5298
15899TIP3    H169112   2.508   5.683   4.812  0.1535 -1.4303  0.7120
15899TIP3    H269113   2.365   5.725   4.835 -0.3457 -1.9622 -1.2211
15900TIP3   OH269114   4.824   6.371  10.895  0.1529  0.5710 -0.3601
15900TIP3    H169115   4.782   6.453  10.869  0.6256  1.1618  0.6813
15900TIP3    H269116   4.753   6.318  10.932 -0.3302  0.1231 -1.8567
15901TIP3   OH269117   1.990   5.621   5.012  0.3504 -0.4536  0.4045
15901TIP3    H169118   2.060   5.590   4.955  0.7962  0.7049  0.2874
15901TIP3    H269119   2.032   5.629   5.098  1.3833  3.2858 -0.2463
15902TIP3   OH269120   3.619   2.957  13.854  0.3567 -0.0773 -0.0057
15902TIP3    H169121   3.586   2.999  13.934 -0.2752 -1.0032  0.2408
15902TIP3    H269122   3.702   2.917  13.881  0.7569  0.6484 -0.1375
15903TIP3   OH269123   2.353   0.447  12.144  0.2203  0.3055  0.2678
15903TIP3    H169124   2.409   0.503  12.091  1.3552 -1.4970 -0.5162
15903TIP3    H269125   2.266   0.488  12.138  0.7858  1.3814 -1.0972
15904TIP3   OH269126   1.712   6.477   4.217  0.7323  0.0984 -0.2115
15904TIP3    H169127   1.641   6.413   4.208 -1.4380  2.2924  0.1870
15904TIP3    H269128   1.671   6.561   4.196  2.7501  1.7168  1.8456
15905TIP3   OH269129   3.620   5.920  12.614 -0.4609 -0.2492  0.3138
15905TIP3    H169130   3.580   5.837  12.641 -0.6919  0.2053  1.4419
15905TIP3    H269131   3.606   5.925  12.520 -2.2152 -0.5591  0.5360
15906TIP3   OH269132   2.193   1.041   0.947 -0.2453 -0.5577 -0.4179
15906TIP3    H169133   2.106   1.061   0.912  0.4224  1.4787 -1.0253
15906TIP3    H269134   2.252   1.099   0.900  1.5681 -2.3251 -0.4455
15907TIP3   OH269135   3.622   6.556  14.538  0.2297  0.0228  0.4519
15907TIP3    H169136   3.610   6.639  14.491 -0.5515 -0.3853 -0.0856
15907TIP3    H269137   3.713   6.560  14.570  0.5442  0.6284 -0.4683
15908TIP3   OH269138   3.097   3.424   6.407 -0.2087 -0.1999 -0.3933
15908TIP3    H169139   3.081   3.349   6.464  0.9793  2.4092  3.8072
15908TIP3    H269140   3.015   3.473   6.407  0.0027  0.1598 -0.3490
15909TIP3   OH269141   0.084   6.718   0.147 -0.4595  0.2618 -0.5794
15909TIP3    H169142   0.114   6.729   0.057  0.9186  0.4326 -0.1287
15909TIP3    H269143   0.001   6.670   0.139 -0.8325  1.0790 -1.9731
15910TIP3   OH269144   6.307   3.151  16.520 -0.3306 -0.2226 -0.1178
15910TIP3    H169145   6.317   3.158  16.615 -1.5743 -0.6994  0.0713
15910TIP3    H269146   6.279   3.238  16.493 -1.5765 -0.5122  0.1943
15911TIP3   OH269147   5.380   3.329   4.464 -0.3400  0.0707 -0.4746
15911TIP3    H169148   5.362   3.423   4.474  0.1603  0.3317 -1.7352
15911TIP3    H269149   5.312   3.286   4.516 -3.1341  1.0599 -2.9612
15912TIP3   OH269150   5.717   4.818  13.256  0.2256  0.1652  0.3597
15912TIP3    H169151   5.705   4.907  13.289 -4.3329  0.7561 -2.0943
15912TIP3    H269152   5.663   4.764  13.314  0.8361 -0.6035  0.2304
15913TIP3   OH269153   0.079   4.760  12.120 -0.4057 -0.9175 -0.6596
15913TIP3    H169154   0.126   4.837  12.087  1.7156 -2.2009 -0.8360
15913TIP3    H269155   0.050   4.713  12.042 -1.5713 -0.4014 -0.5544
15914TIP3   OH269156   6.619   4.000  15.368 -0.2077 -0.5291  0.0822
15914TIP3    H169157   6.549   3.946  15.329  0.4480 -2.0292  0.8806
15914TIP3    H269158   6.688   3.937  15.389  0.6883  0.6844  0.8757
15915TIP3   OH269159   3.999   5.078   1.597 -0.3814  0.5933  0.6421
15915TIP3    H169160   3.955   5.017   1.538  0.3938  0.1700  0.4949
15915TIP3    H269161   3.927   5.126   1.639 -0.9935  2.8033 -2.5647
15916TIP3   OH269162   6.417   4.891  13.204 -0.1182  0.5177  0.2165
15916TIP3    H169163   6.501   4.909  13.246  0.4708 -1.5274  0.0215
15916TIP3    H269164   6.438   4.878  13.111 -0.9477  1.8056 -0.1840
15917TIP3   OH269165   3.765   3.167  13.634 -0.1382  0.2415  0.0685
15917TIP3    H169166   3.737   3.097  13.693 -1.9160  0.7739 -0.0837
15917TIP3    H269167   3.763   3.246  13.688 -2.1021  0.7863 -0.7275
15918TIP3   OH269168   5.572   2.984   2.429 -0.1051 -0.1709 -0.9254
15918TIP3    H169169   5.604   3.070   2.457 -1.7862 -0.3597  1.8901
15918TIP3    H269170   5.502   3.004   2.367 -2.1219  0.6988  1.4779
15919TIP3   OH269171   3.800   5.811  11.796  0.4202  0.0886 -0.4314
15919TIP3    H169172   3.871   5.827  11.858 -0.2047 -1.8608  0.8906
15919TIP3    H269173   3.741   5.885  11.807  0.3209 -0.2273  1.3438
15920TIP3   OH269174   1.823   6.693  12.205  0.0065  0.0416  0.3976
15920TIP3    H169175   1.816   6.609  12.160  0.2666  0.7137 -0.9402
15920TIP3    H269176   1.857   6.670  12.292  0.4423 -1.2003 -0.0714
15921TIP3   OH269177   2.478   2.563  10.842  0.2185 -0.3604  0.1292
15921TIP3    H169178   2.484   2.657  10.823 -1.4835 -0.4315 -0.9723
15921TIP3    H269179   2.552   2.546  10.901  0.0218  1.8584  1.1428
15922TIP3   OH269180   3.862   5.445  12.945  0.0723  0.4521 -0.3067
15922TIP3    H169181   3.892   5.472  13.031 -2.6095  4.6683 -0.4347
15922TIP3    H269182   3.925   5.482  12.884 -0.7521  1.9699 -0.2725
15923TIP3   OH269183   5.939   3.403   6.319 -0.1694 -0.0061  0.5799
15923TIP3    H169184   5.930   3.495   6.343 -0.8176  1.0346 -3.1538
15923TIP3    H269185   5.852   3.366   6.332 -0.4847  0.5027 -0.0375
15924TIP3   OH269186   5.570   4.702  15.334 -0.2133 -0.3701 -0.1974
15924TIP3    H169187   5.541   4.669  15.249 -2.7106 -0.0131  0.4420
15924TIP3    H269188   5.540   4.637  15.397 -1.0531  0.7808  0.6448
15925TIP3   OH269189   4.164   0.732  12.132  0.0512  0.5373 -0.5356
15925TIP3    H169190   4.202   0.818  12.117  1.3347  0.2821  1.0051
15925TIP3    H269191   4.225   0.671  12.091  0.1624  0.2518  0.0383
15926TIP3   OH269192   0.399   1.236  14.706  0.0410  0.5205 -0.5321
15926TIP3    H169193   0.437   1.324  14.711 -1.3181  1.1610 -1.0618
15926TIP3    H269194   0.305   1.251  14.696 -0.2079 -1.0022 -0.6759
15927TIP3   OH269195   2.280   0.716  12.023 -0.0805  0.7974 -0.6298
15927TIP3    H169196   2.226   0.707  11.944  1.3397 -0.8705 -1.4883
15927TIP3    H269197   2.217   0.719  12.095 -1.3639 -1.1406 -1.5808
15928TIP3   OH269198   1.749   3.739   3.657 -0.1819 -0.1247 -0.5023
15928TIP3    H169199   1.700   3.822   3.664  0.8250  0.3723  1.1989
15928TIP3    H269200   1.821   3.749   3.720  0.1651 -2.1657 -0.5326
15929TIP3   OH269201   2.523   3.069  13.603  0.1763  0.5478  0.0233
15929TIP3    H169202   2.563   2.987  13.634 -1.4602  0.1208  1.1043
15929TIP3    H269203   2.521   3.059  13.508 -2.2802 -1.8668  0.2093
15930TIP3   OH269204   0.664   0.473   3.470  0.4095  0.1817 -0.4201
15930TIP3    H169205   0.585   0.431   3.503 -1.4921  2.7674 -1.3860
15930TIP3    H269206   0.731   0.405   3.475 -1.6357 -1.8644  1.2180
15931TIP3   OH269207   2.394   4.347   0.538 -0.2957  0.1430  0.1663
15931TIP3    H169208   2.312   4.392   0.518  0.3585  0.7828 -1.2438
15931TIP3    H269209   2.449   4.414   0.578 -0.4715 -0.3094  1.2042
15932TIP3   OH269210   0.584   1.867  14.402  0.1855  0.2100  0.3388
15932TIP3    H169211   0.549   1.778  14.398 -0.4809  0.3301  2.5603
15932TIP3    H269212   0.675   1.857  14.428  0.1502  0.1770  0.4488
15933TIP3   OH269213   2.120   6.256   5.034 -0.1919  0.1861 -0.4928
15933TIP3    H169214   2.096   6.259   5.127  0.1706 -0.7737 -0.3560
15933TIP3    H269215   2.167   6.173   5.024  2.3457  1.5765 -0.9345
15934TIP3   OH269216   6.417   4.175  17.069  0.3035 -0.0166  0.1229
15934TIP3    H169217   6.450   4.236  17.134 -1.2772  1.5364 -0.4817
15934TIP3    H269218   6.450   4.090  17.098  0.4033  0.7404  2.4347
15935TIP3   OH269219   4.611   5.089   5.562  0.3592  0.3264  0.1125
15935TIP3    H169220   4.587   4.997   5.552 -0.2890  0.0804  2.9624
15935TIP3    H269221   4.545   5.137   5.512 -2.0760 -0.6439  2.1638
15936TIP3   OH269222   5.515   6.165  15.731 -0.1492  0.3463  0.9523
15936TIP3    H169223   5.463   6.209  15.664 -0.7396  1.3051  2.0165
15936TIP3    H269224   5.605   6.194  15.715 -0.2090  0.1779  0.2878
15937TIP3   OH269225   0.630   2.227  15.232  0.3467  0.0376 -0.0654
15937TIP3    H169226   0.600   2.314  15.205 -1.0419 -0.6534 -0.8724
15937TIP3    H269227   0.671   2.190  15.154 -0.9184 -0.7933 -0.3719
15938TIP3   OH269228   0.460   5.610  12.898  0.5613 -0.4246  0.2579
15938TIP3    H169229   0.480   5.552  12.825  1.0410 -0.2651  0.2608
15938TIP3    H269230   0.535   5.602  12.957  0.6492  0.2068  0.2474
15939TIP3   OH269231   3.628   4.914  16.820  0.4429 -0.1782 -0.1834
15939TIP3    H169232   3.692   4.847  16.796  0.2709 -0.7639  0.9428
15939TIP3    H269233   3.543   4.877  16.795  0.3951 -0.1268 -0.0991
15940TIP3   OH269234   3.506   4.357  13.937  0.2219  0.0275 -0.2952
15940TIP3    H169235   3.597   4.381  13.921  0.2348 -0.1158 -0.4412
15940TIP3    H269236   3.483   4.300  13.864  0.0650 -0.0687 -0.1725
15941TIP3   OH269237   2.537   6.605  15.991 -0.3525  0.3764  0.2976
15941TIP3    H169238   2.575   6.520  15.968 -1.0070 -0.3251  1.6519
15941TIP3    H269239   2.522   6.648  15.907  1.0641 -0.3521 -0.3750
15942TIP3   OH269240   6.738   2.333   4.872 -0.1019  0.0965  0.7899
15942TIP3    H169241   6.701   2.365   4.955 -2.5399 -0.3886 -0.0279
15942TIP3    H269242   6.662   2.321   4.815  1.3509 -1.1286 -1.0034
15943TIP3   OH269243   3.132   6.704   1.250  0.6586 -0.0578 -0.3787
15943TIP3    H169244   3.073   6.654   1.195 -1.4394  2.5171 -0.6603
15943TIP3    H269245   3.198   6.739   1.190  1.1217 -1.0191 -0.4460
15944TIP3   OH269246   3.343   6.575   5.826 -0.3060  0.3237 -0.1073
15944TIP3    H169247   3.408   6.645   5.824 -1.4088  1.3906 -2.4391
15944TIP3    H269248   3.366   6.518   5.752  0.0639 -1.3663  1.2312
15945TIP3   OH269249   4.297   4.706  13.352  0.1019  0.0055 -0.0707
15945TIP3    H169250   4.318   4.797  13.372 -0.7329  0.2977 -0.4672
15945TIP3    H269251   4.369   4.655  13.390  1.5686  0.9440 -1.4943
15946TIP3   OH269252   2.471   2.568   5.711 -0.1410 -0.0056  0.3680
15946TIP3    H169253   2.414   2.627   5.662 -0.1340 -1.0629 -0.9884
15946TIP3    H269254   2.415   2.493   5.733  0.1365 -0.0238  1.0488
15947TIP3   OH269255   0.095   2.538  15.620  0.0090  0.1884  0.6441
15947TIP3    H169256   0.075   2.553  15.713 -0.9961  1.4788  0.2440
15947TIP3    H269257   0.019   2.572  15.573 -0.1309 -1.7223 -0.6253
15948TIP3   OH269258   5.989   6.261  12.486 -0.3043  0.2149  0.5141
15948TIP3    H169259   5.936   6.318  12.541 -0.2666  1.0607 -0.3121
15948TIP3    H269260   5.936   6.182  12.475 -1.5720  1.1794 -0.5848
15949TIP3   OH269261   4.136   4.623   2.630  0.1304  0.2071 -0.7132
15949TIP3    H169262   4.083   4.545   2.616 -0.8286  1.0571 -1.9957
15949TIP3    H269263   4.206   4.617   2.565 -0.5309  0.9060 -1.5007
15950TIP3   OH269264   6.019   0.102  13.114  0.3617 -0.0295  0.1843
15950TIP3    H169265   6.080   0.134  13.181  1.2718 -0.2285 -0.5337
15950TIP3    H269266   6.030   0.007  13.116  0.1452 -0.0604 -0.0214
15951TIP3   OH269267   3.364   2.606   4.754  0.3040 -0.1902  1.0068
15951TIP3    H169268   3.366   2.700   4.737 -0.8205 -0.6339 -2.1324
15951TIP3    H269269   3.275   2.589   4.785 -0.1149 -0.4726 -0.3268
15952TIP3   OH269270   2.007   5.082  11.629  0.2430  0.3941 -0.7054
15952TIP3    H169271   2.080   5.125  11.672 -0.4045  0.2108  0.6207
15952TIP3    H269272   2.047   5.034  11.556  1.9391 -2.0832  1.6466
15953TIP3   OH269273   1.547   4.153  15.553  0.8465  0.2474 -0.7101
15953TIP3    H169274   1.504   4.222  15.604  0.8904 -0.0223 -0.3060
15953TIP3    H269275   1.632   4.143  15.595  0.9092  0.0687 -0.8807
15954TIP3   OH269276   5.620   6.709   3.063 -0.0984  0.2920 -0.3271
15954TIP3    H169277   5.713   6.708   3.040  0.8230 -3.4149  2.5636
15954TIP3    H269278   5.585   6.631   3.020 -0.9408 -0.3774  1.5025
15955TIP3   OH269279   2.405   3.504  13.735 -0.1584  0.2092  0.0353
15955TIP3    H169280   2.490   3.540  13.712 -0.5298  1.2717  0.2332
15955TIP3    H269281   2.403   3.506  13.831  0.4998 -2.0575  0.1418
15956TIP3   OH269282   5.752   3.312  11.989 -0.1100  0.1848  0.3470
15956TIP3    H169283   5.731   3.348  11.903  0.6561  1.3187  0.6018
15956TIP3    H269284   5.712   3.225  11.990  0.6235 -0.2137 -1.4777
15957TIP3   OH269285   5.159   2.050   4.257 -0.1244 -0.4325 -0.4449
15957TIP3    H169286   5.154   1.991   4.181 -1.8313  0.2414 -0.8814
15957TIP3    H269287   5.165   1.991   4.332 -0.7738 -1.1527 -0.9432
15958TIP3   OH269288   4.101   5.820   4.266 -0.1087 -0.5618  0.4570
15958TIP3    H169289   4.178   5.872   4.240  0.1367 -0.6765  0.9419
15958TIP3    H269290   4.112   5.807   4.360 -0.2144 -1.4286  0.3510
15959TIP3   OH269291   4.519   1.208  16.483 -0.5186  0.0365  1.0874
15959TIP3    H169292   4.546   1.140  16.421 -2.2935 -1.3810  1.8078
15959TIP3    H269293   4.449   1.255  16.438  0.0304  0.7825  0.9852
15960TIP3   OH269294   4.022   2.134   1.514 -0.0239 -0.0374 -0.1821
15960TIP3    H169295   3.934   2.166   1.535  0.3524  1.0548 -0.1830
15960TIP3    H269296   4.020   2.120   1.419  0.1333  1.1112 -0.3689
15961TIP3   OH269297   4.522   2.518   4.462 -0.2597 -0.6471 -0.3673
15961TIP3    H169298   4.516   2.602   4.508 -0.9579 -0.9162  0.0557
15961TIP3    H269299   4.460   2.462   4.508  0.8187 -1.6581 -0.1149
15962TIP3   OH269300   6.407   6.708  14.672  0.2156  0.0812  0.2472
15962TIP3    H169301   6.396   6.803  14.670 -1.0406 -0.0354  0.5986
15962TIP3    H269302   6.334   6.675  14.620  1.4484 -0.6621 -1.0954
15963TIP3   OH269303   4.947   0.429  14.153 -0.3483 -0.7136  0.6572
15963TIP3    H169304   4.868   0.472  14.120  0.5916  0.5974  0.0471
15963TIP3    H269305   4.962   0.357  14.093 -0.0961  0.1166 -0.3054
15964TIP3   OH269306   3.148   4.026   5.338 -0.6731  0.2605 -1.2124
15964TIP3    H169307   3.106   4.101   5.297 -3.0376 -0.2780  0.0305
15964TIP3    H269308   3.117   3.951   5.287 -0.8797 -0.1286 -0.5190
15965TIP3   OH269309   4.041   1.111  15.921 -0.2486 -0.5129  0.2084
15965TIP3    H169310   4.106   1.181  15.916 -0.4745 -0.3061  0.1644
15965TIP3    H269311   3.957   1.156  15.920 -0.3968 -0.6032  2.5228
15966TIP3   OH269312   0.569   0.631   2.262 -0.1002  0.4795  0.1273
15966TIP3    H169313   0.611   0.630   2.348  2.5665 -1.2485 -1.0771
15966TIP3    H269314   0.566   0.723   2.237  0.2232  0.8922  1.5138
15967TIP3   OH269315   5.616   3.773  16.043 -0.1267  0.3430  0.0818
15967TIP3    H169316   5.682   3.842  16.046 -0.1987  0.3936  2.0673
15967TIP3    H269317   5.552   3.798  16.109 -0.9540 -0.8543 -0.2245
15968TIP3   OH269318   6.456   4.281   5.193 -0.2367  0.0637 -0.2194
15968TIP3    H169319   6.369   4.265   5.229  0.1033 -1.2174  0.0699
15968TIP3    H269320   6.513   4.289   5.270  0.1672 -0.7732 -0.4143
15969TIP3   OH269321   2.764   2.149  13.109 -0.3218 -0.3950  0.4824
15969TIP3    H169322   2.731   2.152  13.020  2.3371  0.6904 -0.5645
15969TIP3    H269323   2.690   2.116  13.161 -2.4177  0.3070 -1.8586
15970TIP3   OH269324   5.051   4.435   1.860  0.5165  0.0378  0.5540
15970TIP3    H169325   5.146   4.443   1.852  0.4446  0.9359  0.5647
15970TIP3    H269326   5.020   4.435   1.770  0.6462 -2.1111  0.4532
15971TIP3   OH269327   1.735   3.134  14.109  0.3404 -0.3455  0.3060
15971TIP3    H169328   1.700   3.046  14.094 -0.3580 -0.2320  1.2202
15971TIP3    H269329   1.658   3.190  14.118  0.7372  0.7390 -2.0701
15972TIP3   OH269330   0.196   2.162   3.652  0.1041 -0.3192 -0.1025
15972TIP3    H169331   0.238   2.237   3.693  0.4205 -1.5838  2.0334
15972TIP3    H269332   0.247   2.086   3.681 -0.0905 -1.3810 -2.3195
15973TIP3   OH269333   0.476   0.992   5.797  0.1223  0.0135 -0.0501
15973TIP3    H169334   0.394   0.976   5.844  1.5341 -0.5766  2.3353
15973TIP3    H269335   0.458   1.070   5.745 -2.3214 -0.8053 -0.5828
15974TIP3   OH269336   5.709   4.181  11.307  0.1150 -0.0836 -0.3501
15974TIP3    H169337   5.730   4.088  11.298 -0.3393 -0.1718 -0.5046
15974TIP3    H269338   5.628   4.183  11.357 -0.8699  0.1427 -1.8895
15975TIP3   OH269339   0.358   0.146   5.446 -0.4835  0.2323  0.1719
15975TIP3    H169340   0.378   0.238   5.462  1.6010 -0.4710  2.2418
15975TIP3    H269341   0.407   0.123   5.367 -1.5978  1.0192 -0.7817
15976TIP3   OH269342   3.236   2.048  11.005  0.3580 -0.4659 -0.6502
15976TIP3    H169343   3.146   2.054  10.974  0.6347 -1.5193 -1.7128
15976TIP3    H269344   3.289   2.063  10.927  1.1360  0.5371  0.0337
15977TIP3   OH269345   0.092   2.761  16.487  0.3198  0.2068  0.0480
15977TIP3    H169346   0.063   2.672  16.466  2.5859 -0.2132 -1.7210
15977TIP3    H269347   0.108   2.760  16.581  1.2311 -1.5886 -0.0807
15978TIP3   OH269348   5.700   2.558   1.536  0.2860 -0.2020 -0.1838
15978TIP3    H169349   5.693   2.610   1.616 -0.1477  0.6649 -0.7761
15978TIP3    H269350   5.793   2.560   1.514  0.1051  1.5935 -0.9996
15979TIP3   OH269351   1.230   2.174  14.486 -0.3196  0.2913 -0.3808
15979TIP3    H169352   1.179   2.109  14.436  0.9014 -0.2312 -0.9867
15979TIP3    H269353   1.287   2.213  14.420 -0.4148  1.3596  0.1637
15980TIP3   OH269354   0.203   4.797   1.231  0.0660 -0.1398 -0.2152
15980TIP3    H169355   0.129   4.812   1.173 -0.1899  0.1498  0.1832
15980TIP3    H269356   0.251   4.880   1.233 -1.7872  1.0256  2.6045
15981TIP3   OH269357   2.976   1.433  12.938  0.4796 -0.2776 -0.3352
15981TIP3    H169358   3.022   1.512  12.910  1.7798 -0.8922 -0.0132
15981TIP3    H269359   2.923   1.461  13.013 -0.4854  0.6571 -1.3210
15982TIP3   OH269360   5.371   5.183   3.674  0.1449  0.0720 -0.1415
15982TIP3    H169361   5.351   5.099   3.634 -0.5342  1.2284 -2.4435
15982TIP3    H269362   5.307   5.193   3.744 -0.5169 -0.8441 -0.6027
15983TIP3   OH269363   6.484   0.344  15.942 -0.2554 -0.2227  0.4302
15983TIP3    H169364   6.566   0.374  15.980 -1.1364  1.9193  0.7450
15983TIP3    H269365   6.455   0.272  15.999  0.0701  0.7903  1.9097
15984TIP3   OH269366   3.614   4.734   4.248  0.6638  0.1715  0.0991
15984TIP3    H169367   3.541   4.692   4.294 -0.3902 -0.3237 -1.8783
15984TIP3    H269368   3.600   4.828   4.263 -2.0335  0.2982 -2.3406
15985TIP3   OH269369   0.456   0.459  12.088 -0.8786  0.4168  0.1996
15985TIP3    H169370   0.450   0.396  12.016  2.3691  0.0861  0.0842
15985TIP3    H269371   0.405   0.420  12.159 -0.0555 -1.7083 -0.3180
15986TIP3   OH269372   2.899   6.428  13.823 -0.6723 -0.1009  0.3529
15986TIP3    H169373   2.954   6.367  13.873  0.8977  0.2760 -0.8291
15986TIP3    H269374   2.960   6.474  13.766 -1.7696  2.7921  1.3489
15987TIP3   OH269375   3.213   6.508  10.591 -0.0031 -0.4789  0.3841
15987TIP3    H169376   3.289   6.544  10.545 -0.0256  0.2008  0.8705
15987TIP3    H269377   3.168   6.455  10.524  1.0680 -1.1727  0.1811
15988TIP3   OH269378   5.059   2.680   6.921 -0.2217 -0.8004 -0.3451
15988TIP3    H169379   5.153   2.660   6.915 -0.1562 -0.8318  0.6243
15988TIP3    H269380   5.022   2.606   6.969 -0.0350  1.0857  3.0447
15989TIP3   OH269381   1.379   4.548   1.422 -0.0366  0.7956 -0.1562
15989TIP3    H169382   1.329   4.548   1.340  2.5346  0.4398 -1.8274
15989TIP3    H269383   1.403   4.456   1.435 -1.0009  0.7347  1.4293
15990TIP3   OH269384   5.560   1.775   6.014 -0.5829  0.3544 -0.5329
15990TIP3    H169385   5.608   1.818   6.084 -0.8553 -0.3244  0.0838
15990TIP3    H269386   5.488   1.835   5.994  0.7315  1.6011 -1.7827
15991TIP3   OH269387   1.246   6.006  15.003  0.0028  0.2631 -0.3372
15991TIP3    H169388   1.281   5.921  15.030 -0.8996 -0.0793 -0.2089
15991TIP3    H269389   1.289   6.024  14.919  2.8601  1.3446  1.2171
15992TIP3   OH269390   5.133   3.693  16.437 -0.2721  0.2732  0.1534
15992TIP3    H169391   5.184   3.635  16.493 -1.2901 -0.1286  0.6830
15992TIP3    H269392   5.172   3.683  16.350  0.6748  0.1417  0.5925
15993TIP3   OH269393   3.652   4.412   3.557  0.5259 -0.7519  0.5681
15993TIP3    H169394   3.721   4.470   3.590  0.1349 -0.1805  0.3950
15993TIP3    H269395   3.574   4.438   3.605  0.3157 -1.0381  0.3835
15994TIP3   OH269396   6.129   0.779  16.476  0.8267 -0.3757  0.1419
15994TIP3    H169397   6.159   0.859  16.434 -2.6659  0.4054 -1.1259
15994TIP3    H269398   6.207   0.746  16.522  3.1300  2.1505 -1.6343
15995TIP3   OH269399   2.553   4.660   4.953 -0.3939  0.0602 -0.6676
15995TIP3    H169400   2.571   4.725   4.885 -0.3651 -0.3230 -1.0299
15995TIP3    H269401   2.494   4.705   5.014 -1.6727 -0.0630 -1.7446
15996TIP3   OH269402   4.344   1.414   1.929 -0.4700  0.3378 -0.3496
15996TIP3    H169403   4.339   1.409   2.025  1.3565  2.2612 -0.0917
15996TIP3    H269404   4.412   1.350   1.906 -0.2682  0.5161 -0.2583
15997TIP3   OH269405   0.187   1.703   2.012  0.2547 -0.2512 -0.3153
15997TIP3    H169406   0.229   1.644   1.950  1.3000  0.6286 -0.4872
15997TIP3    H269407   0.120   1.748   1.960  1.1964  0.5619 -0.8724
15998TIP3   OH269408   5.754   3.910  13.500  0.1957  0.2490  0.2635
15998TIP3    H169409   5.811   3.956  13.562 -0.6170  3.7380 -1.3396
15998TIP3    H269410   5.667   3.948  13.516 -0.3585 -0.0622 -1.7973
15999TIP3   OH269411   1.285   1.623   6.336  0.4237  0.3560  0.2650
15999TIP3    H169412   1.327   1.652   6.255 -0.7317  1.0501 -0.1097
15999TIP3    H269413   1.308   1.690   6.400 -0.7456  1.1804 -0.1458
16000TIP3   OH269414   4.023   3.626  14.863  0.8062 -0.2698  0.1270
16000TIP3    H169415   3.983   3.711  14.881 -0.0747 -0.7517  0.5140
16000TIP3    H269416   3.955   3.577  14.817  1.8217 -0.2612 -1.4534
16001TIP3   OH269417   2.598   2.689   1.379 -0.7535 -0.2908  0.0670
16001TIP3    H169418   2.629   2.778   1.362 -0.9408 -0.2300  0.0306
16001TIP3    H269419   2.601   2.646   1.294 -1.5531 -0.0315 -0.1016
16002TIP3   OH269420   3.706   4.108   4.276 -0.5877 -0.0594  0.2545
16002TIP3    H169421   3.798   4.135   4.270 -0.6117 -0.0966 -0.3456
16002TIP3    H269422   3.657   4.181   4.238 -0.6596 -0.9020 -1.3385
16003TIP3   OH269423   1.067   4.156  13.890 -0.0737  0.1553 -0.2757
16003TIP3    H169424   1.159   4.130  13.887 -0.5082 -1.4425 -0.8678
16003TIP3    H269425   1.068   4.242  13.931  1.6663  0.0961 -0.1068
16004TIP3   OH269426   2.282   1.390   2.928 -0.0534 -0.3353  0.4612
16004TIP3    H169427   2.255   1.480   2.910 -0.6156 -0.2306  1.7088
16004TIP3    H269428   2.209   1.353   2.979  0.6800 -1.1222  0.9726
16005TIP3   OH269429   4.974   3.425  12.546 -0.5638 -0.5944 -0.3098
16005TIP3    H169430   4.965   3.517  12.569 -0.5293 -0.8226  0.6210
16005TIP3    H269431   5.067   3.413  12.531 -0.3956 -0.7757  0.8473
16006TIP3   OH269432   5.842   3.266  11.394 -0.0966 -0.7432  0.8636
16006TIP3    H169433   5.789   3.346  11.392 -0.4129 -0.9592  0.2759
16006TIP3    H269434   5.821   3.222  11.312  0.3617 -1.2480  1.0139
16007TIP3   OH269435   5.997   2.002  16.266 -0.6733  0.3466  0.3755
16007TIP3    H169436   6.076   2.027  16.218 -0.6835  0.1121  0.2355
16007TIP3    H269437   6.019   2.016  16.358 -0.6638  0.8277  0.3058
16008TIP3   OH269438   2.027   6.684  15.257  0.7820 -0.1975  0.0759
16008TIP3    H169439   2.087   6.689  15.331 -0.5362 -2.1808  1.3863
16008TIP3    H269440   1.946   6.647  15.294 -0.6713  0.7670 -1.9440
16009TIP3   OH269441   4.916   2.555  11.492 -0.3873 -0.0650  0.0166
16009TIP3    H169442   4.978   2.608  11.443  2.3777 -3.4054 -0.4813
16009TIP3    H269443   4.849   2.532  11.428 -2.9444  4.1764  0.7354
16010TIP3   OH269444   5.292   6.321   2.517 -0.2873  0.7530  0.2044
16010TIP3    H169445   5.248   6.401   2.544 -2.4904  0.1018 -1.2128
16010TIP3    H269446   5.324   6.339   2.429 -1.0273  0.0509 -0.2331
16011TIP3   OH269447   6.106   6.286   0.738  0.1056 -0.5440 -0.1128
16011TIP3    H169448   6.036   6.263   0.800  0.2258 -0.3096  0.1119
16011TIP3    H269449   6.085   6.236   0.659 -0.5206 -0.2007 -0.1714
16012TIP3   OH269450   6.765   5.566   4.527 -0.1346  0.3705  0.0045
16012TIP3    H169451   6.689   5.613   4.562 -1.1135 -0.8323 -0.4089
16012TIP3    H269452   6.841   5.617   4.556 -1.0790  1.3930  0.7642
16013TIP3   OH269453   0.072   1.055   1.986 -0.1311  0.3999  0.5447
16013TIP3    H169454   0.101   0.972   2.023 -0.9327 -0.1607 -0.0575
16013TIP3    H269455  -0.020   1.062   2.012  0.1255  1.4659  1.2201
16014TIP3   OH269456   3.788   5.296   6.262  0.6856 -0.4450  0.2137
16014TIP3    H169457   3.719   5.237   6.233  0.9642 -1.8205  2.1825
16014TIP3    H269458   3.860   5.238   6.287  0.7728  0.6322  2.7396
16015TIP3   OH269459   4.904   1.945   1.789  0.0698  0.1938  0.1446
16015TIP3    H169460   4.818   1.916   1.818  0.6141 -0.4565  1.1755
16015TIP3    H269461   4.958   1.866   1.789  0.1184  0.1443 -2.7364
16016TIP3   OH269462   6.140   2.613   0.431  0.0646  0.8051 -0.0973
16016TIP3    H169463   6.221   2.575   0.465 -0.5782  0.9849  1.7279
16016TIP3    H269464   6.143   2.595   0.337  2.3980  1.1665 -0.1478
16017TIP3   OH269465   2.874   5.781  15.841 -0.6492 -0.1237  0.9487
16017TIP3    H169466   2.938   5.824  15.897  0.4189 -1.0283  0.4695
16017TIP3    H269467   2.839   5.709  15.894  0.3486 -0.9686  0.5026
16018TIP3   OH269468   4.428   2.616   1.209  1.1010 -0.0625  0.5333
16018TIP3    H169469   4.333   2.609   1.203  1.0870 -0.9972  1.4954
16018TIP3    H269470   4.462   2.552   1.147  1.0932 -0.0431  0.5094
16019TIP3   OH269471   1.911   5.318   0.753 -0.2922  0.3011  0.1792
16019TIP3    H169472   1.902   5.223   0.749  1.4872  0.1324 -0.5935
16019TIP3    H269473   1.967   5.340   0.678 -2.4477  2.2177 -1.0014
16020TIP3   OH269474   0.342   0.117  16.903 -0.6803 -0.9105  0.1993
16020TIP3    H169475   0.286   0.052  16.860 -0.1114 -0.9983 -0.4089
16020TIP3    H269476   0.406   0.065  16.952 -1.1199 -0.8092  0.9052
16021TIP3   OH269477   6.532   4.170  13.611 -0.1156  0.6230 -0.0855
16021TIP3    H169478   6.525   4.164  13.516 -2.6499  1.2334 -0.0049
16021TIP3    H269479   6.606   4.229  13.626 -1.2502  2.6270 -1.7822
16022TIP3   OH269480   4.538   2.847  15.052  0.3430 -0.1000 -0.0446
16022TIP3    H169481   4.515   2.904  15.125 -0.3685  0.6610 -0.8343
16022TIP3    H269482   4.545   2.906  14.977  5.0301 -0.1800  0.0467
16023TIP3   OH269483   2.903   0.043   2.196  0.5588  0.2472  0.4123
16023TIP3    H169484   2.857   0.104   2.137 -1.5333 -1.9613 -0.4448
16023TIP3    H269485   2.990   0.035   2.158  0.1946  1.1088 -0.6806
16024TIP3   OH269486   0.050   1.275   1.666 -0.0584  0.0361 -0.1022
16024TIP3    H169487   0.138   1.291   1.700 -0.1772  0.0456  0.2004
16024TIP3    H269488   0.032   1.184   1.688  0.1464 -0.1791 -0.7756
16025TIP3   OH269489   0.525   2.048   1.835  0.4925  0.3375 -0.3279
16025TIP3    H169490   0.506   2.113   1.768 -0.5617 -0.4522 -0.8407
16025TIP3    H269491   0.559   1.972   1.787 -0.3036 -0.2485 -0.0056
16026TIP3   OH269492   6.263   4.093   3.818  0.4485 -0.0384 -0.7248
16026TIP3    H169493   6.239   4.166   3.875 -0.3705  0.4322 -1.6327
16026TIP3    H269494   6.343   4.121   3.775  1.6643 -0.8225  0.9086
16027TIP3   OH269495   0.260   4.714   3.702  0.1026 -0.1538 -0.5139
16027TIP3    H169496   0.286   4.630   3.739 -2.2987  0.0795  2.0465
16027TIP3    H269497   0.236   4.694   3.611  1.9441 -1.6794 -0.7230
16028TIP3   OH269498   6.163   2.619  13.320  0.2054 -0.0937  0.5233
16028TIP3    H169499   6.159   2.702  13.273 -0.7118  0.9818  2.3799
16028TIP3    H269500   6.218   2.637  13.396 -0.0307 -1.2044  0.9817
16029TIP3   OH269501   6.571   5.586   2.667  0.4950  0.5862  0.1685
16029TIP3    H169502   6.636   5.656   2.664  1.2768 -0.0021  2.0818
16029TIP3    H269503   6.563   5.565   2.760 -0.6501 -1.0204 -0.2605
16030TIP3   OH269504   4.544   4.469   5.522  0.0604 -0.2151  0.4438
16030TIP3    H169505   4.622   4.464   5.466  2.2386 -1.4623  3.3042
16030TIP3    H269506   4.488   4.398   5.490  2.0584 -2.1021  0.8309
16031TIP3   OH269507   4.727   2.879  16.696 -0.2279  0.1727 -0.4639
16031TIP3    H169508   4.660   2.820  16.730  0.1592 -0.2230 -0.3680
16031TIP3    H269509   4.729   2.952  16.757  1.0281 -0.9165  0.8760
16032TIP3   OH269510   1.129   5.771  11.555 -0.4220 -0.1712  0.1541
16032TIP3    H169511   1.083   5.801  11.476  0.8216 -0.8462 -0.8652
16032TIP3    H269512   1.075   5.699  11.588 -1.4705  0.7483  0.5022
16033TIP3   OH269513   3.113   1.005   5.684  0.4473  0.5927 -0.0762
16033TIP3    H169514   3.093   0.913   5.670  1.2581  0.5161 -0.7721
16033TIP3    H269515   3.052   1.052   5.627  0.6946  0.4517 -0.4534
16034TIP3   OH269516   2.595   6.186  16.595 -0.6953 -0.4280  0.8592
16034TIP3    H169517   2.506   6.150  16.605 -0.7017 -0.1047  2.2052
16034TIP3    H269518   2.583   6.281  16.598 -0.3093 -0.3793  0.9167
16035TIP3   OH269519   6.569   5.543   2.934 -0.3917 -0.7955  0.4330
16035TIP3    H169520   6.568   5.468   2.993  1.3759 -0.4808  0.9144
16035TIP3    H269521   6.616   5.610   2.982  0.6816 -0.3735 -1.1556
16036TIP3   OH269522   6.006   3.061  11.852  0.0231 -0.0017 -0.1236
16036TIP3    H169523   6.074   3.105  11.802 -2.2308  1.1162 -2.4512
16036TIP3    H269524   6.043   3.050  11.939  2.5014  2.0992 -0.7968
16037TIP3   OH269525   6.317   6.145   2.206 -0.2622  0.4956  0.0460
16037TIP3    H169526   6.342   6.105   2.289 -1.2398 -1.2675 -0.4520
16037TIP3    H269527   6.311   6.238   2.225  1.1452  0.3141  1.5228
16038TIP3   OH269528   4.305   1.724   6.197  0.8004 -0.1511  0.3790
16038TIP3    H169529   4.400   1.723   6.204  0.8290  0.0619  0.0154
16038TIP3    H269530   4.287   1.753   6.108  0.4313 -2.0260 -0.2022
16039TIP3   OH269531   6.283   2.358   1.657 -0.1514  0.5145 -0.2278
16039TIP3    H169532   6.235   2.423   1.709  0.0700  1.7243 -1.4788
16039TIP3    H269533   6.375   2.371   1.681 -0.1803  0.0987  0.1177
16040TIP3   OH269534   0.140   2.131  13.044  0.1746  0.3123  0.2444
16040TIP3    H169535   0.059   2.105  12.999 -0.6182 -1.1696  2.3838
16040TIP3    H269536   0.129   2.225  13.060 -1.1751  0.1287  0.5496
16041TIP3   OH269537   3.592   0.163  16.868  0.1512 -0.1039 -0.6105
16041TIP3    H169538   3.532   0.090  16.881 -2.0818  1.3731 -1.9191
16041TIP3    H269539   3.650   0.135  16.797  0.4237 -1.1905  0.0240
16042TIP3   OH269540   4.746   1.843   2.188 -0.0166  0.2887  0.0013
16042TIP3    H169541   4.837   1.873   2.183 -0.1997  0.7988 -0.5475
16042TIP3    H269542   4.718   1.866   2.276  0.4869 -0.1780  0.2860
16043TIP3   OH269543   3.877   0.428  16.088  0.5542  0.6041 -0.0055
16043TIP3    H169544   3.796   0.432  16.038  1.0033 -1.3287 -0.9983
16043TIP3    H269545   3.928   0.503  16.057 -0.1044  0.7501 -0.7702
16044TIP3   OH269546   3.433   3.603   0.687  0.3191 -0.1922 -0.1708
16044TIP3    H169547   3.522   3.603   0.653  0.4594 -1.2736  0.1422
16044TIP3    H269548   3.414   3.695   0.706  2.0216 -0.0983  1.4118
16045TIP3   OH269549   1.489   5.529  12.505 -0.6287  0.7684  0.0270
16045TIP3    H169550   1.469   5.472  12.430  3.0165 -0.2309 -0.3884
16045TIP3    H269551   1.424   5.599  12.500 -2.6359 -1.0755 -1.9954
16046TIP3   OH269552   6.679   5.524  15.214 -0.8009 -0.3483  0.5064
16046TIP3    H169553   6.712   5.531  15.304  0.2165 -0.0031  0.1209
16046TIP3    H269554   6.696   5.610  15.176 -0.5834 -0.7119 -0.2301
16047TIP3   OH269555   4.432   6.667  10.885  0.1056  0.1643  0.2579
16047TIP3    H169556   4.470   6.741  10.838  0.6106 -0.1893  0.1001
16047TIP3    H269557   4.340   6.692  10.897  0.5598  1.4017  1.3906
16048TIP3   OH269558   3.689   6.393   0.645  0.1615  0.0272  0.4018
16048TIP3    H169559   3.624   6.334   0.607 -1.2755  1.7673 -0.0133
16048TIP3    H269560   3.643   6.434   0.720  1.0977  0.5917  0.6825
16049TIP3   OH269561   0.339   3.256   4.729  0.1418 -0.0275 -0.3257
16049TIP3    H169562   0.303   3.345   4.733 -1.5251 -0.7067  0.8243
16049TIP3    H269563   0.357   3.241   4.637 -1.5103  0.7841 -0.8128
16050TIP3   OH269564   2.406   4.034   1.034  0.0864  0.0490 -0.1794
16050TIP3    H169565   2.421   3.988   0.951  0.2731 -1.4758  0.6686
16050TIP3    H269566   2.490   4.030   1.079  0.1156  1.2920 -0.1002
16051TIP3   OH269567   4.364   4.817  15.724  0.2452 -0.0433  0.4086
16051TIP3    H169568   4.295   4.877  15.753 -0.6461 -1.2958  0.9661
16051TIP3    H269569   4.344   4.800  15.632 -2.2149 -2.8795  1.2855
16052TIP3   OH269570   1.247   5.447   5.033 -0.0972  0.0249  0.3095
16052TIP3    H169571   1.237   5.513   4.965 -1.2096  0.4671  0.8724
16052TIP3    H269572   1.340   5.424   5.031 -0.1598 -0.1464 -1.4863
16053TIP3   OH269573   1.520   3.295  14.083 -0.8668  0.4954  0.5858
16053TIP3    H169574   1.459   3.316  14.153 -1.1944 -1.9615  1.1427
16053TIP3    H269575   1.472   3.315  14.003 -2.1118 -0.5723  1.0272
16054TIP3   OH269576   0.763   4.924   3.154  0.1123  0.3722  0.2356
16054TIP3    H169577   0.757   4.941   3.060  0.6707  0.5902  0.2330
16054TIP3    H269578   0.674   4.937   3.187  0.4718  3.6093  0.2845
16055TIP3   OH269579   5.278   1.791  14.814  0.1579  0.3118 -0.2897
16055TIP3    H169580   5.265   1.851  14.741  2.1725 -0.7049 -1.5746
16055TIP3    H269581   5.245   1.838  14.890  1.1965  2.8388 -1.2910
16056TIP3   OH269582   3.505   2.490   5.245 -0.7156  0.5695 -0.2198
16056TIP3    H169583   3.480   2.444   5.164 -0.1868 -1.5209  0.7473
16056TIP3    H269584   3.474   2.433   5.315 -1.6034  2.5971  1.0989
16057TIP3   OH269585   6.753   4.627  13.557  0.2335  0.1102 -0.2668
16057TIP3    H169586   6.845   4.617  13.581  0.4183  1.9811 -0.0283
16057TIP3    H269587   6.704   4.584  13.627  0.8990 -1.5890 -0.7892
16058TIP3   OH269588   0.340   4.753   5.097  0.1741 -0.3087 -0.0820
16058TIP3    H169589   0.260   4.804   5.111  0.5565 -0.1017  1.4768
16058TIP3    H269590   0.342   4.737   5.002 -0.5594  1.5886 -0.4571
16059TIP3   OH269591   0.975   4.896  13.625  0.2286 -0.4591  0.1223
16059TIP3    H169592   0.952   4.852  13.707 -0.5730 -1.7597 -0.7721
16059TIP3    H269593   0.891   4.920  13.586  0.4253 -2.4230 -1.6643
16060TIP3   OH269594   1.656   4.006  16.580 -0.7755  0.2922  0.2675
16060TIP3    H169595   1.604   4.083  16.600 -0.2272  0.8897 -0.5676
16060TIP3    H269596   1.601   3.932  16.607 -1.8128  0.9302 -0.0510
16061TIP3   OH269597   2.110   2.107   2.338  0.7185 -0.6385 -0.0417
16061TIP3    H169598   2.143   2.023   2.306  1.4901  0.2025 -1.5656
16061TIP3    H269599   2.182   2.143   2.389  0.5832 -0.6759  0.1748
16062TIP3   OH269600   0.454   4.135  10.521  0.0994  0.7645  0.5169
16062TIP3    H169601   0.511   4.147  10.597 -0.1171 -0.9756  0.9931
16062TIP3    H269602   0.365   4.144  10.557 -0.0102 -0.3101  0.5284
16063TIP3   OH269603   1.882   1.576   3.014 -0.4856 -0.1381  0.1525
16063TIP3    H169604   1.837   1.509   2.962  0.4821 -0.1056 -0.7659
16063TIP3    H269605   1.918   1.636   2.949  0.2264  0.2622  0.8983
16064TIP3   OH269606   3.635   4.622   5.936  0.5952 -0.3964 -0.0208
16064TIP3    H169607   3.597   4.545   5.892  0.7108 -0.3429 -0.2205
16064TIP3    H269608   3.569   4.650   5.998 -0.2692  0.5172 -1.3046
16065TIP3   OH269609   5.846   3.382  14.186  0.1865  0.0434 -0.4485
16065TIP3    H169610   5.770   3.359  14.240  1.0557 -1.3376  0.2639
16065TIP3    H269611   5.809   3.410  14.103 -1.1089 -1.0647 -0.2903
16066TIP3   OH269612   4.726   6.466   5.670 -0.0648  0.4940  0.2859
16066TIP3    H169613   4.771   6.383   5.653 -3.2505 -1.5883  1.0774
16066TIP3    H269614   4.749   6.486   5.761  0.9896  0.7143 -0.0113
16067TIP3   OH269615   1.987   4.972   1.563 -0.3173 -0.1471 -0.2786
16067TIP3    H169616   1.937   4.975   1.482  0.8370  1.4792 -0.9848
16067TIP3    H269617   2.020   4.882   1.567  0.0624 -0.1076 -1.9208
16068TIP3   OH269618   2.732   5.246   3.770 -0.1923  0.2049 -0.1403
16068TIP3    H169619   2.726   5.341   3.758  0.8602  0.5563  1.7267
16068TIP3    H269620   2.713   5.232   3.862  0.2990 -1.3298 -0.2452
16069TIP3   OH269621   5.143   0.575  12.027  0.5770  0.5334 -0.2662
16069TIP3    H169622   5.146   0.571  12.122 -0.4362  1.3460 -0.1759
16069TIP3    H269623   5.221   0.625  12.002  1.4957 -0.7077  0.0339
16070TIP3   OH269624   5.892   1.912   1.934 -0.0291 -0.3664 -0.1124
16070TIP3    H169625   5.856   1.830   1.968  0.2847 -0.2047  0.6207
16070TIP3    H269626   5.863   1.914   1.843 -1.7872 -0.3103  0.3964
16071TIP3   OH269627   3.062   1.801   2.047  0.3770 -0.2567 -0.6645
16071TIP3    H169628   3.020   1.763   2.125 -2.2523 -0.9117 -2.2752
16071TIP3    H269629   3.097   1.725   2.000 -0.0742 -0.1230 -1.2206
16072TIP3   OH269630   4.215   4.911  16.907  0.3465  0.2732  0.0043
16072TIP3    H169631   4.168   4.839  16.950  0.5255 -0.5124 -1.0868
16072TIP3    H269632   4.295   4.922  16.958  0.2971 -0.2791  0.2045
16073TIP3   OH269633   5.355   5.109   5.740 -0.0362  0.4939 -0.5522
16073TIP3    H169634   5.291   5.179   5.727  0.2278  0.5638 -1.5648
16073TIP3    H269635   5.436   5.144   5.702 -0.2369 -0.8674 -2.3008
16074TIP3   OH269636   1.194   0.858   2.863 -0.4915 -0.2367  0.4897
16074TIP3    H169637   1.289   0.861   2.875 -0.5559 -0.1432  1.0205
16074TIP3    H269638   1.168   0.950   2.863 -0.5991 -0.2673  0.4694
16075TIP3   OH269639   2.097   4.016  17.211 -0.7727 -0.4970 -0.3294
16075TIP3    H169640   2.065   4.103  17.232 -0.3139 -0.9069  2.3806
16075TIP3    H269641   2.033   3.957  17.251 -0.2265 -1.4024 -0.7655
16076TIP3   OH269642   3.483   2.065  12.887 -0.2372 -0.4496  0.1787
16076TIP3    H169643   3.475   2.024  12.973  0.4646  0.7005  0.8162
16076TIP3    H269644   3.508   2.156  12.906  0.6122 -0.3535 -1.2529
16077TIP3   OH269645   4.798   0.183   4.465 -0.5085 -0.4392 -0.3252
16077TIP3    H169646   4.795   0.119   4.394 -0.5159 -1.5227  0.6255
16077TIP3    H269647   4.860   0.250   4.434 -2.8077  0.8203 -2.6884
16078TIP3   OH269648   6.086   1.887  13.621  0.0062  0.0562 -0.0572
16078TIP3    H169649   6.019   1.949  13.594  0.0320  0.5394  0.9520
16078TIP3    H269650   6.145   1.937  13.677  1.6897 -0.1526 -1.5516
16079TIP3   OH269651   2.625   2.052   2.051 -0.0582 -0.0406  0.1590
16079TIP3    H169652   2.578   2.135   2.053 -0.9294 -0.4627 -1.3563
16079TIP3    H269653   2.717   2.077   2.054 -0.3123  0.9781 -0.0496
16080TIP3   OH269654   3.255   3.700  13.983  0.2405 -0.0544  0.5402
16080TIP3    H169655   3.300   3.664  14.060 -1.1159 -0.6568  1.1002
16080TIP3    H269656   3.173   3.735  14.019 -0.1035  0.2761 -0.5505
16081TIP3   OH269657   3.313   3.775   3.129  0.1285  0.2623 -0.0710
16081TIP3    H169658   3.233   3.776   3.076  0.7842  0.0409 -1.0938
16081TIP3    H269659   3.294   3.713   3.200  0.3830 -2.1395 -1.9465
16082TIP3   OH269660   0.875   3.102  13.495 -0.1387  0.0377 -0.7038
16082TIP3    H169661   0.821   3.143  13.562 -0.1454 -1.4550  0.2462
16082TIP3    H269662   0.826   3.112  13.414  0.0055  2.1391 -0.5845
16083TIP3   OH269663   2.016   5.483   5.254 -0.2686 -0.7837 -0.1082
16083TIP3    H169664   1.953   5.456   5.321  0.7372  0.0484  1.2488
16083TIP3    H269665   2.052   5.402   5.220  0.7870 -1.2717  1.9874
16084TIP3   OH269666   0.864   2.820   4.331  0.3942 -0.4183 -0.3526
16084TIP3    H169667   0.948   2.780   4.307 -0.0394 -0.9341 -1.0512
16084TIP3    H269668   0.852   2.890   4.266  0.7466  0.3051  0.3505
16085TIP3   OH269669   4.927   2.674   2.700  0.0729 -0.2654 -0.4359
16085TIP3    H169670   4.885   2.658   2.615 -1.1768 -0.8164  0.2688
16085TIP3    H269671   4.957   2.588   2.729 -0.7116 -0.3034  0.2950
16086TIP3   OH269672   1.715   2.835  11.350  0.0980  0.2633 -0.5979
16086TIP3    H169673   1.756   2.749  11.336 -1.1250 -0.3113 -0.7659
16086TIP3    H269674   1.717   2.877  11.264 -0.1649  0.0008 -0.7363
16087TIP3   OH269675   5.500   4.089   0.588  0.2562 -0.4939  0.1478
16087TIP3    H169676   5.425   4.033   0.570  1.4038 -1.1535 -3.4246
16087TIP3    H269677   5.576   4.030   0.585  1.0820  0.3684  2.3067
16088TIP3   OH269678   5.757   2.138  15.163 -0.1987 -0.2331  0.1557
16088TIP3    H169679   5.816   2.145  15.088  0.8205  1.9172  1.0519
16088TIP3    H269680   5.801   2.078  15.223  1.4406  1.7106  1.0227
16089TIP3   OH269681   0.825   4.354   5.506 -0.1265 -0.5336  0.1506
16089TIP3    H169682   0.915   4.333   5.483 -0.9038 -0.8232 -3.1324
16089TIP3    H269683   0.779   4.270   5.501 -0.7384 -0.2857  1.1811
16090TIP3   OH269684   3.933   5.204   3.402  0.2427  0.2137 -0.4781
16090TIP3    H169685   3.975   5.182   3.485 -2.5543 -0.2686  0.9273
16090TIP3    H269686   3.897   5.291   3.416 -0.0964  0.2062 -1.2592
16091TIP3   OH269687   2.490   1.886  14.441 -0.4161 -0.1256 -0.1535
16091TIP3    H169688   2.490   1.843  14.527 -1.3565  1.1004  0.4897
16091TIP3    H269689   2.399   1.880  14.412 -0.0606 -0.7180 -1.1718
16092TIP3   OH269690   3.247   4.530  14.482 -0.0554 -0.7734  0.7745
16092TIP3    H169691   3.230   4.622  14.500 -1.3538 -1.1998  1.8474
16092TIP3    H269692   3.168   4.499  14.438 -0.3370 -1.7549  1.9158
16093TIP3   OH269693   2.138   2.423   4.646 -0.4428  0.6558  0.1808
16093TIP3    H169694   2.182   2.373   4.715  0.7774  0.4803 -0.6802
16093TIP3    H269695   2.098   2.357   4.590  1.6335  0.5368 -1.2647
16094TIP3   OH269696   4.333   2.342  17.250  0.2788  0.3817  0.3307
16094TIP3    H169697   4.413   2.345  17.197  0.1550  0.2795  0.1351
16094TIP3    H269698   4.347   2.271  17.311  0.4361  0.5194  0.4548
16095TIP3   OH269699   3.324   3.249   1.587  0.3988 -0.4519  0.1054
16095TIP3    H169700   3.374   3.192   1.645  0.4895 -0.6640 -0.1783
16095TIP3    H269701   3.300   3.324   1.641  0.6827 -0.5379  0.3506
16096TIP3   OH269702   6.284   3.193   1.258  0.2964 -0.2492  0.4612
16096TIP3    H169703   6.343   3.124   1.227 -0.9429 -1.1478  0.0654
16096TIP3    H269704   6.322   3.221   1.341  0.9072 -1.2952  0.5551
16097TIP3   OH269705   1.938   6.105  16.265 -1.1564  0.5040  0.0963
16097TIP3    H169706   1.927   6.024  16.315 -2.7779  1.0409  0.6538
16097TIP3    H269707   1.851   6.144  16.263 -0.6391  1.6449 -1.2030
16098TIP3   OH269708   4.821   3.504   6.116 -0.2155 -0.6867  0.3550
16098TIP3    H169709   4.833   3.557   6.195 -2.8114  1.1226 -0.3144
16098TIP3    H269710   4.789   3.420   6.149  1.7651 -1.1163  1.3284
16099TIP3   OH269711   4.502   3.656  13.613 -0.2365  0.5156  0.4077
16099TIP3    H169712   4.451   3.609  13.547  0.6193 -1.0654  0.8009
16099TIP3    H269713   4.446   3.655  13.691 -0.2288  0.1335  0.4116
16100TIP3   OH269714   4.209   3.394   0.649  0.2288  0.5517  0.1370
16100TIP3    H169715   4.239   3.480   0.678 -1.3240  0.6045  1.7737
16100TIP3    H269716   4.272   3.333   0.687  1.8149  0.9480 -1.7133
16101TIP3   OH269717   3.053   1.628  10.918 -0.6930  0.1409  0.1201
16101TIP3    H169718   3.086   1.624  11.008 -2.5781  1.6669  0.9440
16101TIP3    H269719   3.118   1.581  10.867  0.6011 -0.5041  2.2287
16102TIP3   OH269720   5.158   6.426  13.206  0.1756  0.1050  0.0433
16102TIP3    H169721   5.065   6.401  13.207  0.4898 -1.2642  2.5818
16102TIP3    H269722   5.161   6.507  13.257  0.4035  0.0308  0.1473
16103TIP3   OH269723   6.052   4.138   4.438 -0.1394  0.5478 -0.1589
16103TIP3    H169724   6.041   4.087   4.357 -1.0889  0.5365 -0.0325
16103TIP3    H269725   6.018   4.081   4.507 -0.0705  0.8711  0.1459
16104TIP3   OH269726   4.741   2.970   5.444 -0.2028  0.1284  0.3868
16104TIP3    H169727   4.775   2.881   5.455  2.1534  1.2129  3.0144
16104TIP3    H269728   4.655   2.968   5.487 -0.1555 -0.8494  0.4623
16105TIP3   OH269729   4.353   2.596  14.657 -0.0183 -0.3338  0.2326
16105TIP3    H169730   4.365   2.549  14.740 -0.1991 -0.6918  0.0591
16105TIP3    H269731   4.416   2.668  14.661  2.4949 -2.3284 -0.8033
16106TIP3   OH269732   6.192   5.650   5.435 -0.5006 -0.1817  0.4509
16106TIP3    H169733   6.280   5.662   5.398 -0.5869 -0.4064  0.1681
16106TIP3    H269734   6.163   5.739   5.458 -0.6584  0.0329 -0.5195
16107TIP3   OH269735   5.779   4.420   0.509  0.0580  0.3508 -0.7235
16107TIP3    H169736   5.801   4.379   0.593 -1.4565 -1.1168 -0.9975
16107TIP3    H269737   5.841   4.382   0.447  1.6613  1.9802 -0.1981
16108TIP3   OH269738   4.417   2.132  13.591 -0.4511 -0.2250  0.1537
16108TIP3    H169739   4.436   2.076  13.516 -2.1935 -1.9063  0.8899
16108TIP3    H269740   4.488   2.116  13.652  0.9332  1.0912 -1.0406
16109TIP3   OH269741   6.082   4.258  16.099  0.1353 -0.1537  0.4725
16109TIP3    H169742   6.128   4.197  16.157 -0.7440 -2.5654 -1.1970
16109TIP3    H269743   6.055   4.204  16.025 -1.6968  2.0851 -0.5961
16110TIP3   OH269744   6.034   1.606  12.232  0.4015  0.1643 -0.4537
16110TIP3    H169745   6.045   1.585  12.325 -0.1710 -1.0238 -0.6272
16110TIP3    H269746   6.045   1.701  12.227  0.0223  0.2964  0.8847
16111TIP3   OH269747   4.798   0.900  13.561 -0.0960 -0.1127  0.1544
16111TIP3    H169748   4.707   0.927  13.563  0.1955  0.8823  0.8117
16111TIP3    H269749   4.830   0.928  13.475  0.2956  2.1132  0.9395
16112TIP3   OH269750   2.358   4.760   5.908  0.3722  0.2516  0.2379
16112TIP3    H169751   2.319   4.677   5.935 -1.3308  0.3033 -1.7886
16112TIP3    H269752   2.442   4.763   5.953 -0.6522 -1.3235  2.4121
16113TIP3   OH269753   4.205   3.059   1.104 -0.0764 -0.6775  0.2278
16113TIP3    H169754   4.168   3.141   1.074 -0.4219 -0.3748  1.4294
16113TIP3    H269755   4.294   3.081   1.131 -0.1627 -0.6895  0.5333
16114TIP3   OH269756   6.691   3.883   0.155 -0.5523 -0.3169  0.5610
16114TIP3    H169757   6.649   3.928   0.082  0.1741  0.0818  0.3779
16114TIP3    H269758   6.752   3.822   0.114 -2.0331 -2.0286  0.7839
16115TIP3   OH269759   6.309   1.309   4.120  0.0080  0.2906  0.2103
16115TIP3    H169760   6.361   1.386   4.096  1.3044 -0.0618  1.7230
16115TIP3    H269761   6.332   1.243   4.055 -0.8396  1.0199 -0.8847
16116TIP3   OH269762   3.008   4.603   4.071 -0.3587  0.2266 -0.3755
16116TIP3    H169763   2.958   4.685   4.072 -2.2373 -0.8005 -2.3150
16116TIP3    H269764   2.961   4.547   4.010  1.4697 -1.9624  0.0957
16117TIP3   OH269765   1.458   6.060   5.536 -0.3324  0.2978 -0.4101
16117TIP3    H169766   1.413   6.124   5.592 -1.3269  1.3629 -2.2924
16117TIP3    H269767   1.545   6.096   5.524  0.5686 -0.9184  1.9095
16118TIP3   OH269768   6.573   5.003   1.227  0.3656  0.5760  0.0900
16118TIP3    H169769   6.525   4.921   1.219  3.0793 -1.1650  0.3125
16118TIP3    H269770   6.583   5.033   1.136 -0.9462  0.9132  0.0318
16119TIP3   OH269771   1.870   1.128   3.834 -0.1639  0.1303  0.1615
16119TIP3    H169772   1.793   1.176   3.804  0.9059  1.7496 -0.1490
16119TIP3    H269773   1.836   1.066   3.898 -1.6923  1.0062  0.2534
16120TIP3   OH269774   1.236   0.019   4.259  0.4763 -0.5153 -0.1922
16120TIP3    H169775   1.319   0.013   4.211  0.1522 -0.7566 -0.7312
16120TIP3    H269776   1.223  -0.068   4.295  0.8206 -0.2802  0.5202
16121TIP3   OH269777   1.594   1.215  13.507  0.0053  0.1921 -0.4278
16121TIP3    H169778   1.644   1.297  13.504 -0.9635  0.8892  1.3064
16121TIP3    H269779   1.659   1.150  13.533  0.4030  0.7660  0.0692
16122TIP3   OH269780   1.159   3.495   6.576  0.1983  0.0275  0.2990
16122TIP3    H169781   1.172   3.516   6.669 -0.7681  0.1226  0.4184
16122TIP3    H269782   1.150   3.580   6.534 -1.3272 -0.0549  0.4229
16123TIP3   OH269783   5.974   3.453  11.828 -0.1130  0.1202  0.3626
16123TIP3    H169784   5.900   3.401  11.795 -0.9182 -0.1241  2.4357
16123TIP3    H269785   6.037   3.388  11.859  0.4099  0.3515 -0.2017
16124TIP3   OH269786   0.912   5.356   0.098  0.0269 -0.4101  0.3454
16124TIP3    H169787   0.966   5.306   0.159 -0.2987 -0.0627  0.9205
16124TIP3    H269788   0.825   5.316   0.103  0.0246 -0.4502  0.0274
16125TIP3   OH269789   4.290   3.685   1.063 -0.1798 -0.2351 -0.5093
16125TIP3    H169790   4.256   3.774   1.054 -0.8651 -0.2370  1.5909
16125TIP3    H269791   4.349   3.675   0.988 -1.3991  1.3417 -1.7715
16126TIP3   OH269792   5.663   5.104   2.804  0.2772  0.4329  0.0769
16126TIP3    H169793   5.682   5.112   2.710  1.5777 -2.8183 -0.0448
16126TIP3    H269794   5.574   5.139   2.813 -0.7876 -1.1721 -2.8238
16127TIP3   OH269795   6.556   1.416  10.963 -0.0014 -0.1186 -0.0246
16127TIP3    H169796   6.583   1.346  10.903 -1.7995 -3.0260  2.2946
16127TIP3    H269797   6.503   1.475  10.909  0.6231 -1.1325 -1.8297
16128TIP3   OH269798   5.884   2.338  14.741  0.0762 -0.1201  1.0063
16128TIP3    H169799   5.923   2.333  14.654 -0.1723  0.3370  0.8657
16128TIP3    H269800   5.808   2.281  14.737  0.9008 -1.2735  1.3794
16129TIP3   OH269801   3.758   3.633   4.193  0.1168 -0.4047  0.0459
16129TIP3    H169802   3.805   3.562   4.237  0.3368 -0.3507 -0.1001
16129TIP3    H269803   3.706   3.589   4.126  0.7419 -0.3754 -0.4695
16130TIP3   OH269804   5.924   1.367  14.534 -0.1671 -0.1946  0.6063
16130TIP3    H169805   5.989   1.435  14.512 -2.0212  0.9069 -1.9485
16130TIP3    H269806   5.968   1.285  14.511  0.5253  0.4879 -0.6824
16131TIP3   OH269807   0.865   0.960  14.461 -0.0177  0.2495  0.3360
16131TIP3    H169808   0.915   1.041  14.468  3.4111 -1.7268  1.4008
16131TIP3    H269809   0.828   0.946  14.548 -1.2279  0.9615 -0.0421
16132TIP3   OH269810   0.524   2.118   0.303  0.2584 -0.0686  0.1298
16132TIP3    H169811   0.496   2.027   0.301  1.1267 -0.3620  1.0757
16132TIP3    H269812   0.447   2.167   0.331  0.0386 -0.6055  0.4568
16133TIP3   OH269813   5.757   3.239   2.941 -0.0978 -0.3902  0.1770
16133TIP3    H169814   5.833   3.286   2.907  0.0631  0.1706  1.2891
16133TIP3    H269815   5.782   3.212   3.029 -1.2533 -0.0105  0.6518
16134TIP3   OH269816   2.075   2.249   2.093 -0.0489 -0.3542  0.2133
16134TIP3    H169817   2.096   2.179   2.154  0.3756  0.0997  0.5946
16134TIP3    H269818   1.979   2.253   2.094 -0.1648 -2.0721 -1.1342
16135TIP3   OH269819   4.867   3.609  16.330 -0.1298 -0.1532  0.5198
16135TIP3    H169820   4.907   3.534  16.285  0.2551 -0.3149  1.1140
16135TIP3    H269821   4.924   3.683  16.307 -0.1644 -0.1585  0.4178
16136TIP3   OH269822   6.368   5.377  12.936 -0.2505  0.0803 -0.3855
16136TIP3    H169823   6.441   5.317  12.952 -0.0924  0.5569  0.8052
16136TIP3    H269824   6.300   5.348  12.997 -0.9615 -0.1765 -1.2758
16137TIP3   OH269825   2.244   0.929   4.605 -0.0845  0.1980  0.2871
16137TIP3    H169826   2.228   0.975   4.523  0.9745 -0.9913 -0.6228
16137TIP3    H269827   2.317   0.870   4.586 -2.0713 -2.7135  1.0470
16138TIP3   OH269828   6.296   4.781  11.713 -0.4956 -0.1250 -0.0374
16138TIP3    H169829   6.342   4.699  11.730 -0.1484  0.0270 -0.2335
16138TIP3    H269830   6.227   4.757  11.651 -0.3123 -0.2450 -0.1966
16139TIP3   OH269831   2.520   6.379   0.977 -0.0781  0.0218 -1.3298
16139TIP3    H169832   2.481   6.308   0.926 -1.4297 -0.3462  0.1359
16139TIP3    H269833   2.608   6.349   0.997 -0.7797 -1.5195 -0.3335
16140TIP3   OH269834   3.835   5.080   2.960  0.0082 -0.3011  0.3549
16140TIP3    H169835   3.830   5.085   2.865 -1.1397 -1.2621  0.3371
16140TIP3    H269836   3.907   5.139   2.984  1.9963 -1.9413 -1.2739
16141TIP3   OH269837   2.249   4.616  12.117  0.2578 -0.2204 -0.4760
16141TIP3    H169838   2.262   4.634  12.024  0.9432  1.9760 -0.0236
16141TIP3    H269839   2.292   4.532  12.133  1.4542  0.1002 -1.8521
16142TIP3   OH269840   1.884   3.940   4.093  0.5021  0.5149  0.1579
16142TIP3    H169841   1.829   3.870   4.130  0.0386  0.2365 -1.0140
16142TIP3    H269842   1.932   3.974   4.168  0.2452 -0.6199  0.8698
16143TIP3   OH269843   4.403   2.406  14.129 -0.1870  0.4636 -0.8839
16143TIP3    H169844   4.458   2.468  14.082  1.6882  1.7679  2.6574
16143TIP3    H269845   4.343   2.461  14.180  0.3992 -0.6290  1.0766
16144TIP3   OH269846   4.384   3.704   5.075 -0.2992  0.4242 -0.7342
16144TIP3    H169847   4.466   3.687   5.028 -0.9467 -0.0946 -1.7156
16144TIP3    H269848   4.407   3.696   5.168  0.0177 -3.6160 -0.9682
16145TIP3   OH269849   5.008   2.848  16.640  0.1896  0.0962 -0.0451
16145TIP3    H169850   5.020   2.940  16.665 -1.2957 -0.1381  1.6395
16145TIP3    H269851   4.915   2.840  16.623  0.3019 -1.1365 -0.1257
16146TIP3   OH269852   5.181   1.311  15.062  0.0937 -0.0182 -0.2317
16146TIP3    H169853   5.115   1.345  15.122  0.0090 -0.2842 -0.1742
16146TIP3    H269854   5.206   1.386  15.009 -0.7546 -0.0716 -0.7201
16147TIP3   OH269855   3.005   2.229  11.917  0.1532  0.4659 -0.3462
16147TIP3    H169856   2.967   2.304  11.871 -0.8982  0.9665  1.2458
16147TIP3    H269857   3.096   2.253  11.932 -0.2731  1.6647  0.5368
16148TIP3   OH269858   2.979   1.517  16.931 -0.4054 -0.0691  0.5514
16148TIP3    H169859   3.049   1.455  16.952 -0.1848 -0.2608 -0.6937
16148TIP3    H269860   2.902   1.462  16.916 -0.2057 -0.0585 -0.5693
16149TIP3   OH269861   5.283   2.192  11.570 -0.1708 -0.1529  0.4203
16149TIP3    H169862   5.371   2.207  11.534 -0.0581 -0.0150  0.7521
16149TIP3    H269863   5.243   2.279  11.571 -0.6623 -0.3419 -0.6243
16150TIP3   OH269864   6.259   5.156  13.602 -0.6870 -0.1586  0.0816
16150TIP3    H169865   6.336   5.112  13.565  0.0071 -0.2693  1.5907
16150TIP3    H269866   6.288   5.188  13.687 -1.8020  1.3833 -0.0680
16151TIP3   OH269867   0.040   2.236   3.422 -0.6103 -0.4428 -0.3704
16151TIP3    H169868   0.087   2.191   3.492 -1.3027 -1.4696 -0.5426
16151TIP3    H269869   0.108   2.260   3.359  0.0898  0.9814  0.8909
16152TIP3   OH269870   1.349   4.346  11.423  0.3030  0.2461  0.0328
16152TIP3    H169871   1.396   4.334  11.340  0.2058 -0.2721  0.0491
16152TIP3    H269872   1.290   4.420  11.407  0.2959  0.1600 -0.3553
16153TIP3   OH269873   4.426   4.127   4.846 -0.6713  0.0521 -0.2865
16153TIP3    H169874   4.365   4.053   4.836  1.0948 -1.2909 -1.8440
16153TIP3    H269875   4.501   4.103   4.793  0.5649  2.3960  0.2823
16154TIP3   OH269876   0.358   4.002  15.020 -0.1527 -0.3304  0.3564
16154TIP3    H169877   0.424   3.982  15.086  0.9253  0.8929 -0.3178
16154TIP3    H269878   0.323   3.916  14.995 -1.1480 -0.8178  2.9987
16155TIP3   OH269879   4.682   4.739   2.111 -0.1139  0.3859  0.4655
16155TIP3    H169880   4.670   4.810   2.174  0.8934  0.5707  0.4634
16155TIP3    H269881   4.599   4.734   2.064 -0.2964  1.3666  0.6597
16156TIP3   OH269882   0.621   4.486  10.711  0.4662  0.1403  0.5187
16156TIP3    H169883   0.529   4.482  10.684  0.7124 -0.5725 -0.2674
16156TIP3    H269884   0.649   4.394  10.714  2.2239  0.3552 -3.1451
16157TIP3   OH269885   4.620   6.292  14.342  0.4437 -0.4456  0.3111
16157TIP3    H169886   4.645   6.264  14.254  0.3795  2.3388 -0.7026
16157TIP3    H269887   4.703   6.306  14.387  0.5153 -0.2688  0.1263
16158TIP3   OH269888   6.714   1.574  17.294  0.2513  0.1864 -0.6227
16158TIP3    H169889   6.722   1.632  17.370  1.0174 -1.7553  0.8613
16158TIP3    H269890   6.787   1.599  17.237  0.9963  0.2201  0.3259
16159TIP3   OH269891   5.576   5.272   5.676  0.1598 -0.2785 -0.2495
16159TIP3    H169892   5.668   5.289   5.653  0.0587  0.9623  0.2181
16159TIP3    H269893   5.536   5.359   5.683 -0.2433 -0.6214  2.8350
16160TIP3   OH269894   4.202   6.420  15.292  0.1578  0.3206 -0.8276
16160TIP3    H169895   4.152   6.349  15.252 -0.4145  0.4384 -0.3265
16160TIP3    H269896   4.213   6.393  15.384  0.0888  0.7990 -0.6790
16161TIP3   OH269897   1.928   4.842   0.215 -0.4313  0.3551 -0.1890
16161TIP3    H169898   1.962   4.838   0.125  0.0447  0.1249 -0.0070
16161TIP3    H269899   1.863   4.772   0.219  1.3441 -1.3655  0.3465
16162TIP3   OH269900   4.315   4.909  15.212 -0.2160 -0.0380  0.0001
16162TIP3    H169901   4.347   4.829  15.171 -2.6229 -1.0470 -0.0727
16162TIP3    H269902   4.249   4.943  15.151 -1.6897  0.0806  1.5806
16163TIP3   OH269903   4.279   1.293   2.590  0.2459  0.0064  0.5991
16163TIP3    H169904   4.360   1.272   2.543 -1.0035 -1.7241 -0.9502
16163TIP3    H269905   4.219   1.322   2.521 -0.5376  1.1234  1.6999
16164TIP3   OH269906   0.614   4.252   0.888 -0.2545 -0.3989 -0.7316
16164TIP3    H169907   0.664   4.174   0.910  0.4540  0.5661  1.2851
16164TIP3    H269908   0.558   4.267   0.963  0.6590  1.8246 -0.4087
16165TIP3   OH269909   2.382   0.628   5.901 -0.0834  0.1071 -0.2127
16165TIP3    H169910   2.399   0.706   5.954 -1.2829 -0.0535  0.4307
16165TIP3    H269911   2.309   0.584   5.945 -0.7024 -0.3566 -1.6476
16166TIP3   OH269912   3.137   4.723  14.831  0.0386  0.0762 -0.4299
16166TIP3    H169913   3.112   4.760  14.747  3.1418 -0.4289 -1.7203
16166TIP3    H269914   3.062   4.670  14.857 -0.4346 -1.1572 -3.7788
16167TIP3   OH269915   0.602   3.927  15.158  0.3722  0.5297  0.2538
16167TIP3    H169916   0.697   3.929  15.148  0.5694 -0.1885  1.6395
16167TIP3    H269917   0.586   3.963  15.245 -0.4435 -1.1117  0.8375
16168TIP3   OH269918   2.323   4.260  16.916 -0.0662 -0.2896  0.2893
16168TIP3    H169919   2.348   4.201  16.986  1.7982 -0.8338 -0.7486
16168TIP3    H269920   2.227   4.261  16.917 -0.1431 -2.7014  0.8599
16169TIP3   OH269921   4.989   6.299   4.385 -0.0994 -0.3901  0.0050
16169TIP3    H169922   4.961   6.306   4.477 -2.0876 -0.3875 -0.5416
16169TIP3    H269923   4.922   6.347   4.337 -0.3083 -2.2227 -1.6385
16170TIP3   OH269924   0.621   2.995  12.224 -0.6275  0.3633 -0.4209
16170TIP3    H169925   0.595   3.070  12.170  0.4565 -0.8635 -2.7814
16170TIP3    H269926   0.583   2.919  12.180  1.5280 -0.8362 -0.3593
16171TIP3   OH269927   3.084   6.507   4.519  0.2249 -0.5932  0.7530
16171TIP3    H169928   3.031   6.578   4.484  0.7411 -0.1670  0.8335
16171TIP3    H269929   3.031   6.428   4.504 -1.5838  0.0724  3.0876
16172TIP3   OH269930   2.981   3.738  14.488  0.0104  0.4888  0.3335
16172TIP3    H169931   2.904   3.706  14.534 -0.5339  1.2959  0.0063
16172TIP3    H269932   3.035   3.779  14.555  0.0566  0.1140  0.5267
16173TIP3   OH269933   4.692   0.029   5.342 -0.2895  0.4373  1.2772
16173TIP3    H169934   4.749   0.063   5.411  1.3106  0.3394  0.0723
16173TIP3    H269935   4.660  -0.055   5.376  3.8446 -1.7715  0.4119
16174TIP3   OH269936   2.685   0.685   3.429 -0.1077 -0.0360 -0.7392
16174TIP3    H169937   2.667   0.749   3.360 -1.0760  0.9996  0.4205
16174TIP3    H269938   2.600   0.644   3.447 -0.0820  0.3959  0.4741
16175TIP3   OH269939   0.823   0.931  10.931 -0.4240  0.8429  0.1322
16175TIP3    H169940   0.747   0.946  10.987 -0.6668 -0.7559  0.2853
16175TIP3    H269941   0.879   1.006  10.945 -0.5956  0.6080  2.3392
16176TIP3   OH269942   3.828   6.561  15.311  0.1577 -0.5501 -0.0144
16176TIP3    H169943   3.869   6.521  15.234 -0.7642 -1.3408 -0.1157
16176TIP3    H269944   3.762   6.497  15.338 -1.2391  0.8276 -0.0655
16177TIP3   OH269945   5.406   3.107   5.164 -0.4375  0.7081 -0.4307
16177TIP3    H169946   5.361   3.128   5.246 -1.6875 -1.6121 -0.4280
16177TIP3    H269947   5.468   3.039   5.187  1.2888  2.0403 -0.9508
16178TIP3   OH269948   2.798   4.168   6.274 -0.4048 -0.1058  0.4288
16178TIP3    H169949   2.796   4.248   6.222  1.9015 -0.0068  0.3860
16178TIP3    H269950   2.840   4.194   6.356  0.9321 -1.3525  0.1841
16179TIP3   OH269951   0.116   1.969   6.642 -0.1874 -0.4936 -0.2094
16179TIP3    H169952   0.035   1.919   6.634  0.1399 -0.7591 -2.5195
16179TIP3    H269953   0.090   2.050   6.687 -1.7163 -0.6277 -0.8058
16180TIP3   OH269954   6.688   4.883  11.237 -0.3441  0.0418  0.0013
16180TIP3    H169955   6.641   4.926  11.309  0.0613  2.1757 -0.9287
16180TIP3    H269956   6.658   4.928  11.158  2.7546  1.1405 -0.6845
16181TIP3   OH269957   6.028   0.683   5.145 -0.0609 -0.1405 -0.4573
16181TIP3    H169958   5.949   0.681   5.199  0.2575  0.6996  0.0724
16181TIP3    H269959   6.083   0.613   5.181 -0.1763 -0.0980 -0.1930
16182TIP3   OH269960   2.507   1.760  16.820 -0.1541 -0.3078  0.0887
16182TIP3    H169961   2.506   1.741  16.726 -0.4525  0.3495 -0.0484
16182TIP3    H269962   2.415   1.761  16.845 -0.0519 -0.9435  0.4901
16183TIP3   OH269963   4.451   4.708  16.477  0.0759  0.2162  0.1342
16183TIP3    H169964   4.447   4.803  16.487 -0.6735  0.2507 -0.4181
16183TIP3    H269965   4.526   4.694  16.419 -1.5576  0.7084 -2.2324
16184TIP3   OH269966   5.320   4.940   3.554  0.4006  0.4896  0.3435
16184TIP3    H169967   5.381   4.900   3.491  1.0542  0.1411  1.1745
16184TIP3    H269968   5.243   4.883   3.552  1.0650 -0.4662  1.0355
16185TIP3   OH269969   1.660   4.710   5.261  0.1391  0.6058 -0.1176
16185TIP3    H169970   1.640   4.619   5.238  0.9434  0.4526 -0.2568
16185TIP3    H269971   1.751   4.707   5.291 -0.2875  1.1220  1.2947
16186TIP3   OH269972   0.979   0.255   4.449  0.3562 -0.0662 -0.2836
16186TIP3    H169973   1.052   0.300   4.490  0.9757  0.3799 -1.8172
16186TIP3    H269974   0.988   0.164   4.476  0.3039  0.3223  1.1343
16187TIP3   OH269975   4.491   1.082   0.392 -0.2880  0.3866  0.1114
16187TIP3    H169976   4.510   1.110   0.302  3.2895  0.9925  0.9080
16187TIP3    H269977   4.439   1.154   0.429  0.6574  1.5055 -0.6599
16188TIP3   OH269978   4.815   2.164   2.958  0.2718 -0.2254  0.2374
16188TIP3    H169979   4.840   2.117   2.878 -0.2839 -0.5333  0.2379
16188TIP3    H269980   4.727   2.197   2.940  0.8631  1.2970  0.0408
16189TIP3   OH269981   4.720   1.126  12.141 -0.2019 -0.0658  0.0609
16189TIP3    H169982   4.642   1.172  12.110  0.8534  1.3586 -0.5831
16189TIP3    H269983   4.710   1.037  12.107 -1.9921 -0.1886  0.8096
16190TIP3   OH269984   5.072   4.336   5.837 -0.0632  0.0980  0.4019
16190TIP3    H169985   5.044   4.355   5.927 -1.2628 -1.7330  0.4759
16190TIP3    H269986   5.067   4.241   5.830  2.2459  0.0126 -0.9391
16191TIP3   OH269987   2.998   3.138  12.476 -0.2640  0.0054  0.4249
16191TIP3    H169988   2.922   3.166  12.527 -0.7056  1.0547 -0.7497
16191TIP3    H269989   3.073   3.168  12.527 -0.6594  0.0980  0.9682
16192TIP3   OH269990   3.472   1.357   5.548 -0.1833  0.1894 -0.0763
16192TIP3    H169991   3.550   1.304   5.563  0.3377  1.3532  1.5535
16192TIP3    H269992   3.503   1.447   5.552 -1.7616  0.7095  1.7195
16193TIP3   OH269993   2.517   6.440   2.676 -0.0860  0.9390 -0.3224
16193TIP3    H169994   2.538   6.522   2.720  2.4077  0.8613 -1.2404
16193TIP3    H269995   2.576   6.436   2.601  0.6656 -2.2057  0.2776
16194TIP3   OH269996   0.727   1.893   5.553  0.0103 -0.0227  0.6699
16194TIP3    H169997   0.787   1.965   5.571  0.1550 -0.2249  1.0042
16194TIP3    H269998   0.782   1.815   5.552  0.3225  0.1138 -2.3808
16195TIP3   OH269999   0.435   2.863   3.212  0.4876  0.0695  0.1400
16195TIP3    H170000   0.505   2.925   3.193 -0.5909  0.8463 -1.5651
16195TIP3    H270001   0.363   2.917   3.248  0.1905 -0.4688  0.3701
16196TIP3   OH270002   2.144   1.192  12.074  0.1737 -0.1186 -0.8664
16196TIP3    H170003   2.133   1.281  12.108 -1.5899 -1.0655  1.2786
16196TIP3    H270004   2.234   1.169  12.095  0.6203  1.0977 -1.3613
16197TIP3   OH270005   1.314   4.822  11.642  0.0248 -0.0056 -0.3133
16197TIP3    H170006   1.347   4.733  11.651 -1.4420 -0.5504  0.1241
16197TIP3    H270007   1.392   4.877  11.632  0.9913 -1.2452  0.2017
16198TIP3   OH270008   0.938   1.029  15.284  0.0373 -0.2204 -0.5496
16198TIP3    H170009   0.982   1.063  15.362 -0.7816  0.6743 -0.4630
16198TIP3    H270010   0.935   1.104  15.225 -0.5519 -0.5334 -0.9157
16199TIP3   OH270011   2.730   3.898   3.484 -0.2948 -0.1092  0.2542
16199TIP3    H170012   2.734   3.941   3.569  0.9983  0.7675 -0.2354
16199TIP3    H270013   2.660   3.944   3.437 -1.1362 -0.7106  0.8733
16200TIP3   OH270014   5.784   2.210  11.741 -0.3011 -0.0034  0.3312
16200TIP3    H170015   5.797   2.133  11.797  1.0976  0.7437  1.1022
16200TIP3    H270016   5.696   2.241  11.762 -0.2907 -0.5079  1.1462
16201TIP3   OH270017   5.599   3.592   2.263  0.0603  0.2163 -0.1480
16201TIP3    H170018   5.684   3.636   2.270 -0.4408  0.9466  2.5465
16201TIP3    H270019   5.608   3.514   2.317 -1.5246  1.3888  1.9879
16202TIP3   OH270020   3.470   0.736  13.481 -0.2220  0.3362  0.0361
16202TIP3    H170021   3.522   0.707  13.406  0.6473 -2.4817  1.5458
16202TIP3    H270022   3.456   0.656  13.532  0.0090  2.1912  3.3196
16203TIP3   OH270023   2.910   6.282  15.990 -0.3831 -0.4556  0.1989
16203TIP3    H170024   2.958   6.297  16.072 -0.6034 -0.4388  0.3238
16203TIP3    H270025   2.834   6.230  16.016 -0.1311 -0.9775 -0.0865
16204TIP3   OH270026   6.711   4.263   6.453  0.2293  0.3473 -0.7470
16204TIP3    H170027   6.789   4.302   6.493  0.2871  0.6989 -1.1927
16204TIP3    H270028   6.737   4.242   6.363 -0.1529  0.3700 -0.8681
16205TIP3   OH270029   6.625   6.143   5.919 -0.3235 -0.3838  0.1965
16205TIP3    H170030   6.708   6.123   5.875 -0.7846  1.0204 -1.4478
16205TIP3    H270031   6.648   6.211   5.982 -0.3921  0.9141 -1.1348
16206TIP3   OH270032   6.578   1.503   3.246 -0.4535  0.7390 -0.4048
16206TIP3    H170033   6.591   1.409   3.261  1.4353  1.2164  1.3750
16206TIP3    H270034   6.495   1.523   3.289  0.8708  0.4825  2.4833
16207TIP3   OH270035   5.274   6.079   2.644 -0.0905 -0.2337  0.0720
16207TIP3    H170036   5.333   6.088   2.719 -0.9448  1.1263  0.6266
16207TIP3    H270037   5.287   6.159   2.593  1.6594 -1.8331 -2.1963
16208TIP3   OH270038   6.259   6.350   4.285 -0.9893  0.0572  0.4206
16208TIP3    H170039   6.260   6.257   4.265 -0.0302  0.3477 -1.0672
16208TIP3    H270040   6.204   6.389   4.217 -0.8685  0.6480  0.6504
16209TIP3   OH270041   1.338   3.896   1.995 -0.4727  0.2717 -0.2936
16209TIP3    H170042   1.283   3.895   2.073  0.6830  0.2679  0.5482
16209TIP3    H270043   1.283   3.935   1.927 -1.2220  1.0498  0.7298
16210TIP3   OH270044   2.479   3.509   5.661  0.7675 -0.2754  0.0960
16210TIP3    H170045   2.390   3.525   5.692  0.7517 -1.6449  0.8518
16210TIP3    H270046   2.534   3.563   5.717  0.4779 -0.0399  0.1557
16211TIP3   OH270047   1.495   5.535  14.357 -0.3763  0.1554  0.3627
16211TIP3    H170048   1.521   5.451  14.394  0.4481  0.5869  0.8141
16211TIP3    H270049   1.504   5.597  14.429  1.2580  1.0150 -0.5080
16212TIP3   OH270050   3.625   0.201  16.517 -0.7943 -0.1383 -0.2280
16212TIP3    H170051   3.537   0.233  16.538 -0.5247  1.4583 -1.3156
16212TIP3    H270052   3.633   0.216  16.422  0.0038 -1.9289 -0.4752
16213TIP3   OH270053   1.361   1.581  13.673 -0.2335  0.0377  0.1309
16213TIP3    H170054   1.358   1.649  13.605  0.1468  0.5542  0.6151
16213TIP3    H270055   1.274   1.585  13.714 -0.5649 -0.4748 -0.5045
16214TIP3   OH270056   2.997   4.088   3.050  0.4839  0.2542  0.6688
16214TIP3    H170057   2.980   4.023   3.118  0.0541  1.0630  1.3526
16214TIP3    H270058   2.917   4.090   2.998  1.3216 -1.4037 -0.7885
16215TIP3   OH270059   2.993   5.332   5.903  0.6152  0.0664  0.4613
16215TIP3    H170060   3.010   5.422   5.877 -2.5886  0.0453 -2.4797
16215TIP3    H270061   3.057   5.280   5.854  0.4404  0.5743 -0.3088
16216TIP3   OH270062   0.574   5.724   0.892 -0.4038  0.0932  0.1526
16216TIP3    H170063   0.551   5.761   0.977 -2.7685 -0.1796 -0.2952
16216TIP3    H270064   0.616   5.641   0.912  1.5457  1.2319  1.0674
16217TIP3   OH270065   5.804   6.197   5.925  0.3880  0.0056  0.1026
16217TIP3    H170066   5.892   6.184   5.962  0.5065  0.0868 -0.1425
16217TIP3    H270067   5.751   6.225   5.999  0.2736 -1.2445  0.5114
16218TIP3   OH270068   4.181   5.933  11.905  0.3382 -0.2704  0.2668
16218TIP3    H170069   4.275   5.917  11.913  0.5346  1.0034  0.8394
16218TIP3    H270070   4.148   5.926  11.995 -0.3411 -1.8582 -0.0761
16219TIP3   OH270071   5.301   6.254  13.538  0.2154 -0.6270  0.2528
16219TIP3    H170072   5.277   6.347  13.541 -0.7784 -0.7273 -2.0763
16219TIP3    H270073   5.217   6.209  13.529  0.6533 -1.8364  1.8204
16220TIP3   OH270074   2.900   1.780   4.061 -0.2155  0.0877 -0.0902
16220TIP3    H170075   2.877   1.731   3.982  0.8697 -0.5063 -0.0553
16220TIP3    H270076   2.918   1.713   4.127  1.2404  0.5132 -0.0241
16221TIP3   OH270077   5.732   5.507  12.480 -0.7442 -0.0305  0.7597
16221TIP3    H170078   5.752   5.499  12.573 -1.3216  0.1996  0.9101
16221TIP3    H270079   5.774   5.432  12.439 -2.0319 -1.1766  1.4697
16222TIP3   OH270080   2.458   5.475  16.341 -0.5246  0.0943  1.0735
16222TIP3    H170081   2.387   5.417  16.315 -0.8170  0.9611 -0.1671
16222TIP3    H270082   2.437   5.499  16.431 -0.2534 -1.8882  1.7078
16223TIP3   OH270083   1.552   4.850   1.369 -0.1383  0.1541 -0.4223
16223TIP3    H170084   1.580   4.937   1.343  2.5265 -0.7946 -1.0571
16223TIP3    H270085   1.502   4.817   1.295  0.3406  0.5072 -0.9057
16224TIP3   OH270086   1.895   2.545  14.328 -0.1886 -0.2247  0.0367
16224TIP3    H170087   1.837   2.556  14.252  0.9161  1.3010 -0.6493
16224TIP3    H270088   1.848   2.585  14.400 -1.3359 -1.8572  0.2400
16225TIP3   OH270089   0.999   4.774   2.208  0.0981 -0.0785  0.0196
16225TIP3    H170090   1.091   4.795   2.225 -0.7454  3.2074  1.3537
16225TIP3    H270091   0.956   4.860   2.202 -2.7219 -1.4685 -1.7379
16226TIP3   OH270092   1.738   4.647  12.610  0.1301 -0.2438 -0.2693
16226TIP3    H170093   1.695   4.711  12.553 -0.3443  0.9949  1.4043
16226TIP3    H270094   1.682   4.569  12.605 -1.1309  0.6016  0.1737
16227TIP3   OH270095   4.857   0.849  15.530  0.2373 -0.4026 -0.0626
16227TIP3    H170096   4.927   0.911  15.514 -1.3379  1.6790  0.6627
16227TIP3    H270097   4.780   0.888  15.487 -1.5864 -0.0401  3.2039
16228TIP3   OH270098   2.280   3.188   6.340  0.0901  0.2522  0.4585
16228TIP3    H170099   2.200   3.217   6.383 -1.3586 -2.0775 -0.4833
16228TIP3    H270100   2.295   3.100   6.374  0.5496 -0.4929 -1.5565
16229TIP3   OH270101   6.270   1.660   1.034  0.3718  0.6862 -0.1102
16229TIP3    H170102   6.180   1.658   1.001  0.7045  0.6368 -1.0303
16229TIP3    H270103   6.260   1.669   1.129 -0.6073 -0.2023 -0.1157
16230TIP3   OH270104   0.945   0.660  12.259 -0.3710 -0.4092  0.5439
16230TIP3    H170105   0.870   0.663  12.317 -0.7715  0.2496  0.0129
16230TIP3    H270106   0.999   0.589  12.292 -1.5119 -1.2729  0.5912
16231TIP3   OH270107   6.449   0.946  17.073  0.6119 -0.1414 -0.2406
16231TIP3    H170108   6.378   0.939  17.010 -1.6369  1.3327  1.9500
16231TIP3    H270109   6.420   0.894  17.149  1.4018  1.2442  1.0747
16232TIP3   OH270110   3.724   0.424  11.632 -0.2986 -0.1625  0.4117
16232TIP3    H170111   3.794   0.488  11.625  1.2750 -1.5592  2.3030
16232TIP3    H270112   3.715   0.388  11.544 -0.1624  1.5116 -0.3355
16233TIP3   OH270113   5.486   3.336  14.827 -0.7060 -0.2244  0.1165
16233TIP3    H170114   5.504   3.244  14.841  0.8953  0.2199  1.2304
16233TIP3    H270115   5.511   3.379  14.909  1.1654  1.5146 -1.2599
16234TIP3   OH270116   2.676   5.397  12.167 -0.2896 -0.7398 -0.0280
16234TIP3    H170117   2.619   5.464  12.204  0.3493 -1.2016  1.9319
16234TIP3    H270118   2.629   5.315  12.185  0.8378 -1.1060  1.4312
16235TIP3   OH270119   4.341   1.781  14.074 -0.3329 -0.0879 -0.0368
16235TIP3    H170120   4.414   1.842  14.075 -2.1802  2.2533  0.8287
16235TIP3    H270121   4.382   1.695  14.084  2.3041  1.0508 -0.1778
16236TIP3   OH270122   2.911   6.499  13.162  0.8279 -0.2154 -0.0334
16236TIP3    H170123   2.894   6.593  13.162 -0.9779 -0.4986  0.5570
16236TIP3    H270124   2.839   6.461  13.113 -0.4421 -1.5372  2.6178
16237TIP3   OH270125   0.830   0.459  14.748 -0.6655 -0.2044  0.2979
16237TIP3    H170126   0.878   0.508  14.814  1.2347 -1.1801 -0.2868
16237TIP3    H270127   0.824   0.518  14.673 -0.5450 -0.0229  0.4317
16238TIP3   OH270128   6.553   6.379  11.398 -0.0216 -0.1907  0.1578
16238TIP3    H170129   6.648   6.372  11.391 -0.0393 -0.4219  0.1337
16238TIP3    H270130   6.520   6.296  11.363 -0.1967 -0.4680  0.9574
16239TIP3   OH270131   3.476   1.409   1.772 -0.8487 -0.4539 -0.5249
16239TIP3    H170132   3.479   1.463   1.851  1.8006 -2.4541  0.8921
16239TIP3    H270133   3.476   1.472   1.700 -2.4955  1.4231  1.0010
16240TIP3   OH270134   4.346   3.840  12.824 -0.1566  0.1132 -0.3950
16240TIP3    H170135   4.405   3.867  12.894  1.2459 -0.1048 -1.4401
16240TIP3    H270136   4.404   3.821  12.750 -1.0832 -4.0595 -0.3097
16241TIP3   OH270137   1.196   3.810   2.816  0.3136  0.1006  0.0295
16241TIP3    H170138   1.266   3.852   2.766  1.4876  0.5118  1.8884
16241TIP3    H270139   1.116   3.833   2.770  1.1353  2.3564 -0.3776
16242TIP3   OH270140   6.169   1.220   5.200  0.2447 -0.7815  0.2984
16242TIP3    H170141   6.161   1.296   5.142 -0.1251 -1.1258 -0.0988
16242TIP3    H270142   6.264   1.206   5.207  0.2714 -1.2895 -0.9410
16243TIP3   OH270143   1.653   6.012  15.690 -0.0142  0.4459 -0.1468
16243TIP3    H170144   1.575   5.967  15.657 -0.9268  1.1125  1.0188
16243TIP3    H270145   1.713   6.014  15.616  0.4066 -3.3104 -0.1110
16244TIP3   OH270146   6.341   2.591  11.727 -0.0189 -0.0476 -0.0538
16244TIP3    H170147   6.354   2.576  11.633  0.2018  0.3780 -0.0958
16244TIP3    H270148   6.407   2.537  11.770  1.1139  1.1509 -0.2224
16245TIP3   OH270149   6.608   5.794  13.228 -0.1509 -0.3403 -0.3210
16245TIP3    H170150   6.544   5.723  13.222  0.4458 -0.8274 -0.9669
16245TIP3    H270151   6.580   5.844  13.305 -1.7464 -0.1147 -1.0039
16246TIP3   OH270152   3.892   5.344  14.176 -0.2463  0.3109 -0.0333
16246TIP3    H170153   3.870   5.410  14.242 -0.8727 -0.4915  0.5771
16246TIP3    H270154   3.946   5.280  14.223 -0.6778 -0.2587 -0.3050
16247TIP3   OH270155   3.551   2.643  13.605  0.0959  0.0625  0.4736
16247TIP3    H170156   3.540   2.599  13.521 -2.1520  1.0391  0.1980
16247TIP3    H270157   3.543   2.572  13.669  2.2945 -0.7646 -0.0855
16248TIP3   OH270158   2.125   5.580  15.915  0.0439  0.8289  0.2437
16248TIP3    H170159   2.081   5.621  15.841  1.4093  0.2359 -0.9359
16248TIP3    H270160   2.149   5.653  15.972  1.7254  1.6510 -1.4322
16249TIP3   OH270161   0.409   6.229   6.534 -0.3551  0.0795 -0.4103
16249TIP3    H170162   0.333   6.174   6.551  0.1910 -0.7741 -0.6765
16249TIP3    H270163   0.383   6.285   6.461 -1.3418  1.0548  0.6450
16250TIP3   OH270164   3.713   1.418   0.296  0.5259  0.7852 -0.3444
16250TIP3    H170165   3.657   1.495   0.299  0.1889  0.5162  1.0411
16250TIP3    H270166   3.670   1.359   0.234  0.5853  1.5371 -1.1192
16251TIP3   OH270167   2.864   0.476  15.722 -0.1798  0.1031  0.3684
16251TIP3    H170168   2.884   0.386  15.696 -0.3487  0.5891 -1.6436
16251TIP3    H270169   2.884   0.528  15.644  0.9853  1.9776  1.8407
16252TIP3   OH270170   4.409   3.682  17.183 -0.6683 -0.4636  0.2654
16252TIP3    H170171   4.495   3.682  17.142  0.4060  0.2151  2.3888
16252TIP3    H270172   4.410   3.606  17.242 -1.3139 -0.1386  0.7136
16253TIP3   OH270173   2.318   3.369   5.936 -0.1548  0.1560  0.4984
16253TIP3    H170174   2.385   3.312   5.974  1.1222  0.4487 -1.2294
16253TIP3    H270175   2.320   3.351   5.842 -0.9181  1.8238  0.1206
16254TIP3   OH270176   4.033   6.541  12.188  0.1040  0.5274  0.6332
16254TIP3    H170177   3.959   6.504  12.236  0.1891 -0.3405  0.1040
16254TIP3    H270178   4.100   6.557  12.256 -0.0345 -0.0329  0.9066
16255TIP3   OH270179   4.327   0.195  15.305 -0.0833 -0.0442  0.2305
16255TIP3    H170180   4.236   0.176  15.328  0.3335 -1.5409  0.7883
16255TIP3    H270181   4.362   0.240  15.382 -0.5386  1.2701 -0.3004
16256TIP3   OH270182   5.350   1.432   4.684  0.2568 -0.5611 -0.3546
16256TIP3    H170183   5.410   1.421   4.758  0.2722 -1.2713 -0.4632
16256TIP3    H270184   5.270   1.387   4.713 -0.0499 -0.0486 -0.4052
16257TIP3   OH270185   1.426   2.559  15.404  0.1628 -0.6899  0.1507
16257TIP3    H170186   1.471   2.636  15.369 -1.7605  0.9432  1.0519
16257TIP3    H270187   1.407   2.505  15.327  0.7500  0.1638 -0.6121
16258TIP3   OH270188   5.024   4.546   0.368 -0.2299 -0.4948 -0.0543
16258TIP3    H170189   4.967   4.556   0.292 -0.2520  0.7095  0.0990
16258TIP3    H270190   4.982   4.598   0.437  0.2654 -0.8269  0.5145
16259TIP3   OH270191   5.331   3.583  13.101  0.0346 -0.0299 -0.3760
16259TIP3    H170192   5.338   3.495  13.064  0.0068  0.2659 -1.1072
16259TIP3    H270193   5.390   3.582  13.176  0.4799 -0.5085 -0.7188
16260TIP3   OH270194   4.041   1.217   0.482 -0.2388  0.0806 -0.0131
16260TIP3    H170195   4.018   1.306   0.455  2.0602  0.7786  0.1582
16260TIP3    H270196   4.132   1.222   0.510 -0.5025 -2.0184  1.5328
16261TIP3   OH270197   1.278   5.632   3.100 -0.2018 -0.0363  0.4761
16261TIP3    H170198   1.339   5.682   3.155  0.6888  0.0415 -0.5415
16261TIP3    H270199   1.287   5.542   3.131 -1.0568  0.2440  1.6350
16262TIP3   OH270200   1.111   6.664   6.231  0.1497  0.0657  0.3594
16262TIP3    H170201   1.187   6.622   6.190 -0.2710 -0.9984  0.6311
16262TIP3    H270202   1.090   6.608   6.306  1.4545  2.4501  2.6661
16263TIP3   OH270203   0.144   0.383  14.742  0.4879  0.0200 -0.1026
16263TIP3    H170204   0.069   0.433  14.710  0.6699  0.2676 -0.1428
16263TIP3    H270205   0.208   0.449  14.768  0.8526 -0.1907 -0.4427
16264TIP3   OH270206   5.764   3.566   6.626 -0.0321  0.2440 -0.2244
16264TIP3    H170207   5.812   3.493   6.665  0.4190  0.0868 -1.0562
16264TIP3    H270208   5.828   3.637   6.622 -0.5457  0.7900  0.8324
16265TIP3   OH270209   2.720   5.968   3.291 -0.1754  0.2198  0.1078
16265TIP3    H170210   2.652   6.019   3.247 -0.8313 -0.6092  0.1399
16265TIP3    H270211   2.799   5.984   3.240 -0.5000  0.8031 -0.2220
16266TIP3   OH270212   1.303   2.590   2.900  0.1523 -0.5065 -0.2009
16266TIP3    H170213   1.246   2.582   2.823 -0.1674  1.5095 -0.2363
16266TIP3    H270214   1.243   2.593   2.974  0.4006 -1.4304  0.0389
16267TIP3   OH270215   2.728   0.565   4.260  0.4022  0.5993 -0.5826
16267TIP3    H170216   2.755   0.498   4.197  0.8913 -0.5306  0.7688
16267TIP3    H270217   2.633   0.555   4.267  0.5104 -0.1835 -0.1557
16268TIP3   OH270218   3.981   3.898   1.760 -0.1581  0.6495 -0.4528
16268TIP3    H170219   4.064   3.941   1.780  0.3887  0.5738 -2.3612
16268TIP3    H270220   3.937   3.890   1.844  1.1937  1.8856  0.4127
16269TIP3   OH270221   6.015   3.059  14.532  0.1564 -0.0453 -0.2263
16269TIP3    H170222   6.043   3.064  14.441  0.3160 -0.2925 -0.1903
16269TIP3    H270223   5.956   3.134  14.542 -1.1958 -0.9556 -1.0024
16270TIP3   OH270224   5.216   5.224   1.159 -0.1078 -0.1775 -0.5238
16270TIP3    H170225   5.244   5.311   1.188  0.5103 -1.0223  1.6512
16270TIP3    H270226   5.213   5.230   1.064  1.5581  1.7270 -0.5322
16271TIP3   OH270227   0.135   6.665   0.947  0.5037 -0.1498 -0.7843
16271TIP3    H170228   0.082   6.606   1.000 -0.6165  1.4918  0.0417
16271TIP3    H270229   0.104   6.753   0.971  3.5952  0.9291 -0.2933
16272TIP3   OH270230   3.066   6.725  11.849  0.3214  0.2108 -0.0952
16272TIP3    H170231   3.017   6.777  11.913  0.2407 -1.2407  1.1035
16272TIP3    H270232   3.151   6.710  11.891  1.0085  0.8925 -1.2137
16273TIP3   OH270233   3.329   2.054  11.718 -0.4950  0.6030  0.5340
16273TIP3    H170234   3.301   2.114  11.787 -1.0686  0.4036  0.4824
16273TIP3    H270235   3.417   2.026  11.744 -0.7431  0.4563  1.2302
16274TIP3   OH270236   4.983   5.762  12.394 -0.1026 -0.1995  0.4075
16274TIP3    H170237   5.055   5.814  12.429  1.1100 -1.6532  0.1812
16274TIP3    H270238   4.917   5.763  12.464  0.3641  0.6810  0.8508
16275TIP3   OH270239   1.598   4.125   3.078  0.0017 -0.2166  0.5145
16275TIP3    H170240   1.583   4.216   3.103 -0.2034  0.2231 -1.1446
16275TIP3    H270241   1.514   4.082   3.090  0.5652 -0.7887  3.4166
16276TIP3   OH270242   2.963   3.366   4.136 -0.6317  0.1285 -0.0238
16276TIP3    H170243   2.958   3.292   4.075  1.0114 -0.6971  0.7805
16276TIP3    H270244   3.022   3.428   4.092 -0.8020  0.2913 -0.0229
16277TIP3   OH270245   0.836   0.023   5.293 -0.4727 -0.3388  0.2543
16277TIP3    H170246   0.774   0.066   5.352 -2.2578  0.5580 -2.0997
16277TIP3    H270247   0.898   0.091   5.269 -0.1301 -0.5293  0.5918
16278TIP3   OH270248   5.186   4.790   1.126  0.2703 -0.5373  0.3723
16278TIP3    H170249   5.219   4.751   1.045 -0.7252 -3.1811  1.1145
16278TIP3    H270250   5.256   4.774   1.190  1.0748  1.5833  0.0964
16279TIP3   OH270251   2.596   2.642   2.076 -0.1428 -0.1082  0.4791
16279TIP3    H170252   2.646   2.670   1.999  1.2059 -0.9073  1.0195
16279TIP3    H270253   2.504   2.654   2.051  0.2808  0.3270 -0.9799
16280TIP3   OH270254   0.304   4.990  10.551 -0.9329  0.3895 -0.1791
16280TIP3    H170255   0.286   5.083  10.538 -0.5673  0.4567 -0.2249
16280TIP3    H270256   0.272   4.971  10.639 -2.8840  0.0706 -0.9286
16281TIP3   OH270257   2.574   6.547   5.833  0.3098  0.3653 -0.0780
16281TIP3    H170258   2.522   6.627   5.842  0.2068  0.1633  1.4513
16281TIP3    H270259   2.638   6.552   5.904  1.4268 -0.1114 -1.0163
16282TIP3   OH270260   4.699   3.679   5.653  0.4978 -0.3225  0.3400
16282TIP3    H170261   4.643   3.660   5.728  0.4906 -0.2549  0.3520
16282TIP3    H270262   4.733   3.767   5.670  1.5542 -0.8290  0.9154
16283TIP3   OH270263   2.570   6.103   1.577  0.4410 -0.4597  0.3392
16283TIP3    H170264   2.633   6.170   1.602 -0.5358  0.9681 -0.8968
16283TIP3    H270265   2.505   6.149   1.524 -0.4877 -2.3078 -0.2121
16284TIP3   OH270266   1.798   4.676   4.481 -0.0089  0.4206 -0.1909
16284TIP3    H170267   1.708   4.693   4.452 -0.5014 -0.5284  0.6927
16284TIP3    H270268   1.806   4.580   4.476  2.1512  0.6093 -3.6384
16285TIP3   OH270269   6.166   0.903  13.466  0.0891 -0.1445  0.0513
16285TIP3    H170270   6.141   0.947  13.548  0.4507 -0.3579  0.2775
16285TIP3    H270271   6.258   0.881  13.478  0.3082  0.3697 -0.6632
16286TIP3   OH270272   4.911   0.857  11.792 -0.0850 -0.1024  0.2634
16286TIP3    H170273   4.957   0.874  11.874  2.6393  0.4781 -1.2725
16286TIP3    H270274   4.946   0.773  11.761 -0.3969  0.1181 -0.7302
16287TIP3   OH270275   5.172   2.487  11.799  0.0072 -0.4334 -0.1300
16287TIP3    H170276   5.211   2.494  11.712  1.5217 -0.3900  0.5293
16287TIP3    H270277   5.078   2.500  11.784  0.3870  0.9417 -1.5734
16288TIP3   OH270278   6.278   6.256   0.993 -0.5189 -0.2362  0.1128
16288TIP3    H170279   6.186   6.240   0.973 -0.8354  1.1513  0.3429
16288TIP3    H270280   6.325   6.222   0.917 -1.2780 -0.2746 -0.3506
16289TIP3   OH270281   1.604   0.453   5.181  0.1613 -0.2620  0.2803
16289TIP3    H170282   1.542   0.503   5.234 -0.9731 -0.9588 -0.3505
16289TIP3    H270283   1.690   0.479   5.213 -0.3401  2.6268 -0.4788
16290TIP3   OH270284   0.960   5.943  14.830  0.8074 -0.4307  0.2585
16290TIP3    H170285   0.991   6.029  14.857  1.4630 -1.2075  2.1404
16290TIP3    H270286   1.032   5.907  14.779  1.1654 -0.4353  0.7524
16291TIP3   OH270287   3.039   1.721  14.367  0.2266  0.0155  0.7203
16291TIP3    H170288   3.086   1.681  14.441 -2.0761 -1.9508  1.2729
16291TIP3    H270289   3.094   1.794  14.340  3.7506 -2.2545  1.0505
16292TIP3   OH270290   3.021   1.567  16.655  0.4669 -0.5583 -0.0401
16292TIP3    H170291   2.987   1.547  16.742 -0.4581  0.2210 -0.2051
16292TIP3    H270292   2.995   1.493  16.601 -3.1675  0.9906 -0.7161
16293TIP3   OH270293   1.334   6.231   2.865  0.0886  0.2178  0.3708
16293TIP3    H170294   1.427   6.239   2.845 -0.1225 -0.9954 -1.3037
16293TIP3    H270295   1.289   6.273   2.792 -0.6983  0.4871  0.9901
16294TIP3   OH270296   2.342   1.062  13.068 -0.0316  0.1162 -0.0717
16294TIP3    H170297   2.287   1.038  12.994  1.4631 -1.9439 -0.6198
16294TIP3    H270298   2.328   1.156  13.080 -0.2611  0.5291 -3.0166
16295TIP3   OH270299   4.576   3.897  11.976 -0.2816  1.0893  0.0015
16295TIP3    H170300   4.487   3.923  12.003 -0.5336 -0.9950  1.3838
16295TIP3    H270301   4.604   3.835  12.043  1.1828 -0.3351 -1.8400
16296TIP3   OH270302   4.942   3.055  12.010 -0.0080 -0.4559 -0.3758
16296TIP3    H170303   4.899   3.126  12.057 -0.4721 -1.1187  0.2174
16296TIP3    H270304   4.997   3.012  12.076  0.2029 -0.7069 -0.7095
16297TIP3   OH270305   0.701   0.383   5.222  0.2339  0.1943  0.4047
16297TIP3    H170306   0.625   0.330   5.247  0.3814 -1.2590 -1.9166
16297TIP3    H270307   0.772   0.352   5.278 -0.6527  1.0814  2.1057
16298TIP3   OH270308   3.287   4.689  15.265 -0.2980 -0.2181 -0.3825
16298TIP3    H170309   3.286   4.620  15.199 -0.4571  0.0579 -0.6760
16298TIP3    H270310   3.307   4.769  15.215 -0.6815  0.0337 -0.1360
16299TIP3   OH270311   0.409   5.067   1.804  0.1702  0.4013  0.0697
16299TIP3    H170312   0.463   4.993   1.831  0.6601  0.6892 -0.0892
16299TIP3    H270313   0.470   5.142   1.803 -0.4117  0.8933  0.6590
16300TIP3   OH270314   2.807   1.068  11.674 -0.3460 -0.1105 -0.0190
16300TIP3    H170315   2.768   1.045  11.590 -1.2681 -1.0025  0.6174
16300TIP3    H270316   2.734   1.065  11.736 -0.1935  2.9132  0.4539
16301TIP3   OH270317   1.609   0.198  13.948 -0.4865 -0.3428 -0.8064
16301TIP3    H170318   1.672   0.243  13.892 -0.3089  1.2711  0.6042
16301TIP3    H270319   1.660   0.127  13.988  1.1244  1.9736  1.6881
16302TIP3   OH270320   6.347   4.564  11.044 -0.5202  0.1416 -0.1579
16302TIP3    H170321   6.318   4.652  11.017 -0.4622  0.4798  0.8383
16302TIP3    H270322   6.307   4.505  10.980 -2.8918  0.6539  0.7430
16303TIP3   OH270323   5.147   0.540   1.897  0.6445  0.0597 -0.3868
16303TIP3    H170324   5.217   0.482   1.866  0.6378 -0.2172  0.0997
16303TIP3    H270325   5.149   0.531   1.992  1.3362  1.6721 -0.2143
16304TIP3   OH270326   1.036   4.876  16.222  0.4679 -0.1261 -0.2966
16304TIP3    H170327   1.106   4.933  16.255 -0.2000 -0.0650  1.0955
16304TIP3    H270328   1.022   4.813  16.292 -1.1710  0.1337 -0.3601
16305TIP3   OH270329   6.276   4.395  15.915  0.6582  0.5463  0.1413
16305TIP3    H170330   6.220   4.380  15.839 -0.5228  3.2210  0.3992
16305TIP3    H270331   6.225   4.362  15.989  0.5116  0.6702  0.0965
16306TIP3   OH270332   5.480   6.625  13.191 -0.5305 -0.4045  0.0920
16306TIP3    H170333   5.557   6.656  13.144 -0.0140 -2.2116 -0.3324
16306TIP3    H270334   5.510   6.547  13.238 -1.8747 -0.5939  0.6887
16307TIP3   OH270335   2.461   3.219  13.829 -0.1345  0.0632 -0.2269
16307TIP3    H170336   2.439   3.293  13.773 -4.0478 -0.6315  0.0758
16307TIP3    H270337   2.510   3.159  13.773  0.4935  1.5602 -1.3294
16308TIP3   OH270338   6.394   5.810   2.899  0.0011  0.2539  0.4330
16308TIP3    H170339   6.439   5.798   2.983 -1.0266 -1.6102  0.7792
16308TIP3    H270340   6.301   5.817   2.923 -0.3119 -0.4117 -0.5418
16309TIP3   OH270341   0.223   3.516   4.708 -0.3068  0.2417 -0.0280
16309TIP3    H170342   0.246   3.501   4.616  1.2488 -2.7814  0.6997
16309TIP3    H270343   0.263   3.599   4.730  1.6636 -0.2703 -1.4360
16310TIP3   OH270344   5.611   2.768   4.528  0.0019 -0.3276 -0.0282
16310TIP3    H170345   5.526   2.796   4.562 -0.4406  0.0394 -1.3672
16310TIP3    H270346   5.674   2.794   4.595 -0.8702 -0.0418  0.7001
16311TIP3   OH270347   1.157   6.372  12.415  0.7314 -0.5127  0.1729
16311TIP3    H170348   1.066   6.389  12.392  0.7048 -1.6316 -0.6635
16311TIP3    H270349   1.184   6.303  12.355  2.1644 -0.1424  0.3589
16312TIP3   OH270350   5.139   0.242   2.770 -0.3752 -0.1326 -0.2230
16312TIP3    H170351   5.165   0.191   2.846 -1.6285 -0.7564 -0.1913
16312TIP3    H270352   5.092   0.181   2.714  1.6318 -0.0334 -2.1723
16313TIP3   OH270353   0.150   2.471  16.249 -0.2066 -0.0369  0.2847
16313TIP3    H170354   0.175   2.379  16.242  2.5367  0.6832 -0.3366
16313TIP3    H270355   0.085   2.472  16.320 -0.5491 -2.4519  0.0973
16314TIP3   OH270356   6.295   3.579  15.456 -0.1898  0.3108 -0.1119
16314TIP3    H170357   6.300   3.634  15.378  0.8499  0.5092  0.0782
16314TIP3    H270358   6.219   3.524  15.441 -0.6831  1.1322 -0.7449
16315TIP3   OH270359   1.895   4.422   5.423 -0.1412 -0.7641  0.2287
16315TIP3    H170360   1.905   4.413   5.518  0.9157  0.2786  0.2424
16315TIP3    H270361   1.866   4.336   5.394  0.5523 -1.4145  1.3738
16316TIP3   OH270362   5.863   0.356   6.069  0.0047 -0.8100 -0.0815
16316TIP3    H170363   5.907   0.384   6.150  0.2110 -0.1312 -0.4174
16316TIP3    H270364   5.863   0.261   6.073  1.2700 -0.8149  0.0561
16317TIP3   OH270365   6.166   1.506   6.292 -0.3207  0.3224 -0.0338
16317TIP3    H170366   6.236   1.497   6.356  0.8675  1.5446 -1.0774
16317TIP3    H270367   6.099   1.559   6.336 -0.8638 -1.2808  1.1448
16318TIP3   OH270368   4.203   3.187  15.139 -0.5362  0.0346 -0.4806
16318TIP3    H170369   4.156   3.264  15.108 -0.5759 -0.5802 -2.0469
16318TIP3    H270370   4.136   3.119  15.144  0.0275 -0.7002 -2.1811
16319TIP3   OH270371   3.748   4.633   0.187  0.2785 -0.1758  0.2627
16319TIP3    H170372   3.702   4.680   0.118  1.4292  0.7605  0.1033
16319TIP3    H270373   3.834   4.613   0.149  1.1703  0.9149  1.6211
16320TIP3   OH270374   5.767   3.721   3.851  0.2327  0.1017  0.6617
16320TIP3    H170375   5.798   3.635   3.823 -1.2119 -0.6443  1.2717
16320TIP3    H270376   5.769   3.775   3.772 -1.7912 -1.3653 -0.4645
16321TIP3   OH270377   1.916   6.021  11.987  0.5975  0.0353  0.5040
16321TIP3    H170378   1.860   6.090  12.024  0.9662  0.3706  0.4457
16321TIP3    H270379   1.956   5.979  12.063 -0.6111 -0.9808  0.6192
16322TIP3   OH270380   4.901   6.571   3.988  0.1178  0.3573  0.3468
16322TIP3    H170381   4.871   6.595   3.900 -1.4439 -2.0926  0.0960
16322TIP3    H270382   4.996   6.573   3.982  0.0392  0.7965 -1.2494
16323TIP3   OH270383   5.822   1.331   6.292  0.6719 -0.0402 -0.0460
16323TIP3    H170384   5.877   1.409   6.280  2.2898 -1.1673 -0.4467
16323TIP3    H270385   5.858   1.289   6.370  1.4314 -1.5946 -1.1878
16324TIP3   OH270386   3.948   3.892   5.411  0.0854  0.2508  0.1403
16324TIP3    H170387   4.035   3.889   5.370 -0.6123  1.8857 -1.5978
16324TIP3    H270388   3.943   3.979   5.451 -1.4589  1.0168 -1.5838
16325TIP3   OH270389   5.531   6.740  10.846 -0.0180 -0.1336  0.0667
16325TIP3    H170390   5.561   6.651  10.826 -0.1330 -0.2033  0.2000
16325TIP3    H270391   5.508   6.737  10.939  1.2950  0.4024  0.4230
16326TIP3   OH270392   3.912   2.988  10.864 -0.0946 -0.0945  0.5458
16326TIP3    H170393   3.957   3.068  10.894  0.3152  0.5672 -1.6944
16326TIP3    H270394   3.984   2.927  10.846 -0.3789 -0.7476  1.5130
16327TIP3   OH270395   2.447   6.512  12.758  0.0165  0.0544  0.7807
16327TIP3    H170396   2.507   6.533  12.687 -1.3852 -0.5557 -0.6496
16327TIP3    H270397   2.389   6.588  12.765 -0.7280 -0.4577  0.2965
16328TIP3   OH270398   0.865   1.907  16.281  0.1659 -0.0149 -0.8600
16328TIP3    H170399   0.873   1.925  16.187  0.1306 -1.1768 -1.0922
16328TIP3    H270400   0.781   1.946  16.305  0.0721  0.0940 -1.3503
16329TIP3   OH270401   2.341   1.515   3.251  0.1694  0.1575 -0.7918
16329TIP3    H170402   2.291   1.596   3.244 -0.5115 -0.2793 -1.0471
16329TIP3    H270403   2.426   1.536   3.213 -0.3357  0.4760 -1.7713
16330TIP3   OH270404   6.760   4.826  14.351  0.4009  0.4204 -0.2732
16330TIP3    H170405   6.755   4.739  14.310  0.6090 -0.7649  2.0339
16330TIP3    H270406   6.802   4.810  14.436 -2.0178  2.3066  1.4146
16331TIP3   OH270407   3.315   1.190  13.148 -0.5773 -0.4807  0.5253
16331TIP3    H170408   3.320   1.098  13.175 -1.0183 -0.1646  1.7820
16331TIP3    H270409   3.238   1.224  13.195 -1.8811 -0.0592 -1.7707
16332TIP3   OH270410   0.082   1.011   4.782 -0.3431 -0.1297  0.1441
16332TIP3    H170411   0.036   1.055   4.710  0.7148 -0.7450 -0.9565
16332TIP3    H270412   0.120   1.082   4.833  0.8024  0.3201 -1.2472
16333TIP3   OH270413   0.476   4.810   0.867  0.3333 -0.2808  0.0168
16333TIP3    H170414   0.515   4.837   0.950 -0.5056 -1.4990  0.8240
16333TIP3    H270415   0.489   4.715   0.863  0.6611 -0.2078 -1.4197
16334TIP3   OH270416   0.998   1.835  16.829 -0.6279 -0.7649  0.3091
16334TIP3    H170417   1.052   1.756  16.819  0.0631 -0.1794 -0.8064
16334TIP3    H270418   0.969   1.855  16.740  0.2948  0.9716  0.3643
16335TIP3   OH270419   5.974   0.320  14.010  0.7706  0.0546 -0.5081
16335TIP3    H170420   6.042   0.358  14.066  0.0481 -0.0523  0.4686
16335TIP3    H270421   6.019   0.303  13.927  2.2009 -0.8831  0.4026
16336TIP3   OH270422   1.019   1.826  15.397 -0.5405 -0.0549  0.0744
16336TIP3    H170423   0.939   1.776  15.380 -1.1656  1.1193 -0.5402
16336TIP3    H270424   0.994   1.917  15.385  1.0046  0.3163 -0.5937
16337TIP3   OH270425   3.663   1.609  15.767  0.4913 -0.1985 -0.3464
16337TIP3    H170426   3.703   1.642  15.687  0.8444  1.6592  0.5482
16337TIP3    H270427   3.569   1.615  15.751  0.5504  0.8459 -0.3935
16338TIP3   OH270428   0.730   0.369   1.584  0.0621  0.3181  0.1861
16338TIP3    H170429   0.679   0.356   1.504  0.5191 -0.3963 -0.0013
16338TIP3    H270430   0.665   0.364   1.654 -0.6047  2.5617 -0.1877
16339TIP3   OH270431   6.706   5.002   6.551  0.8324  0.3934  0.8247
16339TIP3    H170432   6.690   5.094   6.532 -2.5268 -0.0332  1.0698
16339TIP3    H270433   6.676   4.990   6.641 -1.0521 -1.3669  0.0336
16340TIP3   OH270434   6.427   5.526  13.252  0.1030 -0.1911 -0.4164
16340TIP3    H170435   6.485   5.543  13.326 -0.1648  0.9395 -0.4443
16340TIP3    H270436   6.405   5.433  13.260  1.0941 -0.3903  0.1732
16341TIP3   OH270437   1.586   5.680   1.284 -0.2488 -0.5356 -0.0990
16341TIP3    H170438   1.500   5.665   1.244 -0.0131  0.4554 -1.0218
16341TIP3    H270439   1.632   5.737   1.222  0.4246  0.4039  1.2205
16342TIP3   OH270440   5.776   1.950  16.651  0.0289  0.5127  0.1387
16342TIP3    H170441   5.724   1.947  16.732  0.4806 -0.7809  0.3940
16342TIP3    H270442   5.863   1.921  16.678 -0.0717 -0.9441 -1.0052
16343TIP3   OH270443   1.279   1.502  13.983 -0.1083 -0.7370 -0.3782
16343TIP3    H170444   1.349   1.446  13.948  0.2716  0.1611 -1.1065
16343TIP3    H270445   1.250   1.457  14.062  3.0958  0.0818  1.4714
16344TIP3   OH270446   2.068   0.819  16.289  0.1206  0.0665  0.1305
16344TIP3    H170447   2.041   0.846  16.201 -1.6114  1.4707  1.0106
16344TIP3    H270448   1.987   0.822  16.340  0.9980 -1.1740  1.6862
16345TIP3   OH270449   4.851   6.398  12.015  0.1743  0.0546 -0.0247
16345TIP3    H170450   4.767   6.353  12.004  0.6423 -1.1634  1.1253
16345TIP3    H270451   4.896   6.347  12.082  1.7845  0.7730 -0.5340
16346TIP3   OH270452   2.287   1.221   1.657  0.0028 -0.1536  0.5998
16346TIP3    H170453   2.211   1.186   1.610 -2.0618  1.5258  2.4947
16346TIP3    H270454   2.307   1.154   1.722 -0.5523 -0.1469  0.7838
16347TIP3   OH270455   2.472   5.604   2.220 -0.3817 -0.2598  0.3688
16347TIP3    H170456   2.420   5.663   2.273 -0.5757  1.4819 -1.6377
16347TIP3    H270457   2.408   5.547   2.177 -0.2367 -1.5505  1.8135
16348TIP3   OH270458   5.780   5.636   3.355  0.8078  0.1206  0.1436
16348TIP3    H170459   5.821   5.568   3.300  0.3125 -0.3406  0.3299
16348TIP3    H270460   5.816   5.620   3.442  0.4370 -0.1248  0.2559
16349TIP3   OH270461   5.346   3.652   5.473 -0.2108  0.2075  0.0943
16349TIP3    H170462   5.338   3.715   5.403  0.2046  0.0341 -0.1137
16349TIP3    H270463   5.295   3.577   5.444 -0.9206  0.5437  0.4587
16350TIP3   OH270464   5.194   3.424  14.972 -0.2408 -0.2642  0.7833
16350TIP3    H170465   5.268   3.404  15.029  1.5199  0.7474 -1.0173
16350TIP3    H270466   5.193   3.519  14.967 -1.3760 -0.2813  0.3922
16351TIP3   OH270467   0.617   6.499   0.162 -0.9117  0.4614 -0.0272
16351TIP3    H170468   0.597   6.408   0.141 -1.1754  0.6220 -0.4682
16351TIP3    H270469   0.628   6.542   0.077  1.5481  0.3422  0.1495
16352TIP3   OH270470   2.883   5.671   4.178  0.5220 -0.4010  0.6488
16352TIP3    H170471   2.937   5.592   4.175  0.5484 -0.6467  4.2804
16352TIP3    H270472   2.927   5.728   4.240 -1.1015  1.2580  0.3589
16353TIP3   OH270473   3.255   3.918   3.702 -0.1589 -0.4802 -0.2716
16353TIP3    H170474   3.336   3.936   3.655  0.5583 -1.2006  0.6629
16353TIP3    H270475   3.280   3.918   3.794 -0.8439 -2.4052 -0.0359
16354TIP3   OH270476   3.989   4.475   4.538 -0.3269  0.1822  0.1484
16354TIP3    H170477   3.918   4.539   4.548 -0.0554  0.3782  0.8818
16354TIP3    H270478   4.025   4.493   4.451 -0.3265  0.9590  0.2975
16355TIP3   OH270479   3.065   5.735   5.489 -0.4827 -0.4132  0.3870
16355TIP3    H170480   2.973   5.740   5.463 -0.5373 -0.1391  0.6250
16355TIP3    H270481   3.077   5.645   5.518 -0.7270 -0.4014  0.5274
16356TIP3   OH270482   2.972   6.085   5.531 -0.3671 -0.0511 -0.3958
16356TIP3    H170483   2.904   6.075   5.465  0.1416  2.1262 -1.3511
16356TIP3    H270484   2.981   6.180   5.542  1.1780 -0.3205  1.1054
16357TIP3   OH270485   5.355   0.542   5.170  0.6214 -0.5467 -0.4730
16357TIP3    H170486   5.384   0.512   5.084  2.1445  0.2515 -0.2672
16357TIP3    H270487   5.372   0.636   5.170  1.2243 -0.6304  0.9163
16358TIP3   OH270488   6.351   3.075  13.316 -0.0200 -0.1169  0.0648
16358TIP3    H170489   6.397   2.991  13.325 -0.0693  0.0077  1.8843
16358TIP3    H270490   6.421   3.138  13.297  0.2932 -0.2770  0.6450
16359TIP3   OH270491   6.189   6.058  16.469  0.1131  0.1548  0.2982
16359TIP3    H170492   6.132   5.990  16.433 -0.5113  0.9534 -0.2590
16359TIP3    H270493   6.134   6.103  16.534  0.6371 -0.0921  0.9226
16360TIP3   OH270494   0.633   6.370   1.849  0.3295 -0.0589  0.2328
16360TIP3    H170495   0.617   6.427   1.774 -2.7186  0.7566  1.3372
16360TIP3    H270496   0.596   6.285   1.823 -1.1393  0.3439  0.8714
16361TIP3   OH270497   5.741   1.145  15.424  0.4412 -0.7548 -0.5205
16361TIP3    H170498   5.658   1.190  15.412  0.9161  0.2253 -0.1669
16361TIP3    H270499   5.770   1.125  15.335 -0.5959 -1.9388 -0.6302
16362TIP3   OH270500   2.632   6.339   4.206 -0.0080 -0.3815 -0.4193
16362TIP3    H170501   2.614   6.422   4.251  1.3499  0.2817 -1.0562
16362TIP3    H270502   2.641   6.363   4.114 -0.9759 -1.4607 -0.8211
16363TIP3   OH270503   1.841   3.905   0.314 -0.4402 -0.6976 -0.4334
16363TIP3    H170504   1.815   3.864   0.231 -0.7489 -0.0141 -0.6783
16363TIP3    H270505   1.831   3.999   0.299 -0.0455 -0.5415  0.2294
16364TIP3   OH270506   2.342   6.272   1.517  0.2339 -0.3150 -0.2855
16364TIP3    H170507   2.332   6.296   1.425  1.1553  0.1797 -0.2632
16364TIP3    H270508   2.255   6.284   1.554 -0.4352 -1.6110 -1.3273
16365TIP3   OH270509   3.326   2.780   0.056 -0.6143  0.0610 -0.0904
16365TIP3    H170510   3.295   2.693   0.084 -0.6453 -0.2360 -1.0126
16365TIP3    H270511   3.249   2.822   0.019 -0.1668 -0.3358 -1.5617
16366TIP3   OH270512   6.685   4.975   2.609 -0.1315  0.3285 -0.2364
16366TIP3    H170513   6.780   4.963   2.621 -0.0134 -1.0631 -2.0806
16366TIP3    H270514   6.655   5.009   2.693  1.9823  0.7127  0.4427
16367TIP3   OH270515   2.383   3.113  16.754 -0.0541 -0.0981  0.0443
16367TIP3    H170516   2.360   3.024  16.730  1.1200 -0.2990 -0.4386
16367TIP3    H270517   2.310   3.167  16.724 -0.8821 -0.9162  0.5635
16368TIP3   OH270518   0.138   3.184  16.222 -0.1483  0.5415 -0.1151
16368TIP3    H170519   0.129   3.230  16.139  4.3546  1.0167 -0.5788
16368TIP3    H270520   0.131   3.253  16.288  1.1438  1.0617 -0.4824
16369TIP3   OH270521   4.265   1.537   2.992 -0.6842  0.5473 -0.0214
16369TIP3    H170522   4.212   1.513   2.916 -1.8415 -0.7201  1.1438
16369TIP3    H270523   4.209   1.518   3.067  0.4058  1.8325  1.1694
16370TIP3   OH270524   4.777   3.660   2.406 -0.1233  0.2325 -0.4844
16370TIP3    H170525   4.685   3.637   2.415  0.6678 -2.5791  1.7382
16370TIP3    H270526   4.788   3.737   2.462 -0.7413 -0.6353  0.8578
16371TIP3   OH270527   0.100   2.918   1.679  0.1996 -0.7000  0.0898
16371TIP3    H170528   0.060   2.835   1.654 -1.5223 -0.2340  1.1069
16371TIP3    H270529   0.032   2.963   1.729  1.5334  0.7852  0.6543
16372TIP3   OH270530   2.740   5.359   1.870 -0.3113 -0.2966 -0.2736
16372TIP3    H170531   2.697   5.395   1.947  0.5005  0.2333 -0.0487
16372TIP3    H270532   2.671   5.348   1.806 -0.7914  0.4281  0.1118
16373TIP3   OH270533   5.191   4.828   6.247 -0.7095  0.1228 -0.1254
16373TIP3    H170534   5.150   4.752   6.287  0.0614 -0.0168  0.4209
16373TIP3    H270535   5.246   4.792   6.177  0.2242  0.1104  0.6106
16374TIP3   OH270536   3.056   6.323   2.444 -0.0001  0.1660 -0.0488
16374TIP3    H170537   2.985   6.333   2.382 -1.8998 -2.1586  1.5575
16374TIP3    H270538   3.071   6.411   2.478 -0.8555  0.9916 -1.7042
16375TIP3   OH270539   1.568   1.195   2.957 -0.5405 -0.3424 -0.1874
16375TIP3    H170540   1.563   1.229   3.046 -0.7538 -0.5969 -0.1024
16375TIP3    H270541   1.657   1.161   2.949  0.3891  2.0773 -0.9416
16376TIP3   OH270542   0.971   4.710   0.205 -0.2929 -0.0707  0.0845
16376TIP3    H170543   0.959   4.792   0.253 -1.4685  0.1497 -0.5485
16376TIP3    H270544   1.003   4.648   0.271 -1.1254  0.4238  0.9871
16377TIP3   OH270545   5.673   0.487   2.659 -0.0804  0.0914 -0.5776
16377TIP3    H170546   5.681   0.565   2.605  0.6735  0.3466 -0.1023
16377TIP3    H270547   5.731   0.502   2.734 -0.1590 -0.7859 -0.3228
16378TIP3   OH270548   3.318   4.723  12.605  0.0350  0.4891 -0.0095
16378TIP3    H170549   3.258   4.709  12.531 -0.5369  0.3395  0.4778
16378TIP3    H270550   3.391   4.772  12.567  0.3060 -0.5666 -0.9410
16379TIP3   OH270551   5.750   2.311  16.851  0.0943 -0.3883 -0.2267
16379TIP3    H170552   5.778   2.332  16.762  2.7815  0.5451  0.7512
16379TIP3    H270553   5.745   2.395  16.896  2.8090 -1.0288  1.5191
16380TIP3   OH270554   5.298   0.461  11.612  0.1905  0.2574  0.1657
16380TIP3    H170555   5.325   0.523  11.544  1.7925 -0.7144 -0.1596
16380TIP3    H270556   5.265   0.515  11.683  2.2940  1.5815  0.2376
16381TIP3   OH270557   0.755   1.109   2.057 -0.2371  0.0140 -0.2967
16381TIP3    H170558   0.840   1.116   2.013 -0.8653  1.5838 -1.3782
16381TIP3    H270559   0.691   1.133   1.990 -1.6171 -1.6786  0.3310
16382TIP3   OH270560   1.232   5.376  12.410  0.0040  0.8258  0.0829
16382TIP3    H170561   1.151   5.376  12.359  0.1008  1.4066 -0.0736
16382TIP3    H270562   1.207   5.345  12.496 -0.3328  0.7329 -0.0488
16383TIP3   OH270563   2.753   5.221   3.156 -0.0047  0.6388 -0.0506
16383TIP3    H170564   2.823   5.250   3.215 -0.1564  0.1989  0.3454
16383TIP3    H270565   2.672   5.249   3.198 -0.1775 -0.6623  0.5274
16384TIP3   OH270566   5.519   4.086  16.808 -0.7501 -0.2508 -0.1719
16384TIP3    H170567   5.569   4.079  16.889 -0.5285 -0.7186 -0.3472
16384TIP3    H270568   5.447   4.145  16.829  0.4901  1.3440 -0.2087
16385TIP3   OH270569   1.803   0.504  15.425  0.0674  0.6197 -0.1133
16385TIP3    H170570   1.806   0.589  15.470  0.6512 -1.2501  3.7682
16385TIP3    H270571   1.711   0.480  15.426 -0.2574  1.5229 -2.1560
16386TIP3   OH270572   2.778   1.400  14.845 -0.1057 -0.2830 -0.1927
16386TIP3    H170573   2.825   1.408  14.928  0.3078 -0.0611 -0.4410
16386TIP3    H270574   2.809   1.316  14.809  0.6022  0.1621 -0.6534
16387TIP3   OH270575   3.385   2.510  11.755  0.5008  0.3325 -0.0497
16387TIP3    H170576   3.432   2.588  11.783  0.0081  0.6766 -0.1785
16387TIP3    H270577   3.410   2.497  11.664  1.8174 -0.5757  0.4142
16388TIP3   OH270578   2.757   1.342  11.947 -0.1844  1.1365  0.3004
16388TIP3    H170579   2.711   1.425  11.964 -1.1440  0.5485  0.6506
16388TIP3    H270580   2.691   1.287  11.905 -0.0039  0.0550  1.3963
16389TIP3   OH270581   4.390   6.093   1.662 -0.0396 -0.2257 -0.0649
16389TIP3    H170582   4.335   6.116   1.736 -0.7988  0.1776 -0.7453
16389TIP3    H270583   4.445   6.170   1.649 -0.3119 -0.0684 -0.2874
16390TIP3   OH270584   1.170   6.604  12.189 -0.4954 -0.5674  0.0491
16390TIP3    H170585   1.147   6.656  12.266  0.9711 -0.5352  0.4955
16390TIP3    H270586   1.087   6.590  12.144 -1.0775  1.3169  0.4411
16391TIP3   OH270587   1.135   3.878   1.558  0.5765  0.3347  0.1928
16391TIP3    H170588   1.108   3.932   1.485  2.2847 -0.4902 -1.1212
16391TIP3    H270589   1.085   3.797   1.549 -2.3284  1.7023  2.4245
16392TIP3   OH270590   4.814   2.897  12.996  0.2506  0.1486  0.1596
16392TIP3    H170591   4.747   2.842  13.036  0.0303  2.3594  3.1548
16392TIP3    H270592   4.790   2.901  12.903 -1.2044 -2.5409  0.3090
16393TIP3   OH270593   5.949   5.833   3.742  0.0562  0.2906 -0.3346
16393TIP3    H170594   6.039   5.848   3.770  0.1126 -0.7161  0.0562
16393TIP3    H270595   5.903   5.804   3.821  0.4169 -3.4671 -1.3166
16394TIP3   OH270596   0.426   4.184   1.729  0.1244  0.0195 -0.5720
16394TIP3    H170597   0.364   4.146   1.667  0.3303 -0.8387 -0.2731
16394TIP3    H270598   0.435   4.117   1.798  1.6634 -0.0603 -0.8088
16395TIP3   OH270599   0.843   0.250  16.534 -0.7075 -0.5011 -0.4334
16395TIP3    H170600   0.759   0.212  16.563 -1.1745  0.0724 -0.9992
16395TIP3    H270601   0.833   0.261  16.440 -0.2716  0.2596 -0.3958
16396TIP3   OH270602   0.047   4.286  16.080 -0.3412  0.7620 -0.0889
16396TIP3    H170603  -0.031   4.255  16.126 -0.2957  1.2483  0.3186
16396TIP3    H270604   0.014   4.344  16.012 -0.3709  0.4540 -0.3450
16397TIP3   OH270605   6.004   3.554  13.989  0.1717 -0.0207  0.4578
16397TIP3    H170606   5.920   3.541  13.945  0.4949 -1.0907  0.1126
16397TIP3    H270607   6.069   3.526  13.924  0.8072  0.8737  0.6900
16398TIP3   OH270608   6.399   0.502   2.658 -0.1133  0.0056  0.6239
16398TIP3    H170609   6.413   0.500   2.753 -1.0650  0.6108  0.7920
16398TIP3    H270610   6.352   0.421   2.639  0.9940 -0.6283  0.4922
16399TIP3   OH270611   3.217   1.916  14.260 -0.1732  0.2510 -0.0547
16399TIP3    H170612   3.240   1.903  14.168 -0.4140 -1.8391  0.1215
16399TIP3    H270613   3.216   2.011  14.272  2.4813  0.5744 -1.5472
16400TIP3   OH270614   6.471   2.173   2.258 -0.4928  0.0720 -0.0862
16400TIP3    H170615   6.467   2.138   2.347  0.1233  2.0855  0.7847
16400TIP3    H270616   6.547   2.131   2.219 -1.0525 -1.1961  0.1361
16401TIP3   OH270617   3.587   6.713   2.352  0.1144  0.1481  0.2785
16401TIP3    H170618   3.601   6.619   2.362  0.1758  0.2542  1.2827
16401TIP3    H270619   3.634   6.736   2.271  0.4710 -0.6008  0.2700
16402TIP3   OH270620   5.240   4.664   4.649 -0.5675 -0.5055  0.3595
16402TIP3    H170621   5.145   4.658   4.640 -0.5973  1.6368 -1.8789
16402TIP3    H270622   5.254   4.718   4.727 -1.2362  0.0272  0.1134
16403TIP3   OH270623   1.299   6.300  15.030 -0.1444  0.0934 -0.0941
16403TIP3    H170624   1.312   6.209  15.001 -0.0825  0.7747 -2.3673
16403TIP3    H270625   1.229   6.293  15.096 -2.0129 -1.3851 -2.0589
16404TIP3   OH270626   0.704   5.943  13.445 -0.0368 -0.1618  0.0910
16404TIP3    H170627   0.736   6.031  13.425 -0.9584  0.4979  1.3546
16404TIP3    H270628   0.777   5.885  13.422  0.0090  0.7355 -2.3061
16405TIP3   OH270629   1.837   5.172   2.894 -0.2106  0.5504 -0.4198
16405TIP3    H170630   1.837   5.168   2.798  1.5467  0.0783 -0.4232
16405TIP3    H270631   1.749   5.143   2.918  0.1752 -2.1657 -1.8246
16406TIP3   OH270632   1.903   6.503  14.204 -0.5018  0.3702 -0.5197
16406TIP3    H170633   1.898   6.513  14.109 -1.2259 -0.1342 -0.5477
16406TIP3    H270634   1.903   6.593  14.237  2.6675  0.6839 -1.0682
16407TIP3   OH270635   0.589   1.250   4.137  0.2825  0.0276 -0.5942
16407TIP3    H170636   0.511   1.306   4.130  0.1338 -0.0394  0.3203
16407TIP3    H270637   0.613   1.231   4.047 -0.5174  0.3946 -0.8996
16408TIP3   OH270638   0.689   2.619   4.042 -0.1272 -0.5419 -0.0305
16408TIP3    H170639   0.761   2.671   4.006  1.0997 -1.2272  1.3125
16408TIP3    H270640   0.724   2.530   4.046 -1.4831 -1.1079 -0.4247
16409TIP3   OH270641   5.260   2.748  14.854  0.2850  0.0856 -0.1606
16409TIP3    H170642   5.308   2.816  14.806 -1.8064  0.8001 -1.3660
16409TIP3    H270643   5.197   2.797  14.908 -1.8596 -0.8169 -1.7045
16410TIP3   OH270644   6.033   4.819  11.602 -0.4222 -0.2604  0.1518
16410TIP3    H170645   5.951   4.851  11.640 -1.1434 -0.1959 -1.3896
16410TIP3    H270646   6.022   4.724  11.598 -0.0647 -0.3309  0.7148
16411TIP3   OH270647   6.708   2.869   5.023  0.8792 -0.4545 -0.2449
16411TIP3    H170648   6.759   2.949   5.008  1.3583 -0.5527  0.7641
16411TIP3    H270649   6.642   2.870   4.954  0.6822  0.9798 -0.0786
16412TIP3   OH270650   6.123   3.454  14.217  0.3861  0.3245 -0.3083
16412TIP3    H170651   6.118   3.482  14.125  0.0273  1.1634 -0.0503
16412TIP3    H270652   6.043   3.403  14.230  0.6815 -0.2148 -0.5929
16413TIP3   OH270653   4.234   2.890   4.957  0.4016 -1.0535 -0.4169
16413TIP3    H170654   4.254   2.982   4.976  0.8390 -1.2445  0.0613
16413TIP3    H270655   4.160   2.894   4.897  1.9195 -0.3068 -2.3789
16414TIP3   OH270656   0.348   5.110   0.513 -0.5372  0.5964 -0.4866
16414TIP3    H170657   0.425   5.131   0.460 -0.7252  0.1003 -0.9573
16414TIP3    H270658   0.340   5.184   0.574 -0.8724  1.6536 -1.7630
16415TIP3   OH270659   1.317   1.736  11.449  0.2059  0.7359  0.2805
16415TIP3    H170660   1.410   1.719  11.438  0.0709 -0.2881  0.5561
16415TIP3    H270661   1.290   1.781  11.369  0.7748  0.3206 -0.1464
16416TIP3   OH270662   5.576   4.257  17.073  0.5873 -0.2449  0.0855
16416TIP3    H170663   5.589   4.347  17.044 -0.7703  0.5432  1.7257
16416TIP3    H270664   5.583   4.262  17.169 -0.1859 -1.7514  0.2525
16417TIP3   OH270665   6.593   3.807   1.240  0.2990 -0.4217  0.3902
16417TIP3    H170666   6.644   3.856   1.176  1.5504 -1.3970  0.5954
16417TIP3    H270667   6.511   3.786   1.194  1.0423 -0.8394 -0.7934
16418TIP3   OH270668   5.527   0.664   1.432  0.4992  0.3839 -0.7410
16418TIP3    H170669   5.562   0.746   1.397  1.3982  0.3135 -0.0456
16418TIP3    H270670   5.438   0.685   1.459  0.6016  1.0398 -0.8982
16419TIP3   OH270671   6.727   4.184  15.184 -0.9455  0.1202  0.1124
16419TIP3    H170672   6.731   4.125  15.260  1.9353 -1.7391 -1.2991
16419TIP3    H270673   6.650   4.154  15.135 -1.6556  0.0084  1.2625
16420TIP3   OH270674   3.870   2.982  14.585 -0.1407 -0.0884  0.0678
16420TIP3    H170675   3.875   2.986  14.490  0.0979  0.2917  0.0919
16420TIP3    H270676   3.962   2.988  14.614 -0.3216  1.8156  0.3832
16421TIP3   OH270677   0.458   3.679   3.357 -0.0225  0.0249 -0.5313
16421TIP3    H170678   0.442   3.598   3.405  0.7940  0.1886  0.0427
16421TIP3    H270679   0.545   3.706   3.385  1.2769 -0.8033 -3.4418
16422TIP3   OH270680   1.923   6.682  12.464  0.3652  0.2943 -0.2541
16422TIP3    H170681   2.001   6.647  12.507 -0.3133 -0.7077  0.2023
16422TIP3    H270682   1.938   6.776  12.459  1.5104  0.1397  0.0082
16423TIP3   OH270683   2.637   2.793  13.493  0.5135  0.3238  0.1661
16423TIP3    H170684   2.610   2.859  13.428  0.5970 -0.0417 -0.2467
16423TIP3    H270685   2.693   2.733  13.443  1.4018  0.5970  0.8068
16424TIP3   OH270686   2.221   2.629   6.000 -0.1807  0.0844 -0.2799
16424TIP3    H170687   2.161   2.557   5.978 -0.0924 -0.4027  0.9825
16424TIP3    H270688   2.194   2.656   6.088 -0.7494  2.1682 -1.0336
16425TIP3   OH270689   6.174   0.629  11.909 -0.0619 -0.2569 -0.0319
16425TIP3    H170690   6.163   0.559  11.974  0.9047 -0.9688 -0.6207
16425TIP3    H270691   6.155   0.587  11.825  1.9878 -0.2282 -0.5486
16426TIP3   OH270692   5.265   4.368  12.949  0.6611  0.0793 -0.1030
16426TIP3    H170693   5.192   4.359  12.888  0.9193  1.6362 -0.6835
16426TIP3    H270694   5.233   4.328  13.030 -1.8425  2.8076  0.4346
16427TIP3   OH270695   0.099   4.667  16.227 -0.3183 -0.1749  0.1832
16427TIP3    H170696   0.143   4.676  16.143  0.3032  3.6815  0.7182
16427TIP3    H270697   0.006   4.664  16.205 -0.1398  0.2861 -0.6971
16428TIP3   OH270698   5.945   4.811  16.998  0.0414  0.3313  0.2870
16428TIP3    H170699   5.873   4.799  16.937 -0.5409  1.0119  0.8236
16428TIP3    H270700   5.924   4.892  17.045  0.3744 -0.2718  1.5126
16429TIP3   OH270701   0.904   1.337  14.293 -0.7318  0.4912 -0.1692
16429TIP3    H170702   0.942   1.261  14.248 -2.9018 -0.1041 -1.1157
16429TIP3    H270703   0.913   1.316  14.386  0.5038  0.0262 -0.3698
16430TIP3   OH270704   0.635   3.577  10.739  0.4987  0.0221 -0.2856
16430TIP3    H170705   0.568   3.577  10.807  1.4993 -0.9281  0.7633
16430TIP3    H270706   0.693   3.650  10.762  0.7684 -0.2228 -0.1698
16431TIP3   OH270707   1.355   0.430   0.962 -0.5915  0.2592 -0.2230
16431TIP3    H170708   1.438   0.384   0.965 -0.7370  0.0338  1.6283
16431TIP3    H270709   1.291   0.364   0.935 -0.5897 -0.3360  1.1379
16432TIP3   OH270710   2.406   0.760  15.814  0.4575  0.2216 -0.1243
16432TIP3    H170711   2.500   0.773  15.822  0.4837 -1.1481  2.6622
16432TIP3    H270712   2.396   0.698  15.741  1.8853 -1.1521  0.8036
16433TIP3   OH270713   4.298   1.085  11.165 -0.2218 -0.1041 -0.1838
16433TIP3    H170714   4.225   1.075  11.226 -0.0449  1.6014  0.3694
16433TIP3    H270715   4.327   0.996  11.147 -2.2958 -0.8128 -0.2551
16434TIP3   OH270716   5.941   2.645   1.404  0.0577 -0.2709 -0.1581
16434TIP3    H170717   5.929   2.639   1.310  1.1494  1.5914 -0.4600
16434TIP3    H270718   5.980   2.731   1.418 -0.4502 -0.3289  2.0351
16435TIP3   OH270719   6.376   3.689   4.541  0.0265  0.3599 -0.0936
16435TIP3    H170720   6.303   3.628   4.534 -1.3117  1.9174 -0.4512
16435TIP3    H270721   6.339   3.767   4.582  1.4307  1.2917 -0.4986
16436TIP3   OH270722   6.483   2.826  13.336  0.0971 -0.0173 -0.5031
16436TIP3    H170723   6.392   2.795  13.337  0.1947 -0.4984 -2.2670
16436TIP3    H270724   6.531   2.760  13.385 -0.2145 -0.8938 -1.3411
16437TIP3   OH270725   5.340   0.336   1.862 -0.1868 -0.5341 -0.4644
16437TIP3    H170726   5.316   0.254   1.818 -0.8587 -0.9183  0.5662
16437TIP3    H270727   5.380   0.308   1.944  3.4023  0.1033 -1.8149
16438TIP3   OH270728   5.478   3.341  17.167  0.2388 -0.2772  0.2592
16438TIP3    H170729   5.449   3.428  17.194 -0.7385 -0.5929  0.2675
16438TIP3    H270730   5.514   3.354  17.079  0.3714  0.1792  0.3763
16439TIP3   OH270731   4.312   2.929  14.228 -0.1554 -0.3447  0.2881
16439TIP3    H170732   4.311   2.995  14.297  1.4036 -0.7249  0.7288
16439TIP3    H270733   4.393   2.880  14.244 -0.2824 -1.0870 -1.2089
16440TIP3   OH270734   4.481   0.253  16.153  0.2890  0.1026  0.5515
16440TIP3    H170735   4.432   0.287  16.228 -1.6872 -2.4647  0.5788
16440TIP3    H270736   4.546   0.194  16.191  0.1012 -0.2571  0.3225
16441TIP3   OH270737   1.926   1.877  15.498  0.0288  0.3257  0.6657
16441TIP3    H170738   2.017   1.905  15.509  0.2083 -0.3197  0.8721
16441TIP3    H270739   1.894   1.927  15.423  1.0092 -0.4935 -0.3522
16442TIP3   OH270740   1.918   6.242  15.167  0.0206 -0.6753  0.2686
16442TIP3    H170741   1.990   6.288  15.210 -1.2081  0.0097  1.6661
16442TIP3    H270742   1.866   6.206  15.239 -1.5137 -0.4137 -0.6654
16443TIP3   OH270743   5.395   5.106  12.856 -0.3085  0.0340 -0.5329
16443TIP3    H170744   5.473   5.162  12.861 -0.4548  0.4067 -2.0613
16443TIP3    H270745   5.429   5.020  12.830 -0.2968 -0.1164 -0.0416
16444TIP3   OH270746   0.982   4.232  16.596 -0.4389 -0.4449 -0.5528
16444TIP3    H170747   0.919   4.222  16.524 -0.9468 -0.8482 -0.0609
16444TIP3    H270748   0.930   4.265  16.669  0.3546  1.4568 -0.7884
16445TIP3   OH270749   3.386   3.168  14.047  0.3136  0.5997  0.1676
16445TIP3    H170750   3.308   3.178  14.102 -0.9106  0.0838 -1.3894
16445TIP3    H270751   3.454   3.137  14.107 -0.9821 -0.0406  1.3695
16446TIP3   OH270752   3.236   0.461  12.120  0.7748 -0.0187 -0.6931
16446TIP3    H170753   3.324   0.499  12.127  0.6251  0.1501  0.4593
16446TIP3    H270754   3.187   0.501  12.193 -0.2059 -0.2432 -1.2168
16447TIP3   OH270755   6.591   4.850  15.927  0.2159  0.0240  0.3830
16447TIP3    H170756   6.595   4.932  15.877  0.4472 -0.5715 -0.5845
16447TIP3    H270757   6.501   4.846  15.959 -0.0983  0.1305 -0.4694
16448TIP3   OH270758   6.707   3.046  10.739  0.1902  0.0898  0.1347
16448TIP3    H170759   6.628   3.043  10.685 -1.2747  1.8185  2.0561
16448TIP3    H270760   6.748   3.129  10.715  0.4210  0.0790  0.4977
16449TIP3   OH270761   2.784   6.470   3.753 -0.1964 -0.0730 -0.2112
16449TIP3    H170762   2.699   6.491   3.716 -0.2548  1.4961  0.7326
16449TIP3    H270763   2.841   6.542   3.726  0.9965 -1.3583 -1.2745
16450TIP3   OH270764   2.820   5.448  13.079 -0.4656 -0.8203 -0.6039
16450TIP3    H170765   2.890   5.386  13.099  0.5822  0.7262  0.7170
16450TIP3    H270766   2.865   5.531  13.066 -1.9529 -0.0701 -1.1738
16451TIP3   OH270767   1.306   6.306  16.891 -0.0972  0.7618  0.9360
16451TIP3    H170768   1.337   6.276  16.806  0.0023  0.6446  1.0133
16451TIP3    H270769   1.349   6.249  16.954 -0.9775  0.1496  1.0082
16452TIP3   OH270770   2.514   3.380   0.809 -0.0731 -0.3431 -0.0253
16452TIP3    H170771   2.533   3.389   0.903  0.1740  0.4429 -0.1404
16452TIP3    H270772   2.595   3.344   0.772  0.0796  0.0060 -0.0373
16453TIP3   OH270773   1.960   0.810   0.335  0.2555 -0.5900  0.8971
16453TIP3    H170774   2.019   0.835   0.264 -1.3461 -0.3356 -0.4087
16453TIP3    H270775   1.975   0.716   0.346 -0.4305 -0.9383 -0.7749
16454TIP3   OH270776   4.769   0.500   3.793  0.4318  0.2176  0.3170
16454TIP3    H170777   4.837   0.464   3.850  3.5608  1.5051 -2.2909
16454TIP3    H270778   4.764   0.439   3.719 -1.4061  0.0934  0.4981
16455TIP3   OH270779   4.687   1.415   1.089 -0.7867  0.1530 -0.2942
16455TIP3    H170780   4.706   1.470   1.013 -0.3554  1.0387  0.4264
16455TIP3    H270781   4.593   1.398   1.084 -0.9437  1.0352 -0.4971
16456TIP3   OH270782   4.682   6.453  17.199  0.1129  0.0552  0.0835
16456TIP3    H170783   4.734   6.470  17.278 -0.7144  2.1478  0.2594
16456TIP3    H270784   4.593   6.478  17.224 -0.1667  0.7326 -1.4924
16457TIP3   OH270785   1.336   4.909  15.594  0.3483  0.3856  0.2220
16457TIP3    H170786   1.430   4.892  15.595  0.3017  0.0900  1.2531
16457TIP3    H270787   1.296   4.822  15.600  0.0201  0.5493  0.4471
16458TIP3   OH270788   6.436   4.089   4.978 -1.0675 -0.1807 -0.5408
16458TIP3    H170789   6.426   4.129   5.064  0.1131  0.8661 -0.8505
16458TIP3    H270790   6.519   4.042   4.982 -1.0205 -0.1565 -1.0923
16459TIP3   OH270791   6.085   6.279   5.994 -0.1840  0.2127 -0.3757
16459TIP3    H170792   6.031   6.341   5.945 -2.5502 -1.5575 -0.2265
16459TIP3    H270793   6.058   6.291   6.085  1.0646  0.5586 -0.0329
16460TIP3   OH270794   1.049   1.170  12.592  0.1891 -0.4001  0.7341
16460TIP3    H170795   1.069   1.169  12.686  1.0019  0.1933  0.5785
16460TIP3    H270796   0.968   1.120  12.584  0.1225 -0.4708  1.7513
16461TIP3   OH270797   0.192   1.474   4.310  0.1573  0.2954 -0.3926
16461TIP3    H170798   0.236   1.433   4.236 -0.1203 -1.4241  0.3511
16461TIP3    H270799   0.099   1.474   4.287  0.0696 -0.2424 -0.0553
16462TIP3   OH270800   4.985   3.347  12.847  0.7368 -0.1416  0.1608
16462TIP3    H170801   4.979   3.366  12.753  0.0010  0.2875  0.2896
16462TIP3    H270802   4.901   3.307  12.869  0.2009  1.3696  0.9851
16463TIP3   OH270803   0.785   5.829   1.708  0.3433 -0.0891 -0.5537
16463TIP3    H170804   0.819   5.775   1.637 -0.9286 -0.7313 -0.7109
16463TIP3    H270805   0.745   5.766   1.769  0.6107  0.5206  0.2742
16464TIP3   OH270806   5.071   3.491  11.897 -0.2424  0.5006 -0.5701
16464TIP3    H170807   5.013   3.551  11.944  0.2862  0.5092  0.0888
16464TIP3    H270808   5.146   3.480  11.955 -1.3334 -2.6440  0.4455
16465TIP3   OH270809   0.240   2.680  11.143  0.0704 -0.0231 -0.0635
16465TIP3    H170810   0.216   2.601  11.191  0.1928  0.1602  0.3058
16465TIP3    H270811   0.326   2.661  11.105  0.7726  0.4414  1.2281
16466TIP3   OH270812   2.071   2.041  13.355  0.1376 -0.3530 -0.3577
16466TIP3    H170813   2.146   2.086  13.394  0.0662 -0.4733 -0.0764
16466TIP3    H270814   2.102   1.952  13.337  0.4801 -0.0126 -1.5288
16467TIP3   OH270815   4.459   0.740  16.532 -0.1353  0.0398  0.3112
16467TIP3    H170816   4.534   0.796  16.553 -1.1105  1.1602  0.9087
16467TIP3    H270817   4.428   0.773  16.447 -1.2259  0.9954  1.0575
16468TIP3   OH270818   3.384   1.530   4.775  0.0486  0.0039 -0.2961
16468TIP3    H170819   3.385   1.467   4.846 -0.4746 -2.1526 -2.0791
16468TIP3    H270820   3.433   1.487   4.705  1.2148  2.3486 -1.0305
16469TIP3   OH270821   5.635   3.113   3.830 -0.8398 -0.1674 -0.3250
16469TIP3    H170822   5.715   3.150   3.793 -0.6428 -0.0090  0.2469
16469TIP3    H270823   5.645   3.124   3.925 -1.2893 -0.6493 -0.2148
16470TIP3   OH270824   5.635   5.743  16.706  0.1618 -0.2370 -0.0449
16470TIP3    H170825   5.549   5.707  16.684  0.4164  0.0055 -1.5473
16470TIP3    H270826   5.615   5.827  16.747 -0.3478 -0.8097  0.9135
16471TIP3   OH270827   5.798   5.891   4.771 -0.0009  0.2760  0.0325
16471TIP3    H170828   5.832   5.913   4.858  1.1656 -1.9171  0.1873
16471TIP3    H270829   5.708   5.865   4.786 -0.4379  1.8186  0.2621
16472TIP3   OH270830   5.549   0.254   2.220  0.9792  0.6706 -0.4633
16472TIP3    H170831   5.560   0.270   2.313  0.3463 -0.8022 -0.0916
16472TIP3    H270832   5.455   0.267   2.205  0.9480  0.2041 -0.7171
16473TIP3   OH270833   5.410   3.788   2.473  0.3751 -0.6608  0.4848
16473TIP3    H170834   5.422   3.766   2.381  1.1554 -0.3065  0.4953
16473TIP3    H270835   5.321   3.822   2.479  0.7407  0.5042 -0.3776
16474TIP3   OH270836   5.169   2.765   3.396  0.0946 -0.4777  0.1369
16474TIP3    H170837   5.104   2.699   3.373 -0.2095 -0.7154  1.6022
16474TIP3    H270838   5.170   2.766   3.491  2.2313 -0.4708  0.1733
16475TIP3   OH270839   0.956   1.599  14.287 -0.5046  0.1488  0.2381
16475TIP3    H170840   0.919   1.646  14.213  0.9793 -1.6879 -1.8207
16475TIP3    H270841   0.926   1.509  14.276 -0.0555 -0.2273  1.7686
16476TIP3   OH270842   3.324   6.106  14.075  0.0497  0.0628 -0.0625
16476TIP3    H170843   3.373   6.030  14.043  0.5435  1.0549 -1.7823
16476TIP3    H270844   3.370   6.133  14.154  0.8250 -0.4828 -0.3152
16477TIP3   OH270845   6.682   5.553   5.876 -0.1489 -0.3123  0.4039
16477TIP3    H170846   6.744   5.523   5.810  0.5525  1.8442  0.0122
16477TIP3    H270847   6.651   5.638   5.844 -2.6469 -0.8770  1.0459
16478TIP3   OH270848   3.624   0.450   3.811 -0.5088  0.3798 -0.6781
16478TIP3    H170849   3.562   0.508   3.857  0.7840  1.1645  0.1321
16478TIP3    H270850   3.692   0.509   3.779 -0.0317 -0.5060 -1.3227
16479TIP3   OH270851   3.468   2.523   6.895  0.3639  0.1947  0.5152
16479TIP3    H170852   3.527   2.485   6.959 -0.1786  0.1937  1.0246
16479TIP3    H270853   3.411   2.450   6.869  1.8576 -0.3362 -1.5058
16480TIP3   OH270854   5.869   2.922  12.670  0.4219  0.6464  0.0245
16480TIP3    H170855   5.924   2.849  12.642  1.6298  0.9420  1.4628
16480TIP3    H270856   5.889   2.933  12.763 -2.3101  0.6024  0.7177
16481TIP3   OH270857   3.455   2.999   4.420  0.7304  0.0946 -0.6505
16481TIP3    H170858   3.388   2.953   4.471  3.0866 -0.7352  1.9249
16481TIP3    H270859   3.480   3.074   4.474  2.8577 -0.4156 -0.8471
16482TIP3   OH270860   6.338   3.283  17.148 -0.1663  0.6672 -0.4616
16482TIP3    H170861   6.367   3.323  17.230 -1.4640 -0.4029  0.5798
16482TIP3    H270862   6.355   3.190  17.160 -2.0729  0.2639 -0.6077
16483TIP3   OH270863   5.265   1.563  16.758  0.5366  0.4164 -0.7302
16483TIP3    H170864   5.281   1.535  16.848 -0.4354 -1.7976 -1.1824
16483TIP3    H270865   5.174   1.592  16.758  0.4464  0.1297 -1.0743
16484TIP3   OH270866   2.895   0.052  13.421  0.4236  0.8405  0.5206
16484TIP3    H170867   2.926  -0.035  13.444  0.5627  0.7566  0.0409
16484TIP3    H270868   2.825   0.071  13.483 -1.1013 -0.5052 -0.6927
16485TIP3   OH270869   6.238   5.806  13.021 -0.4664  0.0337 -0.0947
16485TIP3    H170870   6.288   5.752  12.960 -0.3226 -0.1082  0.1509
16485TIP3    H270871   6.200   5.874  12.965 -0.9297 -0.5150 -0.4583
16486TIP3   OH270872   1.147   2.345  17.176 -0.2936  0.1844  0.4497
16486TIP3    H170873   1.203   2.364  17.252 -0.2715  0.5155  0.3537
16486TIP3    H270874   1.066   2.311  17.214 -1.3320  2.7753  0.8247
16487TIP3   OH270875   6.103   5.795   2.932  0.1669 -0.2589 -0.1819
16487TIP3    H170876   6.013   5.787   2.899 -0.4570  2.6428  0.5668
16487TIP3    H270877   6.103   5.742   3.012 -1.0634  0.0640  0.0677
16488TIP3   OH270878   3.680   6.725  12.934  0.6579  0.3243 -0.0093
16488TIP3    H170879   3.696   6.782  13.009 -1.7002  0.7751  0.2309
16488TIP3    H270880   3.760   6.673  12.925  1.9574  2.0315  1.2145
16489TIP3   OH270881   1.405   0.921  13.514  0.3783  0.7988  0.1811
16489TIP3    H170882   1.381   0.867  13.438 -0.6569 -0.4866  1.3631
16489TIP3    H270883   1.332   0.982  13.523 -1.9769 -2.0291  2.7726
16490TIP3   OH270884   1.220   0.408   5.294 -0.2472 -0.0120  0.3506
16490TIP3    H170885   1.143   0.406   5.350 -0.3234 -1.1156  0.2231
16490TIP3    H270886   1.293   0.425   5.354 -0.3496 -1.0087  0.7822
16491TIP3   OH270887   3.595   1.380  16.114  0.0157 -0.2926  0.1985
16491TIP3    H170888   3.517   1.403  16.165  0.1723  0.3950  0.1440
16491TIP3    H270889   3.563   1.370  16.025  0.5068  4.0546 -0.7024
16492TIP3   OH270890   5.091   5.396   3.364 -0.2429 -0.2410 -0.1677
16492TIP3    H170891   5.118   5.305   3.368 -1.4903 -0.6640 -1.0010
16492TIP3    H270892   5.015   5.401   3.423  0.1116  0.3714  0.2478
16493TIP3   OH270893   3.428   0.717   2.079 -0.5518  0.4361 -0.5774
16493TIP3    H170894   3.477   0.787   2.122 -0.0666 -0.4861  0.4267
16493TIP3    H270895   3.478   0.638   2.097 -3.8337 -1.1357  3.3067
16494TIP3   OH270896   4.356   4.444   4.260  0.2357 -0.8224 -0.1388
16494TIP3    H170897   4.311   4.527   4.244  0.8463 -0.8053 -2.1369
16494TIP3    H270898   4.360   4.436   4.355  0.2183  1.4813  0.1099
16495TIP3   OH270899   2.660   6.428   2.428 -0.3060 -0.1686  0.2911
16495TIP3    H170900   2.703   6.467   2.352  0.8853  2.2890  2.1128
16495TIP3    H270901   2.570   6.458   2.422  0.2722  1.8653  0.9082
16496TIP3   OH270902   2.707   2.455  10.927 -0.4718  0.1902  0.0501
16496TIP3    H170903   2.735   2.497  11.008 -1.3969 -0.1104  0.5446
16496TIP3    H270904   2.728   2.362  10.939 -0.2416  0.2039 -0.2265
16497TIP3   OH270905   5.683   5.131   1.306 -0.2276  0.1765  0.6480
16497TIP3    H170906   5.737   5.072   1.253 -0.6216 -0.2979  0.7646
16497TIP3    H270907   5.597   5.089   1.307 -0.1578  0.0348  1.8907
16498TIP3   OH270908   3.136   6.677   2.098  0.2312  0.2674  0.1644
16498TIP3    H170909   3.079   6.603   2.079  0.4646  0.1992 -0.2844
16498TIP3    H270910   3.206   6.641   2.152  0.3474  0.1601 -0.0585
16499TIP3   OH270911   4.633   3.583   2.679 -0.3843 -0.5018  0.2563
16499TIP3    H170912   4.604   3.662   2.724 -2.0568 -1.7959  1.5478
16499TIP3    H270913   4.565   3.567   2.613 -0.1599 -1.0049  0.1475
16500TIP3   OH270914   5.912   4.020  16.201  0.6257  0.5829 -0.4753
16500TIP3    H170915   5.858   4.095  16.179 -2.3399 -0.5010  2.3510
16500TIP3    H270916   5.859   3.944  16.178  2.1305 -0.6398 -0.1321
16501TIP3   OH270917   5.665   0.015   2.692 -0.4213  0.7757 -0.7255
16501TIP3    H170918   5.738   0.051   2.744 -0.8601 -0.5885  0.9307
16501TIP3    H270919   5.587   0.034   2.744 -1.2895  2.1569 -2.4473
16502TIP3   OH270920   4.726   1.549  14.730 -0.2779 -0.2511 -0.3428
16502TIP3    H170921   4.658   1.611  14.704 -0.4091 -0.6174 -0.8963
16502TIP3    H270922   4.789   1.602  14.780 -1.6760 -0.1872  1.4630
16503TIP3   OH270923   5.048   1.388   4.196  0.1831  0.0266 -0.2208
16503TIP3    H170924   5.061   1.324   4.266 -0.5408  0.4130  0.2857
16503TIP3    H270925   4.981   1.350   4.140 -1.8677  1.1999  1.2587
16504TIP3   OH270926   6.624   3.758   6.046  0.6340  0.6545 -0.7360
16504TIP3    H170927   6.629   3.663   6.045 -1.5315  0.4805 -0.0341
16504TIP3    H270928   6.568   3.780   5.971 -1.4322  1.0899  0.8298
16505TIP3   OH270929   4.460   0.270   3.923 -0.2198 -0.3307  0.4376
16505TIP3    H170930   4.488   0.210   3.992  0.3197 -1.4095 -0.6646
16505TIP3    H270931   4.390   0.321   3.962 -1.0707 -2.0547  1.2922
16506TIP3   OH270932   6.237   5.061   5.838 -0.0757  0.4186 -0.0625
16506TIP3    H170933   6.286   5.030   5.915 -1.4594  2.3972  1.7189
16506TIP3    H270934   6.190   4.983   5.808 -1.5217  0.0534  2.7344
16507TIP3   OH270935   3.664   6.369   2.626  0.0394  0.3297 -0.5648
16507TIP3    H170936   3.623   6.409   2.703  0.4943  0.4920 -0.4032
16507TIP3    H270937   3.749   6.414   2.618 -1.2066  2.5713 -2.9830
16508TIP3   OH270938   1.684   5.133  12.820  0.0545  0.3936 -0.3919
16508TIP3    H170939   1.600   5.149  12.778  0.3775 -1.7165 -2.0590
16508TIP3    H270940   1.742   5.201  12.785 -0.2091 -0.0861 -1.8489
16509TIP3   OH270941   2.979   6.088   1.110 -0.0884 -0.0274  0.1401
16509TIP3    H170942   3.017   6.093   1.022 -0.0586 -1.2426  0.0648
16509TIP3    H270943   3.048   6.120   1.168  0.1414  0.1266 -0.2131
16510TIP3   OH270944   3.129   2.639   3.713  0.6023 -0.0187 -0.1454
16510TIP3    H170945   3.205   2.636   3.770  0.7304 -0.9388 -0.3575
16510TIP3    H270946   3.084   2.557   3.728  0.2748  0.0218 -0.8729
16511TIP3   OH270947   1.601   1.560   1.642  0.2761  0.3453  0.0241
16511TIP3    H170948   1.618   1.469   1.667  0.1882 -0.0230 -1.1966
16511TIP3    H270949   1.529   1.555   1.580  0.3029  1.2559 -0.1012
16512TIP3   OH270950   2.956   4.379  13.976 -0.1979  0.1465  0.1326
16512TIP3    H170951   3.004   4.297  13.964  0.1535  0.3702 -0.0181
16512TIP3    H270952   2.892   4.380  13.905 -0.9692 -0.5285  0.8016
16513TIP3   OH270953   5.246   6.144  10.192  0.5376 -0.2762  0.2293
16513TIP3    H170954   5.286   6.088  10.259  0.9913 -0.4258 -0.1527
16513TIP3    H270955   5.277   6.232  10.212 -1.8402  0.2173  2.0783
16514TIP3   OH270956   2.397   0.503  15.309  0.3595 -0.1467 -0.0665
16514TIP3    H170957   2.316   0.465  15.275  0.6952  0.0600 -1.1330
16514TIP3    H270958   2.465   0.442  15.283  0.6106 -0.1040  0.4606
16515TIP3   OH270959   3.973   2.902  13.810  0.0242  0.1372  0.6961
16515TIP3    H170960   3.928   2.882  13.728  2.2589 -1.0524 -0.3291
16515TIP3    H270961   4.008   2.990  13.797 -0.1634  0.2037  0.6353
16516TIP3   OH270962   4.091   4.061   1.520 -0.7646 -0.0579 -0.3027
16516TIP3    H170963   4.132   3.975   1.514  0.5544  0.5717 -0.6692
16516TIP3    H270964   3.997   4.043   1.522 -0.5275 -1.4659 -0.9355
16517TIP3   OH270965   4.445   6.215  15.531 -0.0793 -0.6828 -0.1527
16517TIP3    H170966   4.486   6.277  15.471  0.9094 -0.3886  0.7859
16517TIP3    H270967   4.358   6.250  15.547  0.5727  0.6632  0.6105
16518TIP3   OH270968   1.766   6.344  13.441  0.3631 -0.3114  0.2678
16518TIP3    H170969   1.802   6.356  13.353  1.5962 -0.9918  0.6556
16518TIP3    H270970   1.727   6.256  13.438  1.6368 -0.9134  0.7842
16519TIP3   OH270971   2.470   5.315   2.659 -0.1774  0.1357 -0.1643
16519TIP3    H170972   2.498   5.356   2.577 -1.1742  1.6317  0.1954
16519TIP3    H270973   2.415   5.382   2.701  1.2830 -0.0810  2.2963
16520TIP3   OH270974   3.854   4.814   4.936 -0.6652 -0.2528 -0.1548
16520TIP3    H170975   3.807   4.895   4.958  1.1153  0.6833  0.4043
16520TIP3    H270976   3.867   4.819   4.841  0.9161  1.0127  0.0860
16521TIP3   OH270977   4.149   0.119  12.442  0.3011  0.4194 -0.2211
16521TIP3    H170978   4.115   0.099  12.354  0.8904  0.3709 -0.4474
16521TIP3    H270979   4.074   0.110  12.500 -0.0891  0.4168 -0.7195
16522TIP3   OH270980   0.814   6.378   3.022  0.1030 -0.6673 -0.5282
16522TIP3    H170981   0.781   6.297   3.061  0.3933 -0.2766  0.5699
16522TIP3    H270982   0.881   6.349   2.960  1.2397 -1.2334  0.8968
16523TIP3   OH270983   0.846   4.585   6.628 -0.3092  0.4600 -0.3347
16523TIP3    H170984   0.810   4.496   6.620  0.2606  0.2347 -0.4453
16523TIP3    H270985   0.940   4.574   6.612 -0.2784  1.1287 -0.6256
16524TIP3   OH270986   3.198   0.423   2.348 -0.6433  0.0450  0.2348
16524TIP3    H170987   3.152   0.506   2.337 -0.5252  0.0286 -0.4292
16524TIP3    H270988   3.288   0.441   2.321 -0.6937 -0.3746 -0.2316
16525TIP3   OH270989   0.261   2.768  12.644 -0.1511 -0.7601 -0.1973
16525TIP3    H170990   0.245   2.857  12.675  0.9372 -0.6995  0.2268
16525TIP3    H270991   0.175   2.737  12.614 -0.7712 -0.0011  0.7391
16526TIP3   OH270992   3.267   6.293   0.688 -0.4135 -0.5816  0.8928
16526TIP3    H170993   3.245   6.298   0.595 -0.9703  0.6864  1.0737
16526TIP3    H270994   3.218   6.365   0.728  0.9687 -0.1844  1.9346
16527TIP3   OH270995   3.717   6.165   3.949 -0.0417 -0.5770  0.1962
16527TIP3    H170996   3.642   6.223   3.958 -1.2430 -2.0283 -0.0437
16527TIP3    H270997   3.758   6.165   4.035  1.0448  1.9197 -0.2244
16528TIP3   OH270998   1.767   1.211  15.125 -0.3316 -0.0084 -0.1226
16528TIP3    H170999   1.770   1.294  15.173 -0.0126 -1.3652  2.3599
16528TIP3    H271000   1.854   1.173  15.137 -0.9079 -1.3412  0.0109
16529TIP3   OH271001   4.916   4.070  17.020 -0.2245  0.7464 -0.0742
16529TIP3    H171002   4.979   4.043  17.087  0.9724  0.2548 -1.3569
16529TIP3    H271003   4.893   3.989  16.974 -0.6191  1.1535 -0.6062
16530TIP3   OH271004   4.958   4.556  12.690  0.1704  0.1653  0.1247
16530TIP3    H171005   5.040   4.513  12.666 -0.2017 -0.8203  0.5714
16530TIP3    H271006   4.934   4.606  12.612 -0.5024 -2.1768 -1.3039
16531TIP3   OH271007   1.138   0.173  15.571  0.2592 -0.4594 -0.7632
16531TIP3    H171008   1.074   0.223  15.622  0.1092 -1.6606  0.2582
16531TIP3    H271009   1.220   0.182  15.619  0.8094  0.7538 -1.8639
16532TIP3   OH271010   1.438   4.771  12.890 -0.2270  0.2174 -0.0176
16532TIP3    H171011   1.411   4.711  12.821  1.5087 -0.7557  0.0793
16532TIP3    H271012   1.506   4.723  12.938 -0.9633  1.0924  2.0089
16533TIP3   OH271013   1.286   2.272   2.907 -0.2035  0.3890 -0.1734
16533TIP3    H171014   1.371   2.227   2.907 -0.6764 -0.5344  0.5852
16533TIP3    H271015   1.308   2.364   2.898  0.9841  0.3048  1.4730
16534TIP3   OH271016   0.953   5.340  15.681 -0.1677 -0.0565 -0.3269
16534TIP3    H171017   1.030   5.390  15.707  0.4620 -1.2132  0.1284
16534TIP3    H271018   0.879   5.398  15.698  0.6624  1.6022 -2.0613
16535TIP3   OH271019   3.177   6.092   1.896  0.1931  0.1269  0.0942
16535TIP3    H171020   3.237   6.087   1.822 -1.0739 -0.4820 -0.9295
16535TIP3    H271021   3.234   6.095   1.973  1.5289  0.0543 -0.8640
16536TIP3   OH271022   5.042   1.144  11.205 -0.2651  0.1172  0.1177
16536TIP3    H171023   5.104   1.123  11.275  1.5258  0.8144 -1.1854
16536TIP3    H271024   5.035   1.063  11.155 -1.1770 -0.2392  0.7899
16537TIP3   OH271025   4.190   5.307   5.325  0.4011  0.3814  0.2225
16537TIP3    H171026   4.197   5.214   5.303  0.3398  0.2579  0.7114
16537TIP3    H271027   4.280   5.334   5.345  0.5266  0.6059 -0.5920
16538TIP3   OH271028   4.747   2.967   4.623 -0.8168  0.1448 -0.3755
16538TIP3    H171029   4.714   3.057   4.631 -0.4121  0.2666 -0.0916
16538TIP3    H271030   4.692   2.928   4.555 -0.5107  0.8300 -1.0305
16539TIP3   OH271031   4.772   4.205   0.917 -0.2252  0.4383 -0.3781
16539TIP3    H171032   4.835   4.247   0.858  0.2443  0.2412 -0.0286
16539TIP3    H271033   4.729   4.279   0.961  0.6203  0.5823  0.2574
16540TIP3   OH271034   0.909   1.297   6.153  0.3466 -0.2485  0.1819
16540TIP3    H171035   0.981   1.301   6.216  1.4437 -1.1651 -0.9610
16540TIP3    H271036   0.944   1.337   6.073 -0.1666 -1.2573 -0.5813
16541TIP3   OH271037   2.307   5.666   6.791  0.0100  0.1093 -0.7021
16541TIP3    H171038   2.315   5.760   6.806  2.1579 -0.2608  1.0821
16541TIP3    H271039   2.372   5.627   6.850 -0.8599 -2.5037 -1.3354
16542TIP3   OH271040   0.006   0.085  13.428 -0.0574  0.1598  0.0497
16542TIP3    H171041   0.007  -0.002  13.389  1.7125 -0.7645  1.9263
16542TIP3    H271042   0.091   0.093  13.471  0.0580  3.0590 -0.4983
16543TIP3   OH271043   5.469   0.014   4.050  0.2340 -0.7179 -0.0398
16543TIP3    H171044   5.451  -0.068   4.003 -0.4382  0.2147 -1.4539
16543TIP3    H271045   5.549   0.048   4.010  0.4394 -0.5996  0.4573
16544TIP3   OH271046   2.459   2.258  17.225 -0.3783  0.5026  0.2371
16544TIP3    H171047   2.512   2.219  17.294  0.5225  0.0844 -0.6681
16544TIP3    H271048   2.379   2.287  17.270  0.9204  1.9105  1.8055
16545TIP3   OH271049   2.946   3.305   3.190  0.3214 -0.7322 -0.3122
16545TIP3    H171050   3.038   3.331   3.190  0.3325 -0.7624 -0.6639
16545TIP3    H271051   2.924   3.293   3.098  0.4562 -2.4401 -0.1625
16546TIP3   OH271052   4.758   2.656   3.425  0.9563 -0.2179  0.4153
16546TIP3    H171053   4.754   2.728   3.488  1.9437 -1.5227  2.0469
16546TIP3    H271054   4.712   2.689   3.348  2.2333  2.5401  0.7055
16547TIP3   OH271055   0.710   6.297  11.163 -0.0721  0.5520  0.2231
16547TIP3    H171056   0.716   6.273  11.071  0.1113  3.1250 -0.5232
16547TIP3    H271057   0.711   6.393  11.163 -3.8894  0.8233  2.5833
16548TIP3   OH271058   5.462   3.452   2.072  0.5719 -0.2080 -0.2066
16548TIP3    H171059   5.423   3.424   2.155 -1.3018  0.8824 -0.6561
16548TIP3    H271060   5.541   3.500   2.098 -0.3635  0.7298  1.0220
16549TIP3   OH271061   3.450   3.454  15.243 -0.5797  0.2081 -0.3348
16549TIP3    H171062   3.448   3.548  15.259  0.3357  0.4981 -1.7434
16549TIP3    H271063   3.516   3.421  15.305  1.1526  0.9407 -1.7060
16550TIP3   OH271064   3.452   5.317  15.351  0.2288 -0.1680 -0.2632
16550TIP3    H171065   3.368   5.272  15.352  0.1319 -0.0521 -1.8439
16550TIP3    H271066   3.461   5.352  15.440 -2.1314  1.1952 -0.4775
16551TIP3   OH271067   2.666   2.101  14.426  0.0476  0.2190 -0.1526
16551TIP3    H171068   2.634   2.028  14.478 -0.4206  0.1735 -0.5041
16551TIP3    H271069   2.653   2.178  14.482  0.1644  0.0907  0.0531
16552TIP3   OH271070   5.989   1.248  12.817 -0.2284  0.2265 -0.0864
16552TIP3    H171071   5.922   1.285  12.760 -0.6875  1.3637  1.1500
16552TIP3    H271072   6.017   1.320  12.873 -0.6989 -1.0976  1.9836
16553TIP3   OH271073   3.403   0.878  13.903  0.1013 -0.0482 -0.3043
16553TIP3    H171074   3.363   0.940  13.843  1.6877 -0.2609 -1.6541
16553TIP3    H271075   3.410   0.797  13.853  2.0768 -0.0418 -0.1265
16554TIP3   OH271076   6.663   5.778  17.227  0.4624 -0.6775 -0.1362
16554TIP3    H171077   6.748   5.804  17.191  0.8462 -1.5767  0.0887
16554TIP3    H271078   6.618   5.737  17.154  0.2059 -0.1793 -0.2603
16555TIP3   OH271079   3.910   4.838   2.346 -0.1404  0.1935  0.4359
16555TIP3    H171080   3.845   4.785   2.394  0.3444 -0.0601  0.8215
16555TIP3    H271081   3.907   4.803   2.257 -0.1649 -0.1705  0.5742
16556TIP3   OH271082   3.702   3.177   4.987 -0.6268 -0.0086  0.0018
16556TIP3    H171083   3.659   3.125   4.919  0.9458 -2.1091  0.5331
16556TIP3    H271084   3.679   3.132   5.069 -0.4778  1.0543  0.6443
16557TIP3   OH271085   1.367   2.088   0.819  0.1550  0.3188 -0.6691
16557TIP3    H171086   1.389   2.143   0.894  0.9718  1.6435 -1.8483
16557TIP3    H271087   1.289   2.040   0.847 -0.2002  1.5932  0.6344
16558TIP3   OH271088   1.849   3.953   1.845  0.0322 -0.4360  0.1575
16558TIP3    H171089   1.792   3.960   1.768  0.2717 -0.1689  0.0015
16558TIP3    H271090   1.873   3.861   1.849 -1.2555 -0.7614  0.8389
16559TIP3   OH271091   5.299   2.476  16.107  0.9077  0.5578 -0.1907
16559TIP3    H171092   5.372   2.432  16.150  2.9211  1.9263 -2.0719
16559TIP3    H271093   5.336   2.556  16.069 -1.4265  1.0292 -1.7266
16560TIP3   OH271094   0.282   1.280  15.506 -0.7821  0.3004  0.4007
16560TIP3    H171095   0.234   1.295  15.425 -2.1255 -0.5982  0.9863
16560TIP3    H271096   0.245   1.344  15.568 -0.1058  0.6593  0.4409
16561TIP3   OH271097   3.330   3.906  12.101 -0.0990  0.0773 -0.2793
16561TIP3    H171098   3.295   3.861  12.178 -0.4804 -0.8703 -0.9873
16561TIP3    H271099   3.271   3.880  12.029  0.2887  0.8891 -0.9005
16562TIP3   OH271100   2.233   1.006   4.316  0.2920 -0.1405  0.1168
16562TIP3    H171101   2.231   1.086   4.263  0.6293 -0.2035  0.0063
16562TIP3    H271102   2.222   0.935   4.252 -1.3532 -0.1421  0.3476
16563TIP3   OH271103   0.348   1.822   6.311  1.0388  0.2119 -0.5081
16563TIP3    H171104   0.409   1.752   6.287  0.8560 -0.5134  1.0173
16563TIP3    H271105   0.268   1.776   6.335  0.9425  0.9387  0.5965
16564TIP3   OH271106   3.079   1.461   4.410 -0.0031 -0.7019  0.1585
16564TIP3    H171107   3.053   1.400   4.480 -1.3940  0.1223  0.3925
16564TIP3    H271108   2.997   1.487   4.369  0.7919 -1.4210 -2.0621
16565TIP3   OH271109   2.329   5.437  13.517 -0.2582 -0.2321 -0.2813
16565TIP3    H171110   2.391   5.406  13.583  0.6212 -0.2092 -1.0650
16565TIP3    H271111   2.251   5.461  13.566  0.5211  0.1821  0.8056
16566TIP3   OH271112   5.415   6.352  16.670  0.1841  0.6043 -0.5039
16566TIP3    H171113   5.477   6.386  16.605 -2.0164  0.3072 -2.9346
16566TIP3    H271114   5.386   6.268  16.635  0.4942 -0.6662  2.0323
16567TIP3   OH271115   6.079   1.608  13.553  0.0896  0.1018  0.4744
16567TIP3    H171116   6.076   1.698  13.587 -3.0033 -0.3763  1.8657
16567TIP3    H271117   6.045   1.614  13.464  1.3896  0.4441 -0.0282
16568TIP3   OH271118   5.068   2.857  15.293  0.5646 -0.0368  0.4429
16568TIP3    H171119   5.090   2.871  15.385 -1.2481 -1.1680  1.1062
16568TIP3    H271120   4.981   2.816  15.295  1.3014 -1.9213 -1.6857
16569TIP3   OH271121   4.384   3.219  13.359  0.4529  0.2730 -0.0376
16569TIP3    H171122   4.290   3.200  13.362  0.2779  0.9968 -0.6880
16569TIP3    H271123   4.389   3.314  13.362  1.1489  0.2556 -0.5528
16570TIP3   OH271124   1.123   6.659  11.881  0.0134 -0.2029 -0.3795
16570TIP3    H171125   1.195   6.648  11.943 -0.1714  0.9209  0.0720
16570TIP3    H271126   1.047   6.621  11.927 -0.0568  0.3328 -0.0409
16571TIP3   OH271127   4.507   5.063   0.578  0.0950  0.1229 -0.4904
16571TIP3    H171128   4.514   4.968   0.567  0.1290  0.2576 -1.7168
16571TIP3    H271129   4.415   5.077   0.600  0.4637 -0.3393  1.6540
16572TIP3   OH271130   3.231   6.344   3.506  0.0048  0.3768  0.2892
16572TIP3    H171131   3.251   6.254   3.529 -0.6210 -0.2785 -1.5364
16572TIP3    H271132   3.202   6.384   3.588  0.8866 -0.8793  1.2581
16573TIP3   OH271133   6.367   5.514  16.383 -0.0860  0.1692 -0.2790
16573TIP3    H171134   6.323   5.462  16.315 -0.1809 -1.3076  0.8453
16573TIP3    H271135   6.295   5.552  16.433 -0.1972 -1.8940  1.2932
16574TIP3   OH271136   5.848   5.298   0.661  0.1875 -0.0222 -0.1911
16574TIP3    H171137   5.832   5.383   0.619 -2.1142 -0.1589  0.2781
16574TIP3    H271138   5.882   5.320   0.747  1.7508  0.3412 -0.8770
16575TIP3   OH271139   5.919   5.881   3.132 -0.4230  0.0924  0.0838
16575TIP3    H171140   5.911   5.796   3.089 -0.4508 -0.7833  1.7344
16575TIP3    H271141   5.862   5.875   3.209 -1.6948  2.2050 -0.6166
16576TIP3   OH271142   0.295   5.364   2.983  0.0364 -0.2724  0.0212
16576TIP3    H171143   0.379   5.409   2.975  0.0468 -0.3741 -0.4568
16576TIP3    H271144   0.300   5.292   2.920  0.0533 -1.0025  0.8340
16577TIP3   OH271145   1.171   3.859  12.113 -0.3975  0.0170 -0.2688
16577TIP3    H171146   1.249   3.804  12.113 -1.6222 -1.8145 -1.2563
16577TIP3    H271147   1.119   3.829  12.187 -0.1263  1.3695  0.5126
16578TIP3   OH271148   5.792   6.196  15.657  0.6930 -0.1416 -0.1529
16578TIP3    H171149   5.818   6.210  15.566 -0.0796 -1.1388 -0.5535
16578TIP3    H271150   5.868   6.222  15.708  1.2114  0.2473 -1.0889
16579TIP3   OH271151   1.731   0.020  14.129  0.0371 -0.0363 -0.5325
16579TIP3    H171152   1.728  -0.034  14.208 -0.1009 -0.2237 -0.6636
16579TIP3    H271153   1.822   0.014  14.099  0.0407 -0.1339 -0.5027
16580TIP3   OH271154   0.507   4.976  11.394  0.5144 -0.3940 -0.0605
16580TIP3    H171155   0.532   4.896  11.348  0.9126 -0.6882  0.6584
16580TIP3    H271156   0.535   5.047  11.335  0.6730 -0.7677 -0.4396
16581TIP3   OH271157   2.431   0.978   0.129 -0.0582 -0.0409  0.2264
16581TIP3    H171158   2.377   1.018   0.061  2.7268  0.2931 -1.9753
16581TIP3    H271159   2.479   1.051   0.169  0.0738 -0.4884  0.9090
16582TIP3   OH271160   3.712   3.478   4.816 -0.1019  0.4378  0.0858
16582TIP3    H171161   3.724   3.462   4.909  1.0489 -2.0339 -0.4073
16582TIP3    H271162   3.645   3.546   4.812 -0.0288  0.7694  2.6981
16583TIP3   OH271163   4.029   4.292  14.077  0.3829  0.1741 -0.1933
16583TIP3    H171164   4.094   4.239  14.123 -0.8760 -0.5627  0.8108
16583TIP3    H271165   4.022   4.252  13.990  2.2851  1.1612 -0.8559
16584TIP3   OH271166   1.661   5.987  12.926  0.0667  0.3220 -0.3109
16584TIP3    H171167   1.736   6.046  12.913  0.5081 -0.7252 -3.3143
16584TIP3    H271168   1.673   5.919  12.860 -2.3821 -1.1240  0.6344
16585TIP3   OH271169   2.563   2.099   5.834  0.6737  0.5604  0.2297
16585TIP3    H171170   2.550   2.179   5.884 -2.6483  1.0415 -1.1968
16585TIP3    H271171   2.586   2.129   5.746 -1.5947  0.0684 -0.5803
16586TIP3   OH271172   3.019   4.506   6.354 -0.0479 -0.2862 -0.0929
16586TIP3    H171173   3.021   4.415   6.384 -1.3198 -0.0469  0.7851
16586TIP3    H271174   2.950   4.547   6.405  1.3105  1.5139  0.4097
16587TIP3   OH271175   4.633   3.282  14.485 -0.4266  0.7349  0.7380
16587TIP3    H171176   4.690   3.263  14.559 -0.4384  2.2118  1.1540
16587TIP3    H271177   4.627   3.377  14.483  0.0714  0.7688 -1.5494
16588TIP3   OH271178   0.940   3.981  14.063  0.1485  0.1945 -0.5094
16588TIP3    H171179   1.008   3.932  14.109 -1.1767 -1.3498 -0.1026
16588TIP3    H271180   0.985   4.018  13.987  1.9572  1.2423  0.9760
16589TIP3   OH271181   1.415   2.097  11.415 -0.3639 -0.2038 -0.1007
16589TIP3    H171182   1.325   2.129  11.409 -0.5974 -1.1176 -2.1486
16589TIP3    H271183   1.449   2.104  11.326  0.3172 -3.4804 -0.1936
16590TIP3   OH271184   3.665   6.299  14.081  0.1811  0.4490  0.2823
16590TIP3    H171185   3.739   6.347  14.118 -1.5988  3.3121  0.3938
16590TIP3    H271186   3.603   6.291  14.154  1.0155 -3.8240  0.8329
16591TIP3   OH271187   0.708   3.383  15.021 -0.1270 -0.4580 -0.4520
16591TIP3    H171188   0.785   3.370  15.076  0.1397  1.1189 -0.4042
16591TIP3    H271189   0.650   3.311  15.044  1.0115 -1.2282  0.0827
16592TIP3   OH271190   0.193   6.480   0.542  0.0458  0.5375  0.1124
16592TIP3    H171191   0.285   6.479   0.516  0.8325  0.0819  2.6272
16592TIP3    H271192   0.181   6.565   0.583 -1.8571  2.3152 -3.6266
16593TIP3   OH271193   0.907   3.254   1.442 -0.0042  0.0378  0.4458
16593TIP3    H171194   0.968   3.312   1.396  0.3908 -0.8028 -0.1095
16593TIP3    H271195   0.821   3.293   1.427 -0.0726 -1.0275 -2.3096
16594TIP3   OH271196   2.259   4.387  12.761 -0.3343 -0.0965 -0.4068
16594TIP3    H171197   2.282   4.479  12.778 -0.3665 -0.0520 -0.6053
16594TIP3    H271198   2.299   4.368  12.676  1.2091 -0.7958  0.4409
16595TIP3   OH271199   1.771   4.811   2.411 -0.2779  0.5836  0.0301
16595TIP3    H171200   1.806   4.892   2.448 -0.0111  0.2084  0.6194
16595TIP3    H271201   1.732   4.837   2.328  0.1719  1.2454  0.0196
16596TIP3   OH271202   3.723   1.419  14.575 -0.2582 -0.1990 -1.0475
16596TIP3    H171203   3.639   1.383  14.549  0.4471 -2.3534 -0.5426
16596TIP3    H271204   3.746   1.480  14.504 -0.6705 -2.1872 -3.0197
16597TIP3   OH271205   1.627   6.217  14.055  0.6931 -0.2704  0.1859
16597TIP3    H171206   1.681   6.279  14.007  1.6587 -1.5931 -0.4774
16597TIP3    H271207   1.553   6.199  13.997  1.0094 -0.6011 -0.1234
16598TIP3   OH271208   3.370   6.180   5.655  0.0824 -0.2360 -0.7373
16598TIP3    H171209   3.341   6.157   5.743 -0.8310  0.7620 -0.7522
16598TIP3    H271210   3.327   6.117   5.598 -1.8346  0.9664 -0.7169
16599TIP3   OH271211   1.650   0.325  13.434 -0.6840  0.3274 -0.0808
16599TIP3    H171212   1.649   0.262  13.506  1.9280  0.9202  0.5965
16599TIP3    H271213   1.595   0.397  13.464 -1.6168 -0.4864  0.2278
16600TIP3   OH271214   4.263   0.651   5.205 -0.3325 -0.1898  0.2318
16600TIP3    H171215   4.180   0.616   5.237 -1.9476  1.6605 -1.6214
16600TIP3    H271216   4.255   0.650   5.110  1.6734  0.2889  0.0090
16601TIP3   OH271217   1.834   0.120   4.548 -0.3630  0.8661 -0.7590
16601TIP3    H171218   1.924   0.150   4.563 -0.1523 -0.3123  0.6261
16601TIP3    H271219   1.779   0.192   4.579  0.1204  0.8892  0.0953
16602TIP3   OH271220   3.825   1.253   1.963  0.6808 -0.5861  0.5664
16602TIP3    H171221   3.909   1.258   1.917  0.1740 -0.2558 -0.3451
16602TIP3    H271222   3.767   1.209   1.901 -0.7063  2.1068 -0.2063
16603TIP3   OH271223   3.940   0.140  14.572  0.5447 -0.0506 -0.2289
16603TIP3    H171224   4.007   0.092  14.523 -0.1988 -2.9021  1.3444
16603TIP3    H271225   3.989   0.202  14.625  1.9047 -1.3573  0.1080
16604TIP3   OH271226   1.394   4.594   1.834 -0.1461  0.3481 -0.1435
16604TIP3    H171227   1.473   4.540   1.832 -1.5109 -1.7702 -0.3400
16604TIP3    H271228   1.408   4.660   1.767  1.6511  0.3376  0.1683
16605TIP3   OH271229   3.491   1.808  14.236  0.2440 -0.3273 -0.0242
16605TIP3    H171230   3.434   1.746  14.190 -1.2356  0.8935  0.0992
16605TIP3    H271231   3.528   1.757  14.308  1.5090 -1.8859 -1.6604
16606TIP3   OH271232   1.431   5.615   3.842  0.1389  0.8488  0.1901
16606TIP3    H171233   1.415   5.697   3.796  0.1426  0.0640 -1.2947
16606TIP3    H271234   1.347   5.595   3.885  0.1981  1.7049  0.7311
16607TIP3   OH271235   1.115   5.937  15.306 -0.6027  0.5105 -0.1876
16607TIP3    H171236   1.077   5.983  15.231  1.6441  0.8114 -1.2216
16607TIP3    H271237   1.210   5.946  15.295 -0.1665 -0.0191  2.3405
16608TIP3   OH271238   3.460   0.463  13.548 -0.2714  0.3003 -0.0164
16608TIP3    H171239   3.540   0.421  13.518 -0.7506  0.6160 -1.8331
16608TIP3    H271240   3.446   0.427  13.636  1.3975 -0.3764  0.0062
16609TIP3   OH271241   2.024   4.380  15.252  0.1791 -0.1416 -0.0699
16609TIP3    H171242   1.953   4.362  15.191 -0.1632 -1.6295  0.7111
16609TIP3    H271243   2.103   4.348  15.208  0.6905  2.8716 -1.5814
16610TIP3   OH271244   5.121   3.482  13.741  0.4502 -0.3276 -0.1928
16610TIP3    H171245   5.083   3.394  13.748 -1.0339  0.3116  0.1965
16610TIP3    H271246   5.086   3.517  13.659 -1.4151  0.9677  1.0802
16611TIP3   OH271247   2.004   3.447  11.555  0.0426  0.0655 -0.2837
16611TIP3    H171248   2.071   3.382  11.576 -0.6162 -1.2178 -1.8527
16611TIP3    H271249   2.041   3.496  11.481  0.7770  1.9362  1.2569
16612TIP3   OH271250   2.356   5.872  11.744  0.1765 -0.0938 -0.0566
16612TIP3    H171251   2.285   5.933  11.762  0.8473  0.7611 -0.2526
16612TIP3    H271252   2.380   5.836  11.829  0.1737  0.3709  0.1417
16613TIP3   OH271253   3.521   3.521   5.275  0.1347 -0.1881  0.0708
16613TIP3    H171254   3.456   3.455   5.299  0.3277  0.0548  1.3355
16613TIP3    H271255   3.525   3.579   5.351  1.4295  0.1157 -0.2059
16614TIP3   OH271256   4.935   1.667   3.947  0.4676  0.9405  0.3993
16614TIP3    H171257   4.860   1.727   3.947  0.2714  0.7185  1.4913
16614TIP3    H271258   4.928   1.620   4.030  2.3249  1.5286  0.9395
16615TIP3   OH271259   5.103   6.620   0.027  0.6459  0.9950  0.0283
16615TIP3    H171260   5.150   6.691   0.071  1.2097  0.4971  0.2365
16615TIP3    H271261   5.067   6.660  -0.052 -0.5904  1.9726  1.0371
16616TIP3   OH271262   3.355   3.510   6.323  0.7466  0.0553  0.2540
16616TIP3    H171263   3.309   3.426   6.325  0.8996 -0.0358  0.0351
16616TIP3    H271264   3.375   3.529   6.415  0.6081 -0.0890  0.3136
16617TIP3   OH271265   0.585   2.667   4.913  0.0388  0.0175 -0.0869
16617TIP3    H171266   0.595   2.684   4.819  2.6726  0.2541  0.1686
16617TIP3    H271267   0.633   2.738   4.955 -0.9447 -0.1872  1.4749
16618TIP3   OH271268   3.268   1.163   1.931 -0.3242 -0.1864 -0.0003
16618TIP3    H171269   3.201   1.177   1.864  0.2346  0.4140 -0.4458
16618TIP3    H271270   3.255   1.072   1.959 -0.9806 -0.2405 -0.4558
16619TIP3   OH271271   1.551   5.755   1.538 -0.1166 -0.4893 -0.0530
16619TIP3    H171272   1.464   5.790   1.517  1.6628  3.0087 -2.7357
16619TIP3    H271273   1.578   5.709   1.459  1.3025  0.5317 -0.2097
16620TIP3   OH271274   1.930   2.276   0.839  0.2882 -0.3638  0.6560
16620TIP3    H171275   1.928   2.358   0.889  1.5496  0.4430 -0.5316
16620TIP3    H271276   1.842   2.268   0.802  0.6380  1.4495 -0.6886
16621TIP3   OH271277   5.499   2.900  15.630 -0.1687  0.1787 -0.0394
16621TIP3    H171278   5.487   2.977  15.575  0.3285 -0.3861 -0.9591
16621TIP3    H271279   5.454   2.829  15.583  0.1143 -0.2741  0.3593
16622TIP3   OH271280   0.552   0.112  10.356 -0.0656 -0.4126  0.1627
16622TIP3    H171281   0.563   0.099  10.450  0.0264  1.5880  0.4873
16622TIP3    H271282   0.463   0.081  10.338  0.1026 -1.2903  0.8006
16623TIP3   OH271283   0.590   2.202  13.150  0.3860  0.3485  0.3970
16623TIP3    H171284   0.576   2.287  13.108 -0.5929 -1.2664 -2.8664
16623TIP3    H271285   0.503   2.175  13.180  0.8096  0.7157  2.1099
16624TIP3   OH271286   2.252   1.958   2.791 -0.1087 -0.1411 -0.0664
16624TIP3    H171287   2.182   1.918   2.738 -1.1207  0.1877  0.9807
16624TIP3    H271288   2.298   1.884   2.830  1.1478 -0.4271 -1.9654
16625TIP3   OH271289   0.363   2.467   0.993 -0.1613 -0.2534 -0.4852
16625TIP3    H171290   0.300   2.448   1.062  1.5681  0.6634  1.4370
16625TIP3    H271291   0.321   2.534   0.939 -0.4829  1.1061  1.3704
16626TIP3   OH271292   3.386   0.333  16.584 -0.5983 -0.5016 -0.2697
16626TIP3    H171293   3.327   0.291  16.646 -0.3127 -1.3812 -0.5811
16626TIP3    H271294   3.369   0.427  16.595 -1.0440 -0.6730  0.6354
16627TIP3   OH271295   2.921   6.440   4.212  0.4538  0.0802  0.4301
16627TIP3    H171296   2.880   6.370   4.263 -0.4797  0.7862  0.6743
16627TIP3    H271297   2.879   6.520   4.243  0.8962  0.6711 -0.4524
16628TIP3   OH271298   3.781   2.973   2.889 -0.1338  0.0359 -0.0308
16628TIP3    H171299   3.733   3.034   2.833 -1.4449 -1.5417 -0.7054
16628TIP3    H271300   3.730   2.892   2.886  1.8581 -1.3056  0.3447
16629TIP3   OH271301   6.218   4.592   1.398  1.1695 -0.2510 -0.2457
16629TIP3    H171302   6.268   4.671   1.420  1.1402 -0.1975 -0.3687
16629TIP3    H271303   6.212   4.594   1.303 -0.3090  0.5023 -0.1564
16630TIP3   OH271304   2.187   6.168  12.521 -0.4990 -0.6023  0.1218
16630TIP3    H171305   2.149   6.150  12.436 -0.4124 -1.7258  0.3049
16630TIP3    H271306   2.132   6.237  12.558 -0.8328 -0.4562 -0.6323
16631TIP3   OH271307   2.809   0.553  14.281 -0.6435 -0.1576  0.6667
16631TIP3    H171308   2.834   0.462  14.265 -1.6809 -0.8259  2.5691
16631TIP3    H271309   2.753   0.550  14.358  0.8872  2.3378  2.0166
16632TIP3   OH271310   3.134   0.957  15.191  0.1531  0.0226  0.2712
16632TIP3    H171311   3.153   0.868  15.219  1.3184 -0.0008 -0.5355
16632TIP3    H271312   3.206   1.010  15.226  0.5291  0.3155 -0.8956
16633TIP3   OH271313   4.485   4.837  11.379 -0.3964 -0.2171 -0.4233
16633TIP3    H171314   4.532   4.911  11.419 -1.0953 -0.5403  1.0597
16633TIP3    H271315   4.520   4.760  11.424 -0.0954 -0.7529 -1.5538
16634TIP3   OH271316   6.435   4.708   6.601  0.8707 -0.1398  0.8008
16634TIP3    H171317   6.516   4.722   6.553  0.0908  0.5744 -0.3511
16634TIP3    H271318   6.383   4.787   6.584 -0.7203 -1.2716  0.1606
16635TIP3   OH271319   2.577   1.507   3.586 -0.1723  0.1625 -0.0808
16635TIP3    H171320   2.582   1.516   3.491 -0.0154  3.5491  0.1271
16635TIP3    H271321   2.667   1.488   3.612  0.5619  2.7405 -0.4530
16636TIP3   OH271322   5.399   4.652  12.729 -0.2346  0.0232 -0.2933
16636TIP3    H171323   5.451   4.574  12.712  0.0451 -0.2896  1.7446
16636TIP3    H271324   5.341   4.627  12.800 -0.7406  1.4261 -0.1847
16637TIP3   OH271325   0.885   4.538  15.813 -0.3431  0.7676 -0.5635
16637TIP3    H171326   0.931   4.620  15.832  1.0888 -0.1671  0.2415
16637TIP3    H271327   0.928   4.504  15.735  0.4550 -0.1420  0.2307
16638TIP3   OH271328   5.688   0.103  16.333  0.1191 -0.6195 -0.1407
16638TIP3    H171329   5.615   0.053  16.370 -0.6479 -0.1513 -0.9725
16638TIP3    H271330   5.698   0.177  16.392  0.1077 -0.8329  0.1317
16639TIP3   OH271331   3.250   1.152  14.946  0.5998 -0.3498 -0.0564
16639TIP3    H171332   3.314   1.212  14.909  0.3009 -0.1418 -0.2395
16639TIP3    H271333   3.190   1.208  14.995  1.2629 -0.6634  1.1609
16640TIP3   OH271334   3.127   2.301   4.728  0.1688 -0.0021  0.2919
16640TIP3    H171335   3.115   2.391   4.758 -1.5049 -0.1100  0.0785
16640TIP3    H271336   3.085   2.248   4.796  1.6299 -0.6792  0.6974
16641TIP3   OH271337   4.399   6.690   2.432 -0.0865  0.2089  0.0951
16641TIP3    H171338   4.399   6.781   2.402  1.4730 -0.2476 -1.4030
16641TIP3    H271339   4.445   6.641   2.364 -0.3762 -1.6342  1.1385
16642TIP3   OH271340   2.529   3.127  14.626 -0.0175 -0.3736  0.3793
16642TIP3    H171341   2.500   3.141  14.536 -0.2487 -0.1758  0.4831
16642TIP3    H271342   2.593   3.056  14.620  0.6048  0.2093 -0.0587
16643TIP3   OH271343   1.442   6.116  12.826  0.1046 -0.3324  0.2084
16643TIP3    H171344   1.529   6.093  12.858  0.4467 -0.0007 -0.4388
16643TIP3    H271345   1.437   6.075  12.740  0.4301  1.2949 -0.6384
16644TIP3   OH271346   0.940   6.553  11.591  0.1008 -0.4063  0.0627
16644TIP3    H171347   0.907   6.594  11.511 -1.8539 -2.1379 -0.1029
16644TIP3    H271348   1.018   6.505  11.564 -0.5575 -0.9932 -0.8354
16645TIP3   OH271349   1.888   6.554   0.721  0.1365 -0.0518  0.4671
16645TIP3    H171350   1.971   6.556   0.769 -0.4159  0.6563  1.4342
16645TIP3    H271351   1.830   6.500   0.776  0.4201 -1.9941 -1.0331
16646TIP3   OH271352   5.998   0.745  12.962  0.1931  0.2055 -0.0994
16646TIP3    H171353   6.043   0.830  12.963  0.3804  0.1112  1.5189
16646TIP3    H271354   5.981   0.729  12.869  1.8552  1.1107 -0.6089
16647TIP3   OH271355   5.573   5.375  10.623 -0.1325  0.0284 -0.2175
16647TIP3    H171356   5.643   5.417  10.573 -0.9387  1.3707 -0.2837
16647TIP3    H271357   5.600   5.283  10.630  2.3347  0.7618  1.0198
16648TIP3   OH271358   0.235   3.115  16.514  0.5067 -0.2652  0.6437
16648TIP3    H171359   0.173   3.043  16.521  0.5531 -0.1318  3.1971
16648TIP3    H271360   0.238   3.154  16.601  0.6291  2.7481 -0.5816
16649TIP3   OH271361   5.117   0.579   3.211 -0.6401 -0.8882 -0.3028
16649TIP3    H171362   5.067   0.544   3.284  0.4210 -0.1610  0.8162
16649TIP3    H271363   5.202   0.536   3.217 -0.1759 -0.0220 -0.4153
16650TIP3   OH271364   5.216   0.854  11.861 -0.2956  0.0615 -0.4570
16650TIP3    H171365   5.147   0.881  11.922 -0.1240 -0.3107 -0.0923
16650TIP3    H271366   5.205   0.911  11.785 -0.1327  0.9389  0.1683
16651TIP3   OH271367   3.658   5.598  14.280  0.7081  0.5108 -0.3832
16651TIP3    H171368   3.612   5.517  14.260 -0.1015  1.1108 -1.0468
16651TIP3    H271369   3.729   5.572  14.338  0.3574 -0.6415 -0.4476
16652TIP3   OH271370   5.620   6.547  13.525 -0.4984  0.6230 -0.2126
16652TIP3    H171371   5.631   6.562  13.619  1.4040 -1.0674 -0.0919
16652TIP3    H271372   5.638   6.632  13.485  1.2142  0.8204  0.8501
16653TIP3   OH271373   3.177   2.824   2.687  0.5154  0.0205  0.4572
16653TIP3    H171374   3.271   2.811   2.702  0.2826  0.0812  2.1030
16653TIP3    H271375   3.163   2.917   2.705 -0.0697 -0.2491  1.3912
16654TIP3   OH271376   0.313   1.925  13.149  0.0184  0.6103 -0.1126
16654TIP3    H171377   0.274   2.002  13.109 -1.1445  0.0663 -0.0710
16654TIP3    H271378   0.404   1.925  13.118 -0.6706  0.5304 -2.3324
16655TIP3   OH271379   2.527   5.489   3.529 -0.2960 -0.4769  0.0585
16655TIP3    H171380   2.442   5.533   3.530 -0.4016 -0.6718  1.4117
16655TIP3    H271381   2.584   5.546   3.581  0.3008 -0.5398 -0.5194
16656TIP3   OH271382   4.490   2.959   0.052  0.5930 -0.4123  0.0287
16656TIP3    H171383   4.572   2.961   0.003  0.1072 -1.5065 -0.8785
16656TIP3    H271384   4.440   3.034   0.019  1.1348  0.1586  0.4682
16657TIP3   OH271385   5.351   2.061  16.585  0.2099  0.1704 -0.0305
16657TIP3    H171386   5.364   2.102  16.500 -1.0389  0.3627 -0.1418
16657TIP3    H271387   5.402   1.980  16.580  1.9660  1.2191 -0.1322
16658TIP3   OH271388   4.628   6.020  11.825 -0.4913 -0.3145 -0.0531
16658TIP3    H171389   4.694   5.953  11.808 -2.3941 -1.9872 -1.3454
16658TIP3    H271390   4.642   6.085  11.756  1.3467  0.6904  1.1867
16659TIP3   OH271391   4.504   6.155  13.875 -0.3412  0.1587 -0.4094
16659TIP3    H171392   4.511   6.111  13.790 -0.8679  0.8081 -0.7995
16659TIP3    H271393   4.449   6.098  13.928 -1.2151  0.4552 -0.9861
16660TIP3   OH271394   6.445   5.357  15.502 -0.0379 -0.2593 -0.3794
16660TIP3    H171395   6.395   5.293  15.552  3.2691 -3.3370 -0.5895
16660TIP3    H271396   6.504   5.397  15.566  1.3564 -1.1849 -1.0391
16661TIP3   OH271397   0.184   5.932  10.858 -0.1183 -0.5136 -0.4118
16661TIP3    H171398   0.145   5.884  10.785 -2.9641  1.0623 -0.0746
16661TIP3    H271399   0.229   6.005  10.817  0.8066 -1.2129 -0.6906
16662TIP3   OH271400   1.941   0.910   4.414 -0.4185  0.6518  0.2855
16662TIP3    H171401   1.935   0.989   4.469 -2.0545  1.4345 -0.9292
16662TIP3    H271402   1.858   0.908   4.366  0.4416 -0.6695 -1.2467
16663TIP3   OH271403   1.000   5.704  10.578  0.3711  0.5291 -0.0946
16663TIP3    H171404   1.073   5.701  10.515 -1.5984  0.5259 -2.5233
16663TIP3    H271405   1.007   5.622  10.626  2.4528  0.9117  0.3637
16664TIP3   OH271406   6.696   3.186  14.827  0.1570 -0.1478 -0.4368
16664TIP3    H171407   6.770   3.125  14.832  0.9726  0.8697  0.1328
16664TIP3    H271408   6.647   3.170  14.907  0.0982 -0.3787 -0.5165
16665TIP3   OH271409   4.016   5.445   2.419  0.3098  0.1913  0.4526
16665TIP3    H171410   3.936   5.491   2.443 -0.0451  0.1442 -0.5877
16665TIP3    H271411   4.069   5.444   2.499  0.1140  1.9609  0.6251
16666TIP3   OH271412   4.237   2.767   5.373  0.1476 -0.2654 -0.1997
16666TIP3    H171413   4.176   2.841   5.366  0.8421  0.7166  2.7592
16666TIP3    H271414   4.205   2.704   5.308 -2.0498  1.5374 -1.0211
16667TIP3   OH271415   0.172   1.645  14.854 -0.2057  0.6365  0.5952
16667TIP3    H171416   0.136   1.586  14.919 -2.0074  1.1641  0.1407
16667TIP3    H271417   0.217   1.713  14.904  1.9516 -1.0738  1.1171
16668TIP3   OH271418   1.673   1.876  13.881  0.2442 -0.4878 -0.1033
16668TIP3    H171419   1.634   1.952  13.839 -0.4913 -0.3567  0.7956
16668TIP3    H271420   1.599   1.823  13.910  0.7460 -1.3735 -0.3899
16669TIP3   OH271421   6.175   5.800   4.627 -0.8819 -0.0453  0.2761
16669TIP3    H171422   6.209   5.711   4.633 -2.1717 -0.6094 -0.3149
16669TIP3    H271423   6.079   5.790   4.628 -1.1211  1.5413  2.9406
16670TIP3   OH271424   4.987   1.997  12.025 -0.1333  0.3684 -0.4157
16670TIP3    H171425   5.079   2.003  11.999 -0.0264  1.0633  0.0775
16670TIP3    H271426   4.988   2.021  12.118 -0.7175 -0.3749 -0.2125
16671TIP3   OH271427   5.073   5.320   3.722  0.1583  0.1828 -0.4386
16671TIP3    H171428   5.015   5.390   3.752 -0.2246  1.0821 -3.0580
16671TIP3    H271429   5.016   5.244   3.712  0.1787  0.0377  0.4409
16672TIP3   OH271430   0.277   4.731  13.725  0.1568 -0.3386 -0.4499
16672TIP3    H171431   0.300   4.795  13.658  0.4021 -0.5899 -0.6054
16672TIP3    H271432   0.347   4.739  13.791 -0.3582  0.2738  0.0368
16673TIP3   OH271433   1.603   6.622  13.750 -0.2462  0.1689  0.1027
16673TIP3    H171434   1.535   6.654  13.809 -1.9386 -0.2712 -1.4979
16673TIP3    H271435   1.560   6.618  13.664  1.7500 -0.3549 -0.9427
16674TIP3   OH271436   1.228   3.031  14.408 -0.5985 -0.4211 -0.1738
16674TIP3    H171437   1.196   2.953  14.363 -1.3092 -0.0611 -0.3109
16674TIP3    H271438   1.155   3.093  14.403 -1.4635 -1.0173  3.1135
16675TIP3   OH271439   4.705   0.014   2.549  0.5397 -0.0611 -0.0627
16675TIP3    H171440   4.650  -0.063   2.562  0.1655 -0.0144 -1.2373
16675TIP3    H271441   4.718   0.018   2.454 -0.9234  2.3061 -0.2441
16676TIP3   OH271442   4.159   4.689   4.547 -0.0912 -0.6559  0.3359
16676TIP3    H171443   4.111   4.607   4.550 -2.1676 -0.0690 -5.0912
16676TIP3    H271444   4.244   4.667   4.509 -0.4073 -0.4518 -0.5206
16677TIP3   OH271445   1.501   5.999  11.859  0.4175 -0.2766 -0.3937
16677TIP3    H171446   1.492   6.090  11.886 -0.5057 -0.4479 -0.0939
16677TIP3    H271447   1.413   5.963  11.865  0.8083 -1.2531 -0.2843
16678TIP3   OH271448   1.277   6.313   5.243 -0.4786  0.4424 -0.3862
16678TIP3    H171449   1.272   6.230   5.196  3.6097 -0.7161  0.8491
16678TIP3    H271450   1.317   6.374   5.181 -1.1269  0.8035 -0.4612
16679TIP3   OH271451   1.871   3.657  12.753 -0.1160  0.5388  0.1651
16679TIP3    H171452   1.882   3.746  12.788 -0.9563  1.5022 -1.8992
16679TIP3    H271453   1.783   3.656  12.717  1.4184  0.4710 -4.0630
16680TIP3   OH271454   6.148   6.708  14.824 -0.3300  0.4442 -0.5609
16680TIP3    H171455   6.181   6.725  14.912 -1.8417  1.7389 -0.2040
16680TIP3    H271456   6.083   6.639  14.835 -0.8925  0.9658 -0.5694
16681TIP3   OH271457   0.460   0.477  11.640 -0.2116 -0.1847 -0.3226
16681TIP3    H171458   0.548   0.440  11.653  0.3867  1.8130  2.1246
16681TIP3    H271459   0.475   0.565  11.607 -1.3783 -0.2200 -1.0074
16682TIP3   OH271460   6.251   1.243  12.668 -0.5134  0.4740  0.1559
16682TIP3    H171461   6.171   1.201  12.699  0.2919 -0.8322  0.5777
16682TIP3    H271462   6.309   1.170  12.648  0.2314  1.3779 -1.0771
16683TIP3   OH271463   5.367   2.647   6.790 -0.4599 -0.1691  0.2110
16683TIP3    H171464   5.286   2.627   6.745 -0.0101 -0.6129 -0.4220
16683TIP3    H271465   5.374   2.743   6.786 -0.8641 -0.1430  0.1213
16684TIP3   OH271466   1.291   5.776   4.110  0.1171  0.5683 -0.0469
16684TIP3    H171467   1.294   5.840   4.038 -0.9816  0.5067 -0.1602
16684TIP3    H271468   1.247   5.700   4.072  0.0409  0.3214  0.5318
16685TIP3   OH271469   6.087   2.103  14.515 -0.4464 -0.4193 -0.3615
16685TIP3    H171470   6.135   2.168  14.567 -0.2928  0.5808 -1.6905
16685TIP3    H271471   6.104   2.020  14.559 -0.9168  0.4447  1.5995
16686TIP3   OH271472   6.536   2.752   3.596  0.7302  0.6188 -0.4832
16686TIP3    H171473   6.447   2.732   3.625  1.3008 -0.2910  0.7056
16686TIP3    H271474   6.565   2.674   3.550  1.9867 -0.3581  1.8121
16687TIP3   OH271475   5.679   5.442  15.797 -0.0126  0.4288  0.2353
16687TIP3    H171476   5.703   5.415  15.886 -0.7240  2.4910  1.1168
16687TIP3    H271477   5.737   5.391  15.740 -0.4818 -1.9700  1.7684
16688TIP3   OH271478   6.510   5.298  10.957 -0.0857 -0.1575 -0.2747
16688TIP3    H171479   6.416   5.282  10.962 -0.1700  0.1352 -0.7935
16688TIP3    H271480   6.517   5.379  10.905  0.5477 -1.4686 -2.3507
16689TIP3   OH271481   0.346   2.957  13.862 -0.3028  0.4585 -0.2224
16689TIP3    H171482   0.379   3.019  13.797  0.4906  0.0930 -0.1801
16689TIP3    H271483   0.299   3.012  13.925 -0.0709  0.9503 -0.4669
16690TIP3   OH271484   0.540   3.405   0.779 -0.0902  0.2914 -0.2760
16690TIP3    H171485   0.612   3.350   0.809  0.1537  0.1596 -1.0929
16690TIP3    H271486   0.494   3.352   0.713 -0.3270  0.7614 -0.4977
16691TIP3   OH271487   0.353   5.799   2.901 -0.6075  0.3792  0.2105
16691TIP3    H171488   0.289   5.850   2.851 -1.5680 -0.1832  0.8185
16691TIP3    H271489   0.437   5.840   2.883 -1.4473  2.7938  1.4413
16692TIP3   OH271490   0.262   3.193  10.675  0.5127 -0.2433  0.0467
16692TIP3    H171491   0.239   3.242  10.596  0.8270  1.8247  1.1648
16692TIP3    H271492   0.356   3.208  10.686  1.1720 -3.1333 -0.8530
16693TIP3   OH271493   2.184   2.834  16.475 -0.0147  0.0041  0.1117
16693TIP3    H171494   2.090   2.845  16.490 -0.1932 -1.1384 -0.0461
16693TIP3    H271495   2.191   2.747  16.434  1.2150 -0.4740  1.2755
16694TIP3   OH271496   1.715   2.808   2.135 -0.2899  0.0375  0.6832
16694TIP3    H171497   1.809   2.821   2.148 -0.4547  0.8942  1.0621
16694TIP3    H271498   1.680   2.793   2.222 -0.3933 -1.1118  0.4548
16695TIP3   OH271499   2.421   3.717   5.061 -0.5253  0.3873  0.4920
16695TIP3    H171500   2.452   3.755   4.978 -2.0615 -0.1134 -0.3584
16695TIP3    H271501   2.486   3.649   5.082  0.3438  1.0977  0.1635
16696TIP3   OH271502   4.296   2.538  12.216 -0.3888  0.4065 -0.2804
16696TIP3    H171503   4.366   2.598  12.242 -1.6099  1.8195 -0.1339
16696TIP3    H271504   4.341   2.468  12.168  1.0260  1.6519 -0.8371
16697TIP3   OH271505   1.992   4.180  16.392  0.0363  0.3829  0.3172
16697TIP3    H171506   1.952   4.172  16.306 -0.0598 -0.6283  0.4472
16697TIP3    H271507   2.086   4.183  16.375  0.0588 -0.5518  0.2071
16698TIP3   OH271508   4.836   0.414  13.045  0.2943  0.4384  0.3683
16698TIP3    H171509   4.812   0.439  12.956 -1.1424 -0.9387  0.3369
16698TIP3    H271510   4.770   0.457  13.100 -0.2405 -0.6153  0.5661
16699TIP3   OH271511   6.008   3.544  12.484  0.4826  0.1404 -0.1330
16699TIP3    H171512   5.992   3.608  12.415 -0.8612  0.5712  0.5393
16699TIP3    H271513   5.929   3.546  12.538  0.6875 -1.5910  0.3108
16700TIP3   OH271514   5.485   1.572  17.077 -0.2284  0.3701 -0.1584
16700TIP3    H171515   5.412   1.562  17.015  0.6198  0.6113 -1.2191
16700TIP3    H271516   5.484   1.664  17.102 -0.0529  0.4547 -0.4655
16701TIP3   OH271517   2.939   5.827  15.422 -0.1708 -0.0203  0.2971
16701TIP3    H171518   2.931   5.767  15.348  0.8095  0.8663 -0.5781
16701TIP3    H271519   3.027   5.864  15.413 -0.0785  0.2076  1.8487
16702TIP3   OH271520   4.069   0.483   0.261 -0.2573  0.6200 -0.6517
16702TIP3    H171521   4.163   0.497   0.275 -0.5690  2.8824 -0.4891
16702TIP3    H271522   4.031   0.486   0.349 -0.6540  1.4307 -0.8370
16703TIP3   OH271523   5.765   6.741  14.000  0.0938 -0.0795  0.1761
16703TIP3    H171524   5.707   6.783  14.063  0.5822  0.4397  0.2890
16703TIP3    H271525   5.848   6.729  14.048 -0.1255 -1.4825  0.2579
16704TIP3   OH271526   3.268   4.478  11.569  0.5916 -0.0136  0.3578
16704TIP3    H171527   3.290   4.415  11.637  0.5172  0.3380  0.7108
16704TIP3    H271528   3.327   4.552  11.584  1.6000 -0.5191 -0.8548
16705TIP3   OH271529   3.805   6.388  11.428  0.7174  0.1975 -0.1284
16705TIP3    H171530   3.769   6.361  11.512  0.0848  1.1360 -0.0757
16705TIP3    H271531   3.852   6.312  11.396 -1.5483 -1.2083 -0.3325
16706TIP3   OH271532   2.114   5.355  16.442 -0.3147 -0.0744  0.0377
16706TIP3    H171533   2.127   5.383  16.351 -1.2499  3.1242  0.7752
16706TIP3    H271534   2.149   5.266  16.444  2.6453  0.8227 -2.7263
16707TIP3   OH271535   3.364   6.147   2.085  0.4864 -0.3063  0.6770
16707TIP3    H171536   3.334   6.086   2.152 -0.1376 -1.2751 -0.4582
16707TIP3    H271537   3.444   6.185   2.121  0.2397 -0.9123  1.8981
16708TIP3   OH271538   0.257   6.595  16.168 -0.0350 -0.1635  1.0300
16708TIP3    H171539   0.179   6.555  16.130 -0.7595 -0.3815  2.6874
16708TIP3    H271540   0.324   6.527  16.162  0.7520  0.6769 -2.2933
16709TIP3   OH271541   4.127   6.527  11.693 -0.1618 -0.9000 -0.5198
16709TIP3    H171542   4.167   6.577  11.764  0.0436  0.4097 -1.5232
16709TIP3    H271543   4.043   6.570  11.677 -0.8219 -2.0171 -0.1950
16710TIP3   OH271544   3.548   3.543  10.847  0.2195  0.1366 -0.3945
16710TIP3    H171545   3.473   3.523  10.791  0.2422  1.9938 -1.1675
16710TIP3    H271546   3.594   3.613  10.801  1.9174 -0.3115  0.5276
16711TIP3   OH271547   1.672   0.328  16.388  0.1292 -0.4382  0.2995
16711TIP3    H171548   1.611   0.343  16.461 -0.7159  1.4377 -0.7154
16711TIP3    H271549   1.615   0.311  16.313  0.9089  0.0940 -0.4212
16712TIP3   OH271550   0.366   2.022  14.522  1.1644 -0.0397 -0.2680
16712TIP3    H171551   0.438   1.965  14.494  1.4881  1.1481 -2.0102
16712TIP3    H271552   0.377   2.102  14.471  0.4061  1.4110  1.6933
16713TIP3   OH271553   5.380   5.832  12.217 -0.4146  0.4949  0.0899
16713TIP3    H171554   5.393   5.738  12.232 -1.4165 -0.4021 -3.5445
16713TIP3    H271555   5.469   5.868  12.217  0.0424 -0.5738  0.9311
16714TIP3   OH271556   6.450   6.599   1.580  0.1889  0.4387  0.1443
16714TIP3    H171557   6.363   6.579   1.614 -0.2291  0.2603 -0.9807
16714TIP3    H271558   6.487   6.513   1.558 -0.3035  0.6291 -1.5847
16715TIP3   OH271559   3.121   4.439  16.101  0.0705  0.5794  0.2817
16715TIP3    H171560   3.196   4.495  16.083  0.5629 -0.4156 -0.9272
16715TIP3    H271561   3.051   4.475  16.047  0.2757  0.2828 -0.1912
16716TIP3   OH271562   0.993   5.078  11.036 -0.0921 -0.3772  0.1020
16716TIP3    H171563   1.031   5.001  11.079  0.6404  0.2399  0.5814
16716TIP3    H271564   0.923   5.042  10.982  1.2255 -1.5723 -0.9014
16717TIP3   OH271565   3.124   5.875  11.224 -0.5639 -0.3341  0.1015
16717TIP3    H171566   3.167   5.960  11.210  0.4871 -0.4670  2.0704
16717TIP3    H271567   3.103   5.844  11.136  0.8393  1.0632 -0.7930
16718TIP3   OH271568   3.383   1.985  16.496 -0.0319 -0.4454  0.1707
16718TIP3    H171569   3.390   2.054  16.431 -1.2716  0.1879  0.6686
16718TIP3    H271570   3.440   2.013  16.568  0.0146 -0.2904  0.0722
16719TIP3   OH271571   3.754   1.832   3.626 -0.0931 -0.8671 -0.2639
16719TIP3    H171572   3.704   1.792   3.555 -1.4787 -0.8829  0.6975
16719TIP3    H271573   3.792   1.911   3.587 -2.3987  0.1699 -0.5550
16720TIP3   OH271574   1.580   3.798   0.405  0.6499 -0.3170  0.6287
16720TIP3    H171575   1.594   3.843   0.322 -0.5552 -1.8697 -0.4599
16720TIP3    H271576   1.578   3.705   0.382 -1.3853 -0.7057  2.1254
16721TIP3   OH271577   3.114   1.227  14.154  0.1323 -0.8050 -0.2545
16721TIP3    H171578   3.049   1.205  14.221  0.7647 -0.5700  0.4582
16721TIP3    H271579   3.063   1.239  14.074 -0.6543 -1.0042  0.2052
16722TIP3   OH271580   2.501   2.339  12.087  0.2282  0.3258  0.4050
16722TIP3    H171581   2.479   2.419  12.040  0.5366  0.0998 -0.1341
16722TIP3    H271582   2.481   2.358  12.179 -2.2051  0.1492 -0.0232
16723TIP3   OH271583   3.663   4.615   4.836  0.5667 -0.3030  0.2406
16723TIP3    H171584   3.739   4.671   4.821 -0.7498  0.8457 -3.0805
16723TIP3    H271585   3.591   4.676   4.851 -0.6592 -1.0373 -2.1757
16724TIP3   OH271586   4.120   5.945   2.565  0.1012 -0.7311 -0.1084
16724TIP3    H171587   4.099   6.037   2.551  0.2611 -0.7100 -0.2155
16724TIP3    H271588   4.035   5.903   2.577  0.0572 -0.4944  0.4045
16725TIP3   OH271589   6.430   1.097   3.500  0.9164 -0.2168  0.1772
16725TIP3    H171590   6.343   1.123   3.530 -0.3342 -2.8865 -0.7866
16725TIP3    H271591   6.453   1.161   3.433 -0.3698  0.4797  0.3897
16726TIP3   OH271592   3.460   1.992  13.196  0.2711  0.3516 -0.2757
16726TIP3    H171593   3.448   1.949  13.280 -0.9738 -2.6406 -1.8277
16726TIP3    H271594   3.397   2.064  13.196  0.2102  0.3134  1.2865
16727TIP3   OH271595   0.363   0.883   3.967  0.0454  0.0710 -0.2041
16727TIP3    H171596   0.397   0.843   3.887 -1.7570  0.3324 -1.1462
16727TIP3    H271597   0.307   0.955   3.936 -2.1743 -0.9520  1.1704
16728TIP3   OH271598   2.548   2.103   2.961 -0.1910 -0.2157  0.3367
16728TIP3    H171599   2.585   2.179   3.008  0.6047 -1.1468  1.2619
16728TIP3    H271600   2.466   2.136   2.925 -0.9040  0.5381  2.4719
16729TIP3   OH271601   2.011   3.165  14.523 -0.6515  0.9026  0.3293
16729TIP3    H171602   2.032   3.200  14.436 -0.4929 -0.0929 -0.0481
16729TIP3    H271603   1.933   3.111  14.508  0.3946 -0.6888  0.4538
16730TIP3   OH271604   5.385   4.813   4.814  0.6690  0.6293 -0.0879
16730TIP3    H171605   5.430   4.863   4.882  0.1173  2.1465 -0.8075
16730TIP3    H271606   5.455   4.788   4.753  0.7131  2.0207 -0.6221
16731TIP3   OH271607   2.482   6.653  11.658  0.6002  0.1451  0.1272
16731TIP3    H171608   2.389   6.674  11.665  0.6020 -0.0214  0.7403
16731TIP3    H271609   2.502   6.605  11.739  1.3185  0.5769  0.2169
16732TIP3   OH271610   6.234   0.026   1.990 -0.6298 -0.0671  0.0247
16732TIP3    H171611   6.259  -0.066   1.982  1.6360  0.4532  0.3023
16732TIP3    H271612   6.287   0.071   1.924  0.2989  1.3285  1.6254
16733TIP3   OH271613   5.801   4.140  11.608  0.2437 -0.2054  0.8512
16733TIP3    H171614   5.706   4.128  11.602  0.4039 -1.5904  0.7366
16733TIP3    H271615   5.813   4.234  11.619 -1.0925  0.0868 -0.0247
16734TIP3   OH271616   1.000   4.468  15.565 -0.4162 -0.4391  0.4613
16734TIP3    H171617   1.063   4.511  15.506 -0.8145 -1.0839 -0.4546
16734TIP3    H271618   0.936   4.428  15.506 -1.9022  0.5038  1.3784
16735TIP3   OH271619   2.946   2.257  12.431  0.2247  0.2991 -0.0831
16735TIP3    H171620   2.951   2.343  12.388  1.8249  0.7725  0.9490
16735TIP3    H271621   3.010   2.263  12.502  1.7943 -2.3874 -1.1251
16736TIP3   OH271622   0.087   0.430   2.642 -0.3790 -0.3355  0.0453
16736TIP3    H171623   0.030   0.389   2.576 -0.3591  1.8890 -1.4782
16736TIP3    H271624   0.053   0.519   2.651  1.3705  0.2848  0.9405
16737TIP3   OH271625   4.238   1.643   5.773  0.8698 -0.1105 -0.0651
16737TIP3    H171626   4.228   1.553   5.805 -2.0154  0.2038  0.2516
16737TIP3    H271627   4.255   1.634   5.679  0.5378 -0.9902 -0.0467
16738TIP3   OH271628   4.324   1.061  10.324 -0.5237  0.2774  0.6262
16738TIP3    H171629   4.300   0.973  10.297 -3.9001  1.5680 -1.0447
16738TIP3    H271630   4.264   1.082  10.396 -0.5326  1.5818  0.2667
16739TIP3   OH271631   4.532   0.678  11.064  0.1525 -0.0699  0.0369
16739TIP3    H171632   4.557   0.605  11.007 -1.7547  0.7503 -1.9621
16739TIP3    H271633   4.614   0.726  11.078  0.7312 -0.4665 -1.7604
16740TIP3   OH271634   0.075   1.747  13.515  0.0485  0.0228 -0.1576
16740TIP3    H171635   0.157   1.780  13.552 -0.0680  0.6076 -0.4020
16740TIP3    H271636   0.035   1.824  13.474 -1.0053 -0.0731  0.6442
16741TIP3   OH271637   2.584   2.961  12.630  0.2080  0.4184 -0.1949
16741TIP3    H171638   2.541   2.962  12.544 -1.0360 -0.9368  0.3715
16741TIP3    H271639   2.526   2.909  12.685  2.1500 -0.7280  0.8602
16742TIP3   OH271640   5.690   0.156  12.913  0.5465  0.3347 -0.1398
16742TIP3    H171641   5.610   0.105  12.899 -0.8129  1.0916  3.5946
16742TIP3    H271642   5.684   0.228  12.850  0.0313 -1.3713 -2.1531
16743TIP3   OH271643   6.362   4.008   0.600  0.3461  0.1609  0.0503
16743TIP3    H171644   6.296   4.076   0.609  0.3417  0.0716  0.7113
16743TIP3    H271645   6.410   4.032   0.521 -0.8363 -0.0799 -0.7723
16744TIP3   OH271646   2.379   3.208   3.564 -0.2979 -0.2021  0.0063
16744TIP3    H171647   2.424   3.124   3.575  1.6691  0.8459  0.2784
16744TIP3    H271648   2.444   3.265   3.525 -1.6714  1.1812 -0.3572
16745TIP3   OH271649   1.396   1.972  16.609  0.0240 -0.5438  0.6148
16745TIP3    H171650   1.331   1.918  16.563  0.0413  0.5194 -0.7164
16745TIP3    H271651   1.475   1.964  16.555 -0.5206  2.3623 -0.8234
16746TIP3   OH271652   2.957   4.096  12.086 -0.3888  0.5712  0.2078
16746TIP3    H171653   2.970   4.077  11.993 -0.6349  2.0847 -0.1549
16746TIP3    H271654   3.023   4.162  12.106 -2.2747  2.5465  0.2942
16747TIP3   OH271655   1.412   0.929  14.232  0.4336  0.5079 -0.5162
16747TIP3    H171656   1.336   0.967  14.277  0.1332 -0.1167 -0.4802
16747TIP3    H271657   1.447   1.001  14.179 -0.4353  0.6882 -0.8633
16748TIP3   OH271658   1.488   5.703   3.275 -0.0491  0.0502 -0.1452
16748TIP3    H171659   1.539   5.704   3.194  0.1107  3.0556 -0.1247
16748TIP3    H271660   1.504   5.789   3.314  0.2799 -1.4398  3.3785
16749TIP3   OH271661   4.511   5.455  12.188 -0.5536 -0.3782 -0.7560
16749TIP3    H171662   4.417   5.440  12.189 -0.7608  0.7947 -0.2423
16749TIP3    H271663   4.545   5.400  12.258 -0.9191 -0.4547 -0.6361
16750TIP3   OH271664   0.328   0.598   4.557 -0.4259  0.4636  0.1249
16750TIP3    H171665   0.342   0.599   4.462 -1.1766  1.1348  0.0119
16750TIP3    H271666   0.321   0.690   4.582  0.0892  0.3052  0.8874
16751TIP3   OH271667   0.768   6.424  11.770  0.5311  0.3244  1.1023
16751TIP3    H171668   0.829   6.446  11.699 -0.2312 -0.1169  0.2966
16751TIP3    H271669   0.810   6.350  11.814  0.4019 -0.2411  0.3012
16752TIP3   OH271670   0.481   4.593  11.798 -0.4628 -0.4385  0.4778
16752TIP3    H171671   0.515   4.667  11.849  0.0914 -0.8724  0.7406
16752TIP3    H271672   0.518   4.516  11.840  1.6173 -0.7559 -1.7229
16753TIP3   OH271673   3.288   5.580  15.561 -0.0622 -0.4041  0.1402
16753TIP3    H171674   3.207   5.536  15.535 -0.6648 -0.7318  2.3634
16753TIP3    H271675   3.344   5.509  15.593  0.5673 -0.0133 -0.0782
16754TIP3   OH271676   6.271   3.354  12.186  0.1083  0.1983 -0.1104
16754TIP3    H171677   6.286   3.426  12.246 -1.5699  0.0845  0.5046
16754TIP3    H271678   6.178   3.360  12.164 -0.5908 -2.8974  1.4950
16755TIP3   OH271679   5.446   2.657   4.028 -0.3234 -0.2396 -0.1035
16755TIP3    H171680   5.422   2.625   3.941 -1.3449  0.9985 -0.3009
16755TIP3    H271681   5.539   2.635   4.037  0.0200  0.3324 -1.8492
16756TIP3   OH271682   5.797   1.615   6.035 -0.0963  0.1916 -0.0796
16756TIP3    H171683   5.717   1.645   6.079 -1.3014 -0.3366 -1.7971
16756TIP3    H271684   5.852   1.582   6.106 -1.3667  0.6226  1.1646
16757TIP3   OH271685   1.319   6.321   4.214  0.4708  0.1672  0.2223
16757TIP3    H171686   1.266   6.242   4.202  1.4757 -0.6203  0.8440
16757TIP3    H271687   1.395   6.308   4.157  1.4381 -0.0634  1.5243
16758TIP3   OH271688   1.100   5.415   3.044  0.3738  0.5328  0.4517
16758TIP3    H171689   1.090   5.468   2.965 -0.3905 -0.8767 -0.4431
16758TIP3    H271690   1.018   5.367   3.051  0.5829  0.3331  1.9035
16759TIP3   OH271691   0.035   3.241   6.350 -0.2332  0.0148 -0.2573
16759TIP3    H171692  -0.044   3.210   6.393  0.4650  0.2511  1.2515
16759TIP3    H271693   0.004   3.289   6.274 -1.6488  1.5413  1.2068
16760TIP3   OH271694   4.711   0.076   3.677 -0.6627 -0.7146 -0.3970
16760TIP3    H171695   4.675   0.060   3.590 -0.9375  0.3350 -0.4927
16760TIP3    H271696   4.652   0.030   3.737 -0.0156 -2.1159 -0.8000
16761TIP3   OH271697   5.399   2.478  16.754  0.1608  0.5095  0.0864
16761TIP3    H171698   5.421   2.387  16.737 -0.0435  0.3416  0.6714
16761TIP3    H271699   5.313   2.490  16.712 -0.4108  0.0577  1.0786
16762TIP3   OH271700   5.073   1.720   3.595 -0.1890  0.3654 -0.0891
16762TIP3    H171701   5.111   1.719   3.683  1.3640  0.6213 -0.7313
16762TIP3    H271702   5.041   1.630   3.582 -0.8897  0.4441  0.8956
16763TIP3   OH271703   5.268   2.856  13.620  0.0099 -0.1332 -0.7225
16763TIP3    H171704   5.207   2.823  13.553 -0.4504 -0.0212 -0.3596
16763TIP3    H271705   5.323   2.919  13.573 -0.1630 -0.2222 -1.0470
16764TIP3   OH271706   5.899   5.849   1.658 -0.1578 -0.2894 -0.1848
16764TIP3    H171707   5.879   5.761   1.625  0.0090 -0.4451  0.1229
16764TIP3    H271708   5.896   5.905   1.581  0.5874 -0.7090 -0.5259
16765TIP3   OH271709   2.720   5.229   4.048  0.1482 -0.5025  0.2535
16765TIP3    H171710   2.785   5.159   4.041 -0.1542 -0.9547  1.5321
16765TIP3    H271711   2.690   5.225   4.139 -1.5641 -0.2075 -0.2503
16766TIP3   OH271712   1.758   2.450  16.362 -0.0330  0.1963  0.6227
16766TIP3    H171713   1.685   2.422  16.307 -1.1050 -0.3797  2.2363
16766TIP3    H271714   1.737   2.540  16.387 -0.3520 -0.0586  1.3040
16767TIP3   OH271715   4.965   1.477   1.215  0.4557 -0.1523  0.1256
16767TIP3    H171716   4.923   1.505   1.296 -0.6236  0.1427 -0.5082
16767TIP3    H271717   4.894   1.439   1.163  0.7372  1.3242 -1.4136
16768TIP3   OH271718   4.627   6.196  13.395 -0.0002 -0.6561 -0.1893
16768TIP3    H171719   4.613   6.162  13.307  1.1704  2.2188 -1.6253
16768TIP3    H271720   4.565   6.269  13.403  2.5527  1.7112 -0.3263
16769TIP3   OH271721   0.397   6.235  15.898  0.3711 -0.0244  0.2510
16769TIP3    H171722   0.428   6.203  15.813 -0.3870 -0.2259  0.0425
16769TIP3    H271723   0.475   6.236  15.953  0.5854 -1.3634  0.0053
16770TIP3   OH271724   5.176   1.726   5.810 -0.3315  0.7071  0.0556
16770TIP3    H171725   5.167   1.646   5.862 -0.3665  1.4790  1.2776
16770TIP3    H271726   5.149   1.700   5.722  1.9426 -1.2390 -0.1730
16771TIP3   OH271727   4.320   4.803   3.850 -0.2697 -0.3728  0.2964
16771TIP3    H171728   4.352   4.892   3.834 -0.4893 -0.7902 -3.1402
16771TIP3    H271729   4.399   4.753   3.868  0.0859  0.1298  0.1741
16772TIP3   OH271730   0.615   1.910  11.288 -0.2657 -0.3727  0.3643
16772TIP3    H171731   0.540   1.916  11.229  0.8965  1.6037 -1.0529
16772TIP3    H271732   0.673   1.845  11.247  0.2261  0.4885 -0.3388
16773TIP3   OH271733   0.834   5.678   5.431  0.6350 -0.6105 -0.5884
16773TIP3    H171734   0.854   5.585   5.439  0.2842 -0.5718  1.1067
16773TIP3    H271735   0.915   5.722   5.459  0.2848 -0.4408  0.2102
16774TIP3   OH271736   2.378   2.047  13.024  0.5965 -0.4054  0.0492
16774TIP3    H171737   2.422   2.034  13.108  0.6920 -0.2560  0.0230
16774TIP3    H271738   2.390   2.140  13.005 -2.7954  0.5413  1.7411
16775TIP3   OH271739   4.202   4.596  13.891  0.0278  0.1117  1.0569
16775TIP3    H171740   4.138   4.538  13.931 -0.1830  0.7744  1.7013
16775TIP3    H271741   4.270   4.606  13.958  0.4291  0.0152  0.6691
16776TIP3   OH271742   3.080   0.323   2.748  0.2512 -0.3757 -0.6138
16776TIP3    H171743   3.052   0.412   2.767  1.2533 -0.1591 -0.0775
16776TIP3    H271744   3.002   0.280   2.712 -0.6129  0.3336  0.3532
16777TIP3   OH271745   5.182   2.134   3.090  0.1899 -0.1356  0.2731
16777TIP3    H171746   5.177   2.204   3.025 -0.0404 -0.4086 -0.0057
16777TIP3    H271747   5.209   2.178   3.170 -0.4773  0.3564  0.2292
16778TIP3   OH271748   4.316   4.376  15.038 -0.5800 -0.4408 -0.1317
16778TIP3    H171749   4.240   4.347  14.987 -0.2982 -0.5231 -0.5056
16778TIP3    H271750   4.312   4.323  15.118 -1.2492 -0.0274  0.1183
16779TIP3   OH271751   4.540   1.535  16.384  0.3084  0.4459  1.1309
16779TIP3    H171752   4.527   1.461  16.442 -2.6928 -0.2419 -0.2001
16779TIP3    H271753   4.561   1.608  16.442  1.9294 -1.0750  2.5926
16780TIP3   OH271754   3.806   5.705  12.128 -0.1969  0.2466 -0.4199
16780TIP3    H171755   3.792   5.622  12.174 -0.7539  0.4785 -0.1596
16780TIP3    H271756   3.755   5.696  12.047  0.2819  0.0788 -0.7052
16781TIP3   OH271757   3.616   5.858  16.008 -0.5249  0.3195  0.3486
16781TIP3    H171758   3.710   5.866  16.024 -0.3730  1.5660 -0.9613
16781TIP3    H271759   3.580   5.943  16.033 -1.2440  0.0109  0.3894
16782TIP3   OH271760   0.601   2.972  15.792  0.0684  0.1972 -0.5210
16782TIP3    H171761   0.548   2.904  15.833 -0.2121  1.0162  0.4873
16782TIP3    H271762   0.586   2.959  15.698  1.2084 -2.0908 -0.4805
16783TIP3   OH271763   2.849   1.243   4.259 -1.0394  0.0760 -0.2482
16783TIP3    H171764   2.820   1.303   4.328  1.1951  0.4705  0.4309
16783TIP3    H271765   2.797   1.163   4.274 -0.8118  0.2384  1.7415
16784TIP3   OH271766   0.518   0.283  13.227  0.2465 -0.0303  0.2867
16784TIP3    H171767   0.562   0.211  13.181  1.0684  0.5711  0.1206
16784TIP3    H271768   0.433   0.289  13.185 -0.0821 -1.3235  0.7182
16785TIP3   OH271769   4.173   6.563   3.916  0.4398 -0.2269  0.2232
16785TIP3    H171770   4.186   6.653   3.885  0.4844 -0.3119 -0.0053
16785TIP3    H271771   4.261   6.526   3.919  0.4907 -0.0705  0.9140
16786TIP3   OH271772   3.080   0.678   2.305 -0.6124 -0.0837  0.0183
16786TIP3    H171773   3.077   0.732   2.226 -1.2364  0.2704  0.2746
16786TIP3    H271774   3.054   0.737   2.376  0.3424 -0.2931  0.5595
16787TIP3   OH271775   6.034   2.100   2.061 -0.0626  0.0368 -0.7933
16787TIP3    H171776   6.014   2.192   2.046 -0.1564  0.1743  0.1279
16787TIP3    H271777   5.980   2.053   1.997 -1.3199  0.5395 -0.1403
16788TIP3   OH271778   5.069   1.292  17.212  0.0830 -0.3099 -0.4164
16788TIP3    H171779   5.019   1.270  17.291  0.7674 -0.5292 -0.0335
16788TIP3    H271780   5.022   1.247  17.142  0.2258 -1.2383  0.0602
16789TIP3   OH271781   4.851   3.461   5.474 -0.5422  0.5480  0.3247
16789TIP3    H171782   4.822   3.496   5.558  1.2643  0.8984  0.8621
16789TIP3    H271783   4.872   3.369   5.492 -2.7236 -0.1724 -0.4449
16790TIP3   OH271784   3.760   6.614  12.516 -0.3018 -0.2706  0.0548
16790TIP3    H171785   3.680   6.621  12.569  0.8050 -1.6108  2.0586
16790TIP3    H271786   3.757   6.525  12.480  1.4896 -1.4702  2.4850
16791TIP3   OH271787   2.669   0.038  14.843 -0.1043  0.3784 -0.4373
16791TIP3    H171788   2.616   0.023  14.765  0.8782  1.9205 -1.4547
16791TIP3    H271789   2.759   0.046  14.811  0.4665  0.0245  0.9732
16792TIP3   OH271790   4.537   4.640   5.723  0.6978  0.0660 -0.0932
16792TIP3    H171791   4.535   4.565   5.664  0.1657 -0.8468  1.0346
16792TIP3    H271792   4.452   4.638   5.767  0.7913  1.1743  0.1574
16793TIP3   OH271793   4.922   4.953  13.222 -0.6633  0.2460  0.2709
16793TIP3    H171794   5.004   4.996  13.244 -0.7507  0.0631  0.9620
16793TIP3    H271795   4.878   4.939  13.306 -0.8896 -0.6714  0.0116
16794TIP3   OH271796   5.957   4.614   4.814 -0.2770 -0.3520  0.1925
16794TIP3    H171797   5.922   4.652   4.894 -1.0812  0.2375 -0.4261
16794TIP3    H271798   5.981   4.690   4.760  2.4508 -0.6855  0.7627
16795TIP3   OH271799   3.070   0.579   4.227 -0.6352 -0.5276  0.3802
16795TIP3    H171800   3.132   0.632   4.177  0.9046 -0.3205  2.3650
16795TIP3    H271801   3.034   0.518   4.163 -0.2172  0.9301 -1.3462
16796TIP3   OH271802   2.734   5.313  14.892 -0.1744  0.6549 -0.6532
16796TIP3    H171803   2.742   5.324  14.798 -0.4101 -1.7452 -1.0083
16796TIP3    H271804   2.820   5.284  14.921 -0.4168  0.2757 -0.3030
16797TIP3   OH271805   4.319   3.441   4.963 -0.6195  0.2227  0.1005
16797TIP3    H171806   4.264   3.415   4.889 -1.2457 -2.1313  1.3016
16797TIP3    H271807   4.257   3.475   5.028 -0.4260 -0.5744  0.7038
16798TIP3   OH271808   5.687   5.731  11.549 -0.6581  0.0243  0.3384
16798TIP3    H171809   5.626   5.669  11.590 -1.3736  1.6249  1.7887
16798TIP3    H271810   5.656   5.739  11.459 -1.8909 -0.0868  0.7320
16799TIP3   OH271811   1.174   1.284   3.789  0.4234 -0.1685 -0.3379
16799TIP3    H171812   1.210   1.371   3.801  0.7634 -0.5019  1.3341
16799TIP3    H271813   1.251   1.227   3.781  0.2892 -0.5851  0.9713
16800TIP3   OH271814   3.247   1.293  12.290 -0.3915 -0.0739  0.4467
16800TIP3    H171815   3.301   1.364  12.325  0.5209 -0.8880  0.7237
16800TIP3    H271816   3.276   1.215  12.337 -0.0788 -0.9664 -1.1470
16801TIP3   OH271817   2.091   1.224  13.268  0.2642  0.1140  0.2597
16801TIP3    H171818   2.184   1.206  13.272  0.2815  0.3974  1.9832
16801TIP3    H271819   2.055   1.183  13.347 -0.7745  1.5230  0.5593
16802TIP3   OH271820   6.071   3.996   0.278  0.2625  0.0148 -0.1541
16802TIP3    H171821   6.044   3.978   0.187 -1.9257  1.1378  0.2114
16802TIP3    H271822   6.036   3.921   0.327  0.2349  0.0911 -0.0584
16803TIP3   OH271823   4.820   3.404   5.735  0.2980  0.6278  0.4404
16803TIP3    H171824   4.824   3.476   5.799  0.7745  0.1807  0.9237
16803TIP3    H271825   4.827   3.325   5.788  0.7310  0.2463 -0.1783
16804TIP3   OH271826   4.156   0.029  15.997  0.1628  0.1594 -0.6375
16804TIP3    H171827   4.147   0.124  16.010  1.3917  0.2168 -0.1168
16804TIP3    H271828   4.191   0.020  15.909  1.0835  0.2544 -0.2900
16805TIP3   OH271829   5.519   3.605   1.583 -0.0475  0.1581 -0.3916
16805TIP3    H171830   5.503   3.678   1.642  1.1286 -0.4744  0.7575
16805TIP3    H271831   5.453   3.615   1.514 -0.8598  1.4346  0.5285
16806TIP3   OH271832   3.395   3.409  14.968  0.3263 -0.0693  0.2742
16806TIP3    H171833   3.420   3.420  15.060  0.0357  1.1309  0.2294
16806TIP3    H271834   3.427   3.322  14.945 -0.7693 -0.9507  1.8765
16807TIP3   OH271835   2.833   3.255  12.659 -0.1356  0.3291  0.5206
16807TIP3    H171836   2.824   3.344  12.692  0.1497  0.4427  0.3029
16807TIP3    H271837   2.846   3.202  12.737 -2.6480  0.1312  0.8733
16808TIP3   OH271838   3.326   2.014  10.699 -0.0362 -0.2086  0.1579
16808TIP3    H171839   3.237   1.980  10.713 -1.1193  1.9632 -0.9897
16808TIP3    H271840   3.382   1.936  10.702 -2.1000 -1.7841 -0.1880
16809TIP3   OH271841   3.840   5.883  16.311  0.3925  0.1271 -0.2134
16809TIP3    H171842   3.793   5.966  16.314  2.1948  1.2396 -0.7013
16809TIP3    H271843   3.834   5.848  16.400 -0.9051  0.4617 -0.1567
16810TIP3   OH271844   0.794   1.012  10.356  0.4231  0.1780  0.7551
16810TIP3    H171845   0.883   1.043  10.374  0.7187 -0.4494  0.4486
16810TIP3    H271846   0.793   0.923  10.392  0.7993 -0.8427 -1.5333
16811TIP3   OH271847   6.233   6.343  15.858 -0.4285 -0.1565  0.3057
16811TIP3    H171848   6.311   6.328  15.805  0.7015  2.4925  1.0586
16811TIP3    H271849   6.226   6.264  15.913  0.4643 -1.3517 -1.2225
16812TIP3   OH271850   0.662   4.945   4.226 -0.3999  0.3715  0.2500
16812TIP3    H171851   0.614   4.987   4.155  1.4674  1.7097 -0.2974
16812TIP3    H271852   0.683   5.016   4.287  3.3172  0.5262 -0.9670
16813TIP3   OH271853   3.745   6.459   3.150  0.8417 -0.6245  0.2861
16813TIP3    H171854   3.700   6.542   3.134  1.0668 -0.1536  1.9799
16813TIP3    H271855   3.675   6.395   3.163  0.6701 -0.6911 -0.8788
16814TIP3   OH271856   4.972   2.383   2.745 -0.1207 -0.1028  0.5284
16814TIP3    H171857   4.895   2.412   2.794  0.6975 -0.0149  1.8186
16814TIP3    H271858   4.962   2.288   2.738  0.5864 -0.3651  2.4530
16815TIP3   OH271859   4.006   1.835  16.675 -0.3716 -0.4292 -0.0077
16815TIP3    H171860   3.946   1.780  16.727  0.6455 -1.1006  0.4805
16815TIP3    H271861   4.074   1.860  16.737 -0.0272  0.1424 -0.6146
16816TIP3   OH271862   0.472   2.526  14.400  0.1048 -0.3503 -0.0400
16816TIP3    H171863   0.511   2.568  14.476 -0.9417  0.5991 -0.0082
16816TIP3    H271864   0.391   2.487  14.432 -0.6370  0.5619 -0.7723
16817TIP3   OH271865   1.849   5.637  14.514  1.2305 -0.0090  0.4955
16817TIP3    H171866   1.902   5.709  14.547 -0.3644  0.5249  2.0287
16817TIP3    H271867   1.761   5.673  14.506  0.9175 -1.0503 -1.3742
16818TIP3   OH271868   4.525   3.087   6.060 -0.0697  0.3599  0.3416
16818TIP3    H171869   4.484   3.170   6.034  0.5033  1.3333  2.4043
16818TIP3    H271870   4.616   3.110   6.079  0.0838 -0.7416  1.0087
16819TIP3   OH271871   2.024   5.903  17.080  0.2788  0.4500 -0.2085
16819TIP3    H171872   2.057   5.893  17.170  1.1337  0.8142 -0.4633
16819TIP3    H271873   1.977   5.986  17.081  0.5543  0.6096 -0.1603
16820TIP3   OH271874   5.011   4.685   5.279  0.2323  0.0033 -0.0180
16820TIP3    H171875   5.045   4.713   5.194  0.7087 -0.3070  0.0723
16820TIP3    H271876   4.925   4.728   5.285 -0.2258 -0.7270 -1.0768
16821TIP3   OH271877   5.191   2.252  13.959 -0.5008 -0.0992 -0.3916
16821TIP3    H171878   5.165   2.330  13.910  0.5836 -1.0975 -2.7339
16821TIP3    H271879   5.196   2.183  13.893 -0.5472 -1.9596  1.4489
16822TIP3   OH271880   1.316   3.490   0.457  0.0891  0.7483 -0.1395
16822TIP3    H171881   1.356   3.510   0.372  0.9661  0.9113  0.3033
16822TIP3    H271882   1.378   3.523   0.521 -0.9491  1.3977  0.5768
16823TIP3   OH271883   2.416   3.314  12.670  0.1238 -0.2041 -0.0296
16823TIP3    H171884   2.448   3.293  12.757 -1.9111  0.9345  1.0550
16823TIP3    H271885   2.490   3.294  12.612  1.7176 -0.4488  1.9837
16824TIP3   OH271886   3.204   6.699   5.081 -0.5138  0.3840 -0.0270
16824TIP3    H171887   3.151   6.773   5.051 -0.4547  0.2045 -0.5904
16824TIP3    H271888   3.281   6.740   5.121 -0.4739  0.6326 -0.3486
16825TIP3   OH271889   0.646   1.358   1.234  0.6013  0.0677  0.3258
16825TIP3    H171890   0.635   1.414   1.157  0.1112 -2.2319 -1.3800
16825TIP3    H271891   0.729   1.314   1.220  0.4097 -0.5315  1.0204
16826TIP3   OH271892   1.773   1.008   2.873  0.5941  0.0862  0.3480
16826TIP3    H171893   1.844   0.953   2.841 -1.2915 -1.9616 -0.5496
16826TIP3    H271894   1.728   1.039   2.794 -2.1088 -2.2958  0.8127
16827TIP3   OH271895   2.182   6.621  14.697  0.5418 -0.4688  0.0266
16827TIP3    H171896   2.120   6.552  14.722  0.7944 -0.5794  0.3608
16827TIP3    H271897   2.194   6.610  14.603 -1.9492  1.1691 -0.5870
16828TIP3   OH271898   6.100   3.432  16.794 -0.6576  0.2619  0.0427
16828TIP3    H171899   6.055   3.359  16.751  0.2996  0.6710 -1.7482
16828TIP3    H271900   6.030   3.494  16.815 -1.1825 -0.0164 -0.8182
16829TIP3   OH271901   6.711   5.494   0.362  0.1415 -0.1403  0.0729
16829TIP3    H171902   6.695   5.468   0.452 -1.7755 -0.3279 -0.2689
16829TIP3    H271903   6.630   5.471   0.316  0.5435  1.2071 -1.4038
16830TIP3   OH271904   0.264   4.352   2.363  0.2923 -0.1999 -0.9353
16830TIP3    H171905   0.344   4.350   2.416  0.2491 -0.4336 -0.8790
16830TIP3    H271906   0.259   4.442   2.332  1.5848 -0.6081 -2.4866
16831TIP3   OH271907   3.547   0.246   4.074  0.0807 -0.2025 -0.3832
16831TIP3    H171908   3.528   0.339   4.081  0.6979 -0.0680 -0.4113
16831TIP3    H271909   3.579   0.234   3.984 -0.5382 -0.5489 -0.5673
16832TIP3   OH271910   0.330   3.474  11.667 -0.0845  0.2562 -0.5594
16832TIP3    H171911   0.332   3.403  11.603 -0.3354  0.0375 -0.3233
16832TIP3    H271912   0.418   3.511  11.664 -0.6019  1.5080 -2.4415
16833TIP3   OH271913   0.431   0.079   4.722  0.1561 -0.0274 -0.0353
16833TIP3    H171914   0.515   0.124   4.713  0.1897  0.0254  0.5521
16833TIP3    H271915   0.445   0.012   4.788  0.9324 -2.9194 -2.8812
16834TIP3   OH271916   5.139   2.032  12.724 -0.1152  0.4560 -0.7492
16834TIP3    H171917   5.188   2.017  12.643  0.5980 -1.6547 -0.0119
16834TIP3    H271918   5.164   1.958  12.780 -3.8456 -0.5746 -0.1831
16835TIP3   OH271919   0.319   1.799  14.149  0.3289  0.1432  0.3493
16835TIP3    H171920   0.255   1.819  14.218  1.0264 -1.0703  1.3862
16835TIP3    H271921   0.382   1.870  14.153  1.1626 -0.6285  1.9961
16836TIP3   OH271922   0.426   3.959   4.185  0.2857 -0.3102  0.1771
16836TIP3    H171923   0.357   4.024   4.170  1.4339  1.2416  1.2764
16836TIP3    H271924   0.379   3.876   4.195 -1.2139  0.2753 -1.4954
16837TIP3   OH271925   2.317   1.653  12.701  0.0742 -0.2245  0.1825
16837TIP3    H171926   2.410   1.633  12.700  0.3182  0.8896 -0.2127
16837TIP3    H271927   2.278   1.586  12.643  0.5261 -1.0747  0.8419
16838TIP3   OH271928   3.372   3.023   2.319  0.2416  0.5356  0.6288
16838TIP3    H171929   3.371   3.058   2.230  1.0232  1.0906  0.8370
16838TIP3    H271930   3.463   3.031   2.348  0.2687 -0.8480  1.0086
16839TIP3   OH271931   2.505   1.017   4.561  0.5623 -0.4046 -0.0231
16839TIP3    H171932   2.577   0.954   4.567 -0.2486 -1.3086  0.5029
16839TIP3    H271933   2.534   1.091   4.613  4.3699  2.6838 -5.4544
16840TIP3   OH271934   6.207   3.492   4.655  0.3019  0.2502 -0.7525
16840TIP3    H171935   6.174   3.407   4.626 -1.1715  0.4055  0.3356
16840TIP3    H271936   6.243   3.475   4.742 -1.0324  0.8921 -0.0272
16841TIP3   OH271937   3.412   3.192   3.228 -0.5688 -0.0117 -0.0252
16841TIP3    H171938   3.395   3.199   3.322  0.4759 -0.2225  0.1975
16841TIP3    H271939   3.434   3.281   3.201 -1.7637  0.2221 -0.2705
16842TIP3   OH271940   1.564   0.097  14.831  0.4674  0.7162 -0.5668
16842TIP3    H171941   1.606   0.012  14.844  1.0271  0.7156 -2.1846
16842TIP3    H271942   1.505   0.107  14.907  0.2976 -1.1577 -0.4169
16843TIP3   OH271943   1.752   4.546   3.903 -0.8109 -0.4860 -0.6012
16843TIP3    H171944   1.750   4.561   3.809 -0.0084 -2.2309 -0.9340
16843TIP3    H271945   1.807   4.468   3.914  1.8044  1.4306  1.5379
16844TIP3   OH271946   1.477   5.059  14.714  0.1794 -0.4785  0.1356
16844TIP3    H171947   1.404   5.035  14.656 -1.0871 -0.3573  1.6155
16844TIP3    H271948   1.445   5.041  14.802  1.7543  0.1051  0.8638
16845TIP3   OH271949   3.039   0.749   6.347  0.1035 -0.3028 -0.1402
16845TIP3    H171950   3.124   0.708   6.335 -0.1021 -0.6228 -0.5078
16845TIP3    H271951   3.017   0.732   6.438  1.7966  2.3786  0.9214
16846TIP3   OH271952   3.326   6.538   4.668 -0.1522  0.0432  0.4007
16846TIP3    H171953   3.238   6.524   4.634 -0.4303  0.5698  0.8738
16846TIP3    H271954   3.345   6.630   4.651  0.3512 -0.0872  0.2154
16847TIP3   OH271955   0.639   6.230  15.749  0.2638  0.3111 -0.5060
16847TIP3    H171956   0.606   6.241  15.660  1.5374  1.0405 -0.9213
16847TIP3    H271957   0.688   6.310  15.767  1.7433 -0.6594  0.0667
16848TIP3   OH271958   1.365   5.625   0.710  0.5887 -0.4805 -0.3466
16848TIP3    H171959   1.335   5.706   0.667 -0.8130 -0.2530  1.0052
16848TIP3    H271960   1.285   5.579   0.734  1.3661 -2.3675 -1.1787
16849TIP3   OH271961   2.735   2.161  17.117 -0.5641 -0.6974 -0.0029
16849TIP3    H171962   2.699   2.075  17.097 -1.0223 -0.8165  1.2471
16849TIP3    H271963   2.763   2.154  17.208  0.2664  0.1911 -0.1841
16850TIP3   OH271964   2.716   2.907   5.421 -0.4170  0.0536  0.0089
16850TIP3    H171965   2.740   2.985   5.470 -1.2607  0.6583 -0.5074
16850TIP3    H271966   2.791   2.848   5.431 -0.2894  0.4260  1.4312
16851TIP3   OH271967   6.311   2.988  12.978  0.4570 -0.2850 -0.2911
16851TIP3    H171968   6.404   3.007  12.993  0.1214 -0.0052  1.8138
16851TIP3    H271969   6.283   3.053  12.914  1.6870 -0.3260 -0.8933
16852TIP3   OH271970   3.184   2.912   6.037  0.5450 -0.3315 -0.0348
16852TIP3    H171971   3.242   2.860   6.093  0.2149 -1.7226 -0.9601
16852TIP3    H271972   3.214   2.895   5.948  0.5907  1.2897 -0.3592
16853TIP3   OH271973   2.949   6.274   6.336 -0.0299  0.2146 -0.1727
16853TIP3    H171974   2.987   6.294   6.250 -1.6846  0.7061 -0.8261
16853TIP3    H271975   2.981   6.186   6.355  0.6418  0.2247 -1.1318
16854TIP3   OH271976   0.859   0.354   4.774 -0.1492 -0.1005 -0.5972
16854TIP3    H171977   0.850   0.274   4.827 -0.5566  0.1698 -0.2532
16854TIP3    H271978   0.865   0.425   4.838  1.3631  0.0474 -0.8770
16855TIP3   OH271979   6.294   4.635  14.850  0.3394 -0.3639  0.5310
16855TIP3    H171980   6.339   4.719  14.841  0.3426 -0.3566  0.6201
16855TIP3    H271981   6.313   4.605  14.938 -0.4757  0.0199  0.8499
16856TIP3   OH271982   1.719   3.004   3.847 -0.1734 -0.0811  0.5078
16856TIP3    H171983   1.758   2.965   3.768  0.8223 -0.6930  1.2627
16856TIP3    H271984   1.747   3.095   3.845 -1.3332  0.2678 -0.5552
16857TIP3   OH271985   4.993   0.196   5.108  0.0165 -0.7525 -0.2932
16857TIP3    H171986   4.970   0.287   5.087  1.1377  0.1102  1.8758
16857TIP3    H271987   4.910   0.149   5.104 -0.8232  0.6518 -0.1880
16858TIP3   OH271988   3.989   1.691  11.434 -0.0203  0.8035  0.3788
16858TIP3    H171989   4.073   1.692  11.388 -0.2885  3.5104 -0.2742
16858TIP3    H271990   3.941   1.617  11.396  1.5129  0.1254 -0.3025
16859TIP3   OH271991   5.089   4.781   5.963  0.6770  0.6395 -0.1234
16859TIP3    H171992   5.034   4.740   5.896  0.2094  0.2870  0.4756
16859TIP3    H271993   5.166   4.812   5.914  1.1575 -1.1405 -0.5639
16860TIP3   OH271994   4.346   2.058  14.494  0.6606  0.0140  0.4180
16860TIP3    H171995   4.407   2.132  14.494  0.6758  0.0799 -2.2619
16860TIP3    H271996   4.399   1.983  14.468  0.1403 -0.4734  0.7422
16861TIP3   OH271997   6.188   1.324   0.802 -0.3140 -0.3106 -0.1788
16861TIP3    H171998   6.195   1.254   0.867 -0.4221  3.3026  4.2976
16861TIP3    H271999   6.279   1.350   0.785 -0.3049  0.4213  0.8173
16862TIP3   OH272000   5.100   1.150  16.712 -0.3987  0.1035  0.3078
16862TIP3    H172001   5.185   1.193  16.719  0.3490 -1.5148  2.5188
16862TIP3    H272002   5.088   1.106  16.796 -2.2408 -1.8594 -0.8490
16863TIP3   OH272003   2.292   2.403  15.488  0.1916  0.1080  0.3923
16863TIP3    H172004   2.262   2.453  15.412 -0.0592 -0.7210 -0.0744
16863TIP3    H272005   2.350   2.336  15.451  0.8595  0.3130  1.0480
16864TIP3   OH272006   3.892   2.470   3.808 -0.7295 -0.0860 -0.5882
16864TIP3    H172007   3.825   2.533   3.779  0.1895  1.7225  1.0428
16864TIP3    H272008   3.878   2.461   3.902  0.5929 -0.5693 -0.4157
16865TIP3   OH272009   2.677   3.505  12.013 -0.1776 -0.2145  0.5686
16865TIP3    H172010   2.714   3.503  12.102  0.5397 -2.1644  0.2774
16865TIP3    H272011   2.751   3.487  11.956 -0.7112  0.6352 -0.4321
16866TIP3   OH272012   3.529   3.958   6.052  0.2353 -0.2723  0.5007
16866TIP3    H172013   3.460   4.019   6.076 -1.2218 -1.6800  0.0774
16866TIP3    H272014   3.527   3.891   6.120 -0.2150 -1.3794 -0.5626
16867TIP3   OH272015   6.387   1.103  12.311 -0.1476  0.0140 -0.3280
16867TIP3    H172016   6.457   1.075  12.253 -0.0065  2.3862 -1.4083
16867TIP3    H272017   6.312   1.047  12.288  1.1848 -2.3244  0.6156
16868TIP3   OH272018   3.842   6.733   4.499 -0.4307 -0.3855  0.2080
16868TIP3    H172019   3.925   6.759   4.539  0.7553  1.5849 -3.0581
16868TIP3    H272020   3.844   6.638   4.500  1.6829 -0.3990  0.6407
16869TIP3   OH272021   6.507   4.752  10.376 -0.7171  0.7034 -0.5875
16869TIP3    H172022   6.452   4.822  10.413  0.4528  0.8672  0.9536
16869TIP3    H272023   6.472   4.672  10.414  0.4684  0.8697  0.9557
16870TIP3   OH272024   1.638   3.706   3.401 -0.0097  0.2987 -0.7696
16870TIP3    H172025   1.620   3.788   3.356 -1.7432  0.0942 -0.5108
16870TIP3    H272026   1.636   3.729   3.494  1.0362  0.2400 -0.7231
16871TIP3   OH272027   1.848   1.611   1.560  1.2104 -0.3359 -0.4388
16871TIP3    H172028   1.862   1.562   1.479  0.3049 -1.4093  0.0399
16871TIP3    H272029   1.753   1.614   1.570  1.1583  2.3489 -0.9234
16872TIP3   OH272030   5.619   2.415  13.562 -0.0471 -0.1577  0.4394
16872TIP3    H172031   5.618   2.486  13.497  2.4355  0.3507  0.8402
16872TIP3    H272032   5.528   2.385  13.566 -1.0951  2.5838 -0.2060
16873TIP3   OH272033   6.647   0.357  15.675 -0.5921  0.3515 -0.2438
16873TIP3    H172034   6.580   0.426  15.675 -1.2596 -0.1499 -3.4970
16873TIP3    H272035   6.705   0.380  15.603  0.4932 -1.3012  0.0562
16874TIP3   OH272036   2.456   5.937   0.440  0.1915  0.1023 -0.2987
16874TIP3    H172037   2.532   5.946   0.497 -0.0675  0.2425  0.0267
16874TIP3    H272038   2.446   5.843   0.427  0.7003  0.1020 -0.7253
16875TIP3   OH272039   3.011   2.042   5.105  0.6695  0.3142 -0.1277
16875TIP3    H172040   2.930   2.051   5.053  1.5144  1.4855 -1.3037
16875TIP3    H272041   2.992   1.971   5.166 -0.7102 -0.4868 -1.4146
16876TIP3   OH272042   1.200   3.636  14.321  0.3904 -0.9911 -0.1226
16876TIP3    H172043   1.107   3.616  14.324  0.0136  0.2752 -1.8854
16876TIP3    H272044   1.223   3.631  14.228  0.9063  3.3010 -0.4667
16877TIP3   OH272045   3.444   5.927  14.973  0.0826 -0.0596 -0.0256
16877TIP3    H172046   3.536   5.919  14.948  0.7820  1.0667  1.9316
16877TIP3    H272047   3.417   5.838  14.993  0.8319 -0.3727 -0.3648
16878TIP3   OH272048   0.595   3.481   2.467  0.1552 -0.6223  0.1762
16878TIP3    H172049   0.669   3.442   2.513 -0.9447 -2.6762  0.3426
16878TIP3    H272050   0.524   3.418   2.478 -1.0870  0.3670 -1.5699
16879TIP3   OH272051   6.289   4.452   0.592 -0.7391  0.1307 -0.1320
16879TIP3    H172052   6.298   4.413   0.679 -2.0953 -1.0320 -0.4900
16879TIP3    H272053   6.377   4.445   0.554 -0.4979 -0.7747  0.5563
16880TIP3   OH272054   0.375   5.162  15.398  0.1707  0.1905  0.5658
16880TIP3    H172055   0.330   5.083  15.371 -0.6699  0.4853  1.0624
16880TIP3    H272056   0.344   5.178  15.487 -1.2762  2.1978 -0.2295
16881TIP3   OH272057   6.451   4.362  11.569 -0.1908  0.4942  0.1573
16881TIP3    H172058   6.385   4.294  11.558  1.0840 -1.0968  1.8673
16881TIP3    H272059   6.403   4.444  11.557 -2.0473 -0.6406 -0.5912
16882TIP3   OH272060   2.072   1.710   1.242  0.0093  0.1599 -0.1264
16882TIP3    H172061   2.165   1.714   1.264  0.0972  0.6129 -0.5574
16882TIP3    H272062   2.070   1.691   1.149 -0.3420 -0.2836 -0.0332
16883TIP3   OH272063   5.196   0.580  14.062  0.2188  0.2755 -0.0393
16883TIP3    H172064   5.110   0.574  14.103  0.7479  0.6954  1.1813
16883TIP3    H272065   5.210   0.494  14.023 -0.3001 -0.1624  0.7058
16884TIP3   OH272066   3.942   4.257   3.623 -0.4493 -0.0502  0.5696
16884TIP3    H172067   3.997   4.313   3.678 -0.6389  0.8112 -0.0933
16884TIP3    H272068   3.857   4.256   3.667 -0.0023 -1.1698  1.4546
16885TIP3   OH272069   4.870   3.901   2.214 -0.0133 -0.1291  0.0997
16885TIP3    H172070   4.946   3.843   2.211 -0.3589 -0.6040  0.4828
16885TIP3    H272071   4.819   3.870   2.289 -1.0587 -0.3922 -0.7106
16886TIP3   OH272072   1.113   0.240  14.506  0.3134 -0.3404 -0.2785
16886TIP3    H172073   1.030   0.220  14.550  1.5077  0.8821  2.8327
16886TIP3    H272074   1.177   0.181  14.546  1.7315  1.8148  0.9071
16887TIP3   OH272075   2.773   6.562   4.686 -0.0515  0.2292  0.3091
16887TIP3    H172076   2.764   6.524   4.773 -1.8719 -0.6501 -0.2003
16887TIP3    H272077   2.798   6.653   4.701  2.6202 -0.6500  1.6185
16888TIP3   OH272078   5.549   1.619  13.373 -0.1040  0.0936  0.0447
16888TIP3    H172079   5.557   1.676  13.450 -0.9609  0.4625 -0.1193
16888TIP3    H272080   5.589   1.669  13.302  2.9532 -1.2404  0.6542
16889TIP3   OH272081   5.226   4.984   0.916 -0.1089 -0.1330  0.2024
16889TIP3    H172082   5.202   4.979   1.008  0.9117  0.7925  0.5315
16889TIP3    H272083   5.251   4.894   0.892 -0.1085 -0.3200  0.8955
16890TIP3   OH272084   6.528   2.898   4.188  0.2053 -0.0982  0.8915
16890TIP3    H172085   6.459   2.929   4.246  0.4119  1.4391  0.3735
16890TIP3    H272086   6.482   2.865   4.110  0.0167  0.1610  0.8911
16891TIP3   OH272087   5.827   5.041  15.046  0.2370 -0.4461 -0.1930
16891TIP3    H172088   5.857   5.126  15.012  3.2577 -0.2639  2.4953
16891TIP3    H272089   5.813   5.055  15.139  2.2412 -3.1113  0.6593
16892TIP3   OH272090   1.314   0.853  13.969 -0.0104 -0.0908  0.2474
16892TIP3    H172091   1.359   0.875  14.050  1.1286  0.6163 -0.5465
16892TIP3    H272092   1.299   0.758  13.975 -0.6600  0.0909  1.6131
16893TIP3   OH272093   5.563   2.089  13.692 -0.3435  0.4573  0.5986
16893TIP3    H172094   5.550   1.995  13.707  0.6431  0.3816  1.0648
16893TIP3    H272095   5.572   2.126  13.780 -0.3379  0.9358  0.3994
16894TIP3   OH272096   4.764   0.380   0.150 -0.6131  0.7870  0.2358
16894TIP3    H172097   4.678   0.366   0.188 -0.6427 -2.2368 -0.6595
16894TIP3    H272098   4.825   0.374   0.224 -0.9691 -0.5614  0.4396
16895TIP3   OH272099   1.857   3.729  13.306  0.3076  0.1273 -0.3297
16895TIP3    H172100   1.844   3.823  13.316 -2.8297 -0.2957  0.4776
16895TIP3    H272101   1.805   3.689  13.376  1.1427 -2.2436 -0.9512
16896TIP3   OH272102   5.984   5.358   0.083  0.0974  0.4311  0.3270
16896TIP3    H172103   5.917   5.307   0.036  1.8012 -2.8822  1.1540
16896TIP3    H272104   6.064   5.306   0.073  2.1551  3.2619  0.9733
16897TIP3   OH272105   0.145   3.300  15.903 -0.2056 -0.9138  0.2187
16897TIP3    H172106   0.200   3.296  15.824 -2.6747  2.3996 -1.9539
16897TIP3    H272107   0.087   3.224  15.896 -1.3614  0.0674 -2.1293
16898TIP3   OH272108   2.358   0.451  10.784 -0.4350 -0.2856  0.1456
16898TIP3    H172109   2.274   0.441  10.828 -1.2839 -0.3685 -1.4124
16898TIP3    H272110   2.349   0.531  10.733  0.9815  0.5123  1.0802
16899TIP3   OH272111   3.174   3.529  14.440 -0.4074  0.2185 -0.5595
16899TIP3    H172112   3.194   3.522  14.533 -1.2207  3.1659 -0.0469
16899TIP3    H272113   3.081   3.553  14.436 -1.0163 -2.0715 -2.3040
16900TIP3   OH272114   1.712   1.095  14.871  0.2496  0.0405  0.8436
16900TIP3    H172115   1.721   1.112  14.964 -1.9002  2.1026  0.7681
16900TIP3    H272116   1.685   1.179  14.833 -1.2438 -1.2823 -1.2567
16901TIP3   OH272117   5.592   2.709   1.762 -0.7145  0.1282  0.4181
16901TIP3    H172118   5.602   2.751   1.847  0.5715 -2.3042  1.5474
16901TIP3    H272119   5.578   2.617   1.782 -0.9071 -0.4228 -1.9967
16902TIP3   OH272120   6.699   2.946  13.567 -0.4269  0.3945 -0.0340
16902TIP3    H172121   6.715   3.038  13.590  0.0220 -0.1852  2.2150
16902TIP3    H272122   6.618   2.924  13.612 -0.8580 -0.1790 -1.0520
16903TIP3   OH272123   0.414   2.675   0.708 -0.6592 -0.1366 -0.2983
16903TIP3    H172124   0.376   2.742   0.650  1.2974  0.3705 -1.0556
16903TIP3    H272125   0.428   2.721   0.791 -0.4299  0.0414 -0.4377
16904TIP3   OH272126   3.924   2.876   6.120 -0.4368 -0.5977 -0.2730
16904TIP3    H172127   3.991   2.849   6.057 -0.1756  0.0195 -0.2666
16904TIP3    H272128   3.972   2.887   6.202 -0.1666  1.6527 -0.6766
16905TIP3   OH272129   0.871   3.530   1.315  0.2531  0.4559  0.3021
16905TIP3    H172130   0.796   3.589   1.307 -0.2690 -0.2191  0.1240
16905TIP3    H272131   0.897   3.512   1.225  2.5560  3.0262  0.2930
16906TIP3   OH272132   3.928   2.260  12.969 -0.0680  0.3303  0.0459
16906TIP3    H172133   4.009   2.233  13.012  0.1480 -1.2210 -1.2217
16906TIP3    H272134   3.866   2.276  13.040 -0.0424 -3.1206  1.0285
16907TIP3   OH272135   1.088   3.973  13.548 -0.7466  0.3842 -0.2554
16907TIP3    H172136   1.001   3.958  13.584 -0.2966 -0.6611  0.4422
16907TIP3    H272137   1.090   3.923  13.467 -0.8528  0.5491 -0.3597
16908TIP3   OH272138   1.900   5.769  16.156 -0.0969 -0.9871  0.0945
16908TIP3    H172139   1.839   5.762  16.229 -2.1985 -0.9852 -1.5875
16908TIP3    H272140   1.849   5.808  16.085  1.9282 -0.7742 -1.3311
16909TIP3   OH272141   4.166   0.976  14.826 -0.5228 -0.1740  0.4540
16909TIP3    H172142   4.256   0.999  14.801  0.2681 -1.5889  1.8302
16909TIP3    H272143   4.176   0.905  14.889 -2.5302  1.0517  2.2939
16910TIP3   OH272144   6.124   5.333   0.456  0.3422 -0.2881  0.1693
16910TIP3    H172145   6.091   5.274   0.524  1.3343 -0.0051  0.9102
16910TIP3    H272146   6.207   5.366   0.490  0.7810 -0.0015 -1.1056
16911TIP3   OH272147   5.305   1.632  14.028 -0.0463 -0.0253 -0.4763
16911TIP3    H172148   5.332   1.604  14.116  1.0414  0.0568 -0.7687
16911TIP3    H272149   5.238   1.698  14.044  0.8068  0.6776  0.3331
16912TIP3   OH272150   0.417   4.401   5.775 -0.1548  0.5180 -0.7237
16912TIP3    H172151   0.351   4.446   5.826  0.8716 -1.6665  2.8632
16912TIP3    H272152   0.484   4.467   5.758 -1.7720  1.9666 -1.7302
16913TIP3   OH272153   6.015   1.760   6.814  0.9085  0.7290  0.3904
16913TIP3    H172154   6.096   1.764   6.763 -0.2823 -0.6207 -1.7312
16913TIP3    H272155   5.961   1.831   6.781  0.0743 -0.2355 -0.3521
16914TIP3   OH272156   5.895   1.223  14.826  0.3701 -1.0724 -0.0088
16914TIP3    H172157   5.854   1.150  14.779  1.0216 -3.3349  2.6606
16914TIP3    H272158   5.849   1.225  14.911  0.4287  1.6442  0.0223
16915TIP3   OH272159   3.943   4.909   6.335 -0.5835 -0.2980 -0.9903
16915TIP3    H172160   4.005   4.894   6.406  1.3394  0.2365 -2.4768
16915TIP3    H272161   3.983   4.867   6.259 -2.0055  0.1769 -2.0501
16916TIP3   OH272162   2.031   4.989  11.973  0.4848 -0.0251  0.2570
16916TIP3    H172163   2.013   5.076  12.007  1.1479 -0.6445  2.3688
16916TIP3    H272164   2.123   4.973  11.997  0.8942 -0.6764 -1.5779
16917TIP3   OH272165   4.695   4.252  14.105 -0.3742  0.0488 -0.4630
16917TIP3    H172166   4.655   4.322  14.156  0.6238 -0.8556  1.6817
16917TIP3    H272167   4.635   4.239  14.031 -1.8597  1.4651  0.4229
16918TIP3   OH272168   1.611   1.552  14.523 -0.5351  0.7154 -0.2090
16918TIP3    H172169   1.588   1.546  14.430  0.0687 -1.9820 -0.2598
16918TIP3    H272170   1.691   1.500  14.532 -1.8422 -1.0851  2.1771
16919TIP3   OH272171   0.755   1.729  11.112  0.1825  0.0345 -0.2561
16919TIP3    H172172   0.819   1.774  11.057 -1.6429  2.2744 -0.6930
16919TIP3    H272173   0.715   1.664  11.054  0.0877  0.6004 -0.8361
16920TIP3   OH272174   2.681   1.008   5.874 -0.4045  0.6336 -0.1145
16920TIP3    H172175   2.682   1.078   5.809  1.1357 -0.0858 -0.9266
16920TIP3    H272176   2.669   0.928   5.823 -0.6108  0.1731  0.6394
16921TIP3   OH272177   0.188   4.518   5.525  0.0928  0.2290 -0.0295
16921TIP3    H172178   0.154   4.448   5.580 -1.5244 -0.0179 -1.2481
16921TIP3    H272179   0.110   4.562   5.491  0.9894  0.3384 -2.1122
16922TIP3   OH272180   4.333   3.291  17.060 -0.7352  0.2165 -0.4341
16922TIP3    H172181   4.347   3.325  16.971 -1.7923  3.2273  0.4453
16922TIP3    H272182   4.248   3.246  17.055  0.2045 -1.5664 -1.3802
16923TIP3   OH272183   0.854   5.703  13.298 -0.0399  0.3020 -0.2273
16923TIP3    H172184   0.876   5.619  13.258  0.8539 -0.2329  1.3120
16923TIP3    H272185   0.930   5.758  13.280 -0.2747  0.5296 -0.5293
16924TIP3   OH272186   0.652   1.553   4.233 -0.0349 -0.1406  0.7594
16924TIP3    H172187   0.584   1.620   4.242  0.1947  0.1391  0.4419
16924TIP3    H272188   0.607   1.480   4.190 -0.1814 -0.0275  0.7209
16925TIP3   OH272189   0.469   2.673  11.514  0.5309 -0.6098 -0.7121
16925TIP3    H172190   0.495   2.627  11.435 -0.3769  0.4033 -1.6368
16925TIP3    H272191   0.419   2.609  11.564  0.8997 -1.1850 -1.0783
16926TIP3   OH272192   5.352   1.581   6.698 -0.0566 -0.2634 -0.8637
16926TIP3    H172193   5.393   1.668   6.704 -0.6369  0.0419 -1.2571
16926TIP3    H272194   5.265   1.598   6.662 -0.3228 -0.9709 -0.5637
16927TIP3   OH272195   0.381   3.497  16.757  0.0112 -0.0020 -0.1071
16927TIP3    H172196   0.431   3.562  16.807 -1.2086  0.5954  0.3799
16927TIP3    H272197   0.394   3.415  16.804 -1.2128  0.5772  1.2851
16928TIP3   OH272198   3.307   1.490   6.124 -0.2235 -0.2086  0.2371
16928TIP3    H172199   3.330   1.545   6.049 -0.0496  0.3661  0.7026
16928TIP3    H272200   3.213   1.504   6.135 -0.0446  0.6401  0.8422
16929TIP3   OH272201   0.802   0.434   0.218 -0.1112 -0.0650 -0.4409
16929TIP3    H172202   0.846   0.422   0.134 -0.1733  1.5440 -0.7360
16929TIP3    H272203   0.865   0.482   0.272 -1.1108  1.4580 -0.5579
16930TIP3   OH272204   5.910   6.240  14.990 -0.4342 -0.4972 -0.0489
16930TIP3    H172205   5.822   6.206  15.010 -1.1965 -0.1321 -2.5300
16930TIP3    H272206   5.956   6.166  14.952  0.2461 -0.5799  0.9008
16931TIP3   OH272207   5.326   2.678   4.735  0.2661 -0.2790 -0.1084
16931TIP3    H172208   5.372   2.597   4.715 -0.3314 -0.4443 -0.8166
16931TIP3    H272209   5.250   2.651   4.787  0.1673 -0.1482 -0.1848
16932TIP3   OH272210   0.630   2.889  11.574  0.0955  0.0274 -0.2268
16932TIP3    H172211   0.557   2.831  11.553  0.2930 -0.5245  0.5607
16932TIP3    H272212   0.707   2.844  11.539  0.2713 -0.2827  0.5469
16933TIP3   OH272213   5.080   3.787   3.579 -0.0381  0.5638  0.8442
16933TIP3    H172214   5.123   3.731   3.644  1.3261 -0.6727 -1.0412
16933TIP3    H272215   5.106   3.750   3.495 -1.6024  2.2334 -0.4328
16934TIP3   OH272216   2.527   6.551   3.662 -0.0287  0.5696 -0.1012
16934TIP3    H172217   2.449   6.546   3.607  0.2786  0.4808 -0.5442
16934TIP3    H272218   2.562   6.638   3.645  0.1884  0.4616 -0.2231
16935TIP3   OH272219   4.865   4.519  11.487  0.2047  0.3203 -0.1071
16935TIP3    H172220   4.885   4.502  11.395 -1.4222  0.6777 -0.5662
16935TIP3    H272221   4.939   4.483  11.535  1.5713  1.0035 -1.6021
16936TIP3   OH272222   4.270   2.536  16.677 -0.4410 -0.2197 -0.2840
16936TIP3    H172223   4.290   2.442  16.676  2.1332  0.2517 -0.7326
16936TIP3    H272224   4.222   2.550  16.758  1.2920 -1.5717  1.0444
16937TIP3   OH272225   0.478   5.575  14.077  0.6010  0.2405  0.1013
16937TIP3    H172226   0.411   5.522  14.034  0.0936  0.3804  0.7104
16937TIP3    H272227   0.543   5.512  14.107 -0.7395 -0.2355  2.1690
16938TIP3   OH272228   4.559   3.982   2.223 -0.0621  0.3128  0.2192
16938TIP3    H172229   4.575   4.075   2.207  1.2584  0.1750  0.5939
16938TIP3    H272230   4.595   3.938   2.146 -1.6375  0.1618 -0.4492
16939TIP3   OH272231   5.199   3.917   0.924 -0.2237  0.0862 -0.2070
16939TIP3    H172232   5.120   3.878   0.887 -0.3969 -0.3175  0.5537
16939TIP3    H272233   5.176   3.935   1.015  0.2372  0.9054 -0.2460
16940TIP3   OH272234   3.982   5.972   4.647  0.0006 -0.3254  0.2161
16940TIP3    H172235   3.984   6.068   4.648 -0.9122 -0.2968  0.4892
16940TIP3    H272236   4.066   5.946   4.683 -0.3223  0.3918  1.5728
16941TIP3   OH272237   3.000   1.581  11.956 -0.6445  0.2140 -0.0067
16941TIP3    H172238   2.949   1.597  11.876 -0.1822  0.1893 -0.3081
16941TIP3    H272239   2.942   1.527  12.010 -0.9737  0.2525 -0.3125
16942TIP3   OH272240   4.659   1.781  15.706 -0.2748 -0.3417  0.0854
16942TIP3    H172241   4.685   1.873  15.697 -2.3811  0.3488  0.3963
16942TIP3    H272242   4.733   1.739  15.750  1.1575  0.9613 -0.9824
16943TIP3   OH272243   4.426   3.513   6.240  0.0456 -0.5759  0.3097
16943TIP3    H172244   4.446   3.576   6.170 -1.2700  1.2157  1.4685
16943TIP3    H272245   4.331   3.517   6.249 -0.0357 -2.4852  0.6978
16944TIP3   OH272246   0.363   4.637  14.713  0.9706 -1.0493 -0.0074
16944TIP3    H172247   0.300   4.631  14.785 -0.3540  0.5298 -0.9571
16944TIP3    H272248   0.316   4.602  14.637  1.6578 -0.9097 -0.5123
16945TIP3   OH272249   2.098   1.127  12.499  0.1662  0.2236  0.0178
16945TIP3    H172250   2.172   1.128  12.439  1.0799 -1.1097  1.0813
16945TIP3    H272251   2.093   1.217  12.532  1.1159  0.4053 -0.3035
16946TIP3   OH272252   4.780   4.314   0.209 -0.3055  0.2972  0.1655
16946TIP3    H172253   4.802   4.405   0.190  1.0067 -0.0272 -0.0200
16946TIP3    H272254   4.863   4.276   0.240 -0.6104 -1.0431 -0.5989
16947TIP3   OH272255   2.043   0.100  14.913 -0.3362  0.2463 -0.2575
16947TIP3    H172256   2.065   0.111  14.820  2.8368  1.9516  0.5682
16947TIP3    H272257   1.959   0.143  14.923 -0.8809 -0.2001 -2.3551
16948TIP3   OH272258   4.528   1.743  14.657 -0.2361 -0.0018  0.3497
16948TIP3    H172259   4.503   1.736  14.565  0.2212 -1.7878  0.3247
16948TIP3    H272260   4.591   1.815  14.659 -0.9618  0.6762 -0.5655
16949TIP3   OH272261   6.288   3.341  15.117 -0.4245  0.6757 -0.4739
16949TIP3    H172262   6.204   3.381  15.098 -0.4636  0.3565 -0.9837
16949TIP3    H272263   6.341   3.358  15.039 -0.1769  0.4473 -0.3564
16950TIP3   OH272264   0.580   5.962   2.793 -0.2293  0.3338  0.8859
16950TIP3    H172265   0.593   5.973   2.698 -1.7507  2.5984  0.8542
16950TIP3    H272266   0.663   5.991   2.832  0.5938 -1.0999  0.2660
16951TIP3   OH272267   3.595   4.025   2.044  0.5461 -0.4432 -0.7345
16951TIP3    H172268   3.601   4.090   1.974 -1.1783 -0.2878 -0.7626
16951TIP3    H272269   3.513   4.045   2.089  0.3980 -2.0977 -0.2085
16952TIP3   OH272270   6.385   1.246  14.963 -0.1014 -0.1829 -0.1531
16952TIP3    H172271   6.382   1.302  14.885  0.0809  0.7779  0.5121
16952TIP3    H272272   6.392   1.157  14.928 -0.4585  0.1965 -1.2361
16953TIP3   OH272273   5.476   3.601   2.798 -0.2186 -0.2240 -0.1600
16953TIP3    H172274   5.382   3.620   2.803 -0.2084 -0.3466  0.5789
16953TIP3    H272275   5.518   3.675   2.843  0.2178  1.0689 -2.5029
16954TIP3   OH272276   1.890   1.974  14.030  0.1361 -0.4584  0.2622
16954TIP3    H172277   1.907   2.068  14.035  0.3780 -0.4297 -0.7885
16954TIP3    H272278   1.800   1.968  13.997 -0.2750 -0.6026  1.3930
16955TIP3   OH272279   3.440   0.189   2.385 -0.1516  0.2235 -0.2673
16955TIP3    H172280   3.470   0.098   2.391  0.5527  0.4493 -0.3564
16955TIP3    H272281   3.418   0.200   2.293 -1.0135 -0.0909 -0.1139
16956TIP3   OH272282   1.424   3.097   2.035  0.0926  0.5088 -0.5053
16956TIP3    H172283   1.342   3.140   2.058 -0.6413 -0.1313 -1.8344
16956TIP3    H272284   1.433   3.027   2.101 -1.3106 -0.4747 -1.2958
16957TIP3   OH272285   1.511   1.109   1.180  0.1370 -0.1764 -0.0926
16957TIP3    H172286   1.534   1.020   1.207  0.8496  0.0204 -0.0232
16957TIP3    H272287   1.430   1.098   1.130 -0.3768 -0.7329  0.8079
16958TIP3   OH272288   6.641   3.706  15.132  0.3758  0.0683 -0.0868
16958TIP3    H172289   6.696   3.730  15.206  2.1573  0.8266 -1.5745
16958TIP3    H272290   6.559   3.753  15.147  0.6837  0.1797  1.3951
16959TIP3   OH272291   3.677   4.142  12.041 -0.2982  0.3677  0.7566
16959TIP3    H172292   3.746   4.101  12.093 -0.3048 -0.0922  0.4109
16959TIP3    H272293   3.707   4.134  11.950 -2.4238 -3.2236  0.1589
16960TIP3   OH272294   5.391   4.878  13.175 -0.4573  0.4027 -0.8595
16960TIP3    H172295   5.315   4.917  13.131 -0.0945  1.1204 -0.8540
16960TIP3    H272296   5.461   4.942  13.165 -0.5364  0.9208  1.3710
16961TIP3   OH272297   5.635   4.370  14.054  0.3146  0.9994  0.3148
16961TIP3    H172298   5.652   4.338  14.142 -0.0627  1.1570  0.4482
16961TIP3    H272299   5.657   4.296  13.997  1.4832  1.2247  0.4670
16962TIP3   OH272300   6.159   3.908  13.563 -0.2914  0.0836 -0.0387
16962TIP3    H172301   6.082   3.933  13.512  0.7699  0.7552 -1.3748
16962TIP3    H272302   6.125   3.848  13.630 -1.7138 -0.9540 -1.6113
16963TIP3   OH272303   0.969   2.323  13.868 -1.2751  0.5094 -0.0129
16963TIP3    H172304   1.055   2.297  13.835 -0.2386  1.2680  1.9361
16963TIP3    H272305   0.935   2.245  13.911 -0.5152  0.8492  1.2290
16964TIP3   OH272306   0.320   4.914  16.298 -0.2904  0.1323 -0.5084
16964TIP3    H172307   0.257   4.947  16.363 -0.5185  1.7061 -1.4613
16964TIP3    H272308   0.266   4.866  16.235 -0.8512  2.5478 -2.0255
16965TIP3   OH272309   5.393   3.552   0.541 -0.1408  0.2714 -0.2335
16965TIP3    H172310   5.451   3.573   0.468 -0.3474  0.4976 -0.3336
16965TIP3    H272311   5.432   3.596   0.617  0.3651 -0.3967 -0.0954
16966TIP3   OH272312   1.820   2.637   4.630  0.0609 -0.2829  0.4783
16966TIP3    H172313   1.778   2.677   4.554  0.2145 -1.0057  0.0027
16966TIP3    H272314   1.913   2.638   4.609  0.0908 -0.6072  0.5946
16967TIP3   OH272315   3.662   6.458   6.190 -0.3408  0.7049  0.2746
16967TIP3    H172316   3.641   6.481   6.281 -0.8845 -0.7220  0.5453
16967TIP3    H272317   3.585   6.409   6.160  1.6639 -3.0578  0.6535
16968TIP3   OH272318   3.792   5.451  15.360  0.1075 -0.2366 -0.1215
16968TIP3    H172319   3.732   5.525  15.349  1.6077  0.7084 -6.5036
16968TIP3    H272320   3.859   5.483  15.420 -2.1989  1.2687  1.7840
16969TIP3   OH272321   3.261   6.029   4.074  0.5122  0.3440 -0.2265
16969TIP3    H172322   3.261   6.113   4.120 -0.7122  0.3698 -0.2286
16969TIP3    H272323   3.350   5.996   4.083  0.8797  1.4157  0.1965
16970TIP3   OH272324   4.172   1.853  16.928  0.7060 -0.6348 -0.0260
16970TIP3    H172325   4.109   1.913  16.969 -0.3715 -1.3368 -0.5993
16970TIP3    H272326   4.139   1.766  16.950  0.1570 -1.0436 -2.2170
16971TIP3   OH272327   6.378   6.508   4.482  0.7327  0.6593 -0.1041
16971TIP3    H172328   6.354   6.600   4.475  1.1900  0.7187 -1.2055
16971TIP3    H272329   6.343   6.468   4.403 -0.2758 -0.3268  0.8104
16972TIP3   OH272330   5.579   4.139   3.275  0.1284  0.2791 -0.1323
16972TIP3    H172331   5.557   4.222   3.233  0.7559  0.7409  0.4151
16972TIP3    H272332   5.608   4.164   3.363  0.7383 -0.4784 -0.1064
16973TIP3   OH272333   4.884   0.364  15.142 -0.2029  0.0569  0.4955
16973TIP3    H172334   4.973   0.390  15.163  0.2895 -2.1952  1.4703
16973TIP3    H272335   4.892   0.304  15.067 -0.9722  0.3513  0.1584
16974TIP3   OH272336   1.405   0.511  14.130 -0.0442  0.1655  0.0643
16974TIP3    H172337   1.322   0.520  14.176  0.2341 -0.1402  0.6367
16974TIP3    H272338   1.398   0.428  14.083  0.0867 -0.0564  0.4319
16975TIP3   OH272339   5.452   1.188  11.863  0.4445 -0.5419  0.0067
16975TIP3    H172340   5.434   1.178  11.769  0.1440 -1.3616  0.1397
16975TIP3    H272341   5.366   1.205  11.902  0.7501  1.3072 -0.0214
16976TIP3   OH272342   4.637   5.713   1.275  0.3406 -0.1108  0.4635
16976TIP3    H172343   4.558   5.725   1.221  1.9026  0.8102 -1.7728
16976TIP3    H272344   4.638   5.620   1.295 -0.1270 -0.5949 -1.5090
16977TIP3   OH272345   2.948   1.253  12.451  0.2320  0.4737  0.0398
16977TIP3    H172346   2.883   1.183  12.449  1.6906 -0.9505  0.2381
16977TIP3    H272347   2.977   1.261  12.360  4.1901 -3.3778  0.6074
16978TIP3   OH272348   2.006   5.635  10.743  0.4719 -1.0467 -0.3345
16978TIP3    H172349   2.084   5.606  10.791 -0.2222 -1.1890  0.7480
16978TIP3    H272350   2.034   5.713  10.696  0.4857  0.8881  2.6393
16979TIP3   OH272351   0.326   6.275  17.214 -0.8785 -0.2748  0.0312
16979TIP3    H172352   0.328   6.370  17.226 -0.7599 -0.2754  0.0119
16979TIP3    H272353   0.233   6.254  17.204 -0.7860  0.0595 -1.8535
16980TIP3   OH272354   0.676   5.889   5.060 -0.0202 -0.6626  0.0965
16980TIP3    H172355   0.628   5.851   5.134 -1.1978  1.9264  0.7635
16980TIP3    H272356   0.724   5.962   5.099  0.3716 -0.0415 -1.5049
16981TIP3   OH272357   2.951   3.625  11.573 -0.9031 -0.3089 -0.4649
16981TIP3    H172358   2.898   3.681  11.517 -2.1935 -1.5247 -0.5266
16981TIP3    H272359   2.938   3.661  11.661 -1.5929 -0.3940 -0.5222
16982TIP3   OH272360   6.517   6.660  12.200  0.3709  0.0882  0.1794
16982TIP3    H172361   6.498   6.575  12.161  1.7745 -0.0598 -0.2059
16982TIP3    H272362   6.434   6.708  12.193 -0.4011 -1.1771  0.2794
16983TIP3   OH272363   5.575   3.448   4.698 -0.6280  0.1108 -0.2322
16983TIP3    H172364   5.536   3.532   4.720 -0.8964 -0.3424  1.1203
16983TIP3    H272365   5.543   3.429   4.609 -0.4006  1.5030 -0.6325
16984TIP3   OH272366   3.149   3.118   2.478 -0.3596  0.1666  0.1127
16984TIP3    H172367   3.162   3.106   2.572 -1.6130  0.3836  0.3324
16984TIP3    H272368   3.236   3.108   2.440 -0.0273 -1.1381  1.1543
16985TIP3   OH272369   0.936   3.070   1.201  0.2677  0.5215  0.4207
16985TIP3    H172370   1.012   3.123   1.177  0.1066 -0.1865 -1.7948
16985TIP3    H272371   0.880   3.130   1.251  1.8119  1.3080  1.2979
16986TIP3   OH272372   2.582   5.282   1.640 -0.3393  0.4189  0.0483
16986TIP3    H172373   2.593   5.368   1.600  0.2328 -0.2255 -1.2403
16986TIP3    H272374   2.507   5.244   1.593 -1.2489  0.5777  1.3064
16987TIP3   OH272375   5.956   2.165   4.374 -0.8400 -0.1667  0.0519
16987TIP3    H172376   6.001   2.207   4.300 -0.7017  1.5925  1.0727
16987TIP3    H272377   5.941   2.075   4.345 -0.3269  0.3221 -1.9080
16988TIP3   OH272378   6.366   3.452   0.946  0.1449  0.4901 -0.4618
16988TIP3    H172379   6.279   3.428   0.978  1.2792 -1.9466  1.0934
16988TIP3    H272380   6.372   3.410   0.860 -0.9079  2.4387 -1.5523
16989TIP3   OH272381   5.880   0.357  12.563  0.0720  0.3614  0.2053
16989TIP3    H172382   5.945   0.353  12.633  2.0356 -3.2059 -1.5535
16989TIP3    H272383   5.796   0.344  12.608  0.9635  0.8980  2.1258
16990TIP3   OH272384   5.107   4.035  14.512 -0.1441 -0.2181 -0.1590
16990TIP3    H172385   5.142   3.947  14.524 -0.1750 -0.1316  0.5652
16990TIP3    H272386   5.097   4.043  14.417 -0.5670 -1.1586 -0.2103
16991TIP3   OH272387   5.251   0.573  12.299  0.0811 -0.6871  0.3817
16991TIP3    H172388   5.182   0.548  12.360 -2.7683  1.3209 -1.7341
16991TIP3    H272389   5.268   0.665  12.318  2.0025 -1.0344  0.5925
16992TIP3   OH272390   1.852   1.487  14.410  0.1040 -0.4860  0.0821
16992TIP3    H172391   1.863   1.392  14.416  2.4917 -0.3017 -0.3382
16992TIP3    H272392   1.939   1.520  14.386 -0.7184  1.7944 -0.0337
16993TIP3   OH272393   2.726   5.298   5.269 -0.1583  0.8670  0.4591
16993TIP3    H172394   2.649   5.243   5.260  0.0184  0.2958  2.0197
16993TIP3    H272395   2.708   5.375   5.216 -0.5367 -0.5427 -1.5612
16994TIP3   OH272396   3.021   5.343  13.436  0.7776  0.1567 -0.1562
16994TIP3    H172397   2.973   5.274  13.391 -0.2499 -0.2891  1.5069
16994TIP3    H272398   2.962   5.418  13.435 -0.1715 -0.4474  2.0550
16995TIP3   OH272399   0.267   4.968   2.032  0.1657 -0.6494 -0.0885
16995TIP3    H172400   0.301   4.960   1.943  0.1736 -2.9426  0.0468
16995TIP3    H272401   0.314   5.043   2.069  2.7175 -1.7135 -0.9373
16996TIP3   OH272402   4.110   2.117  11.000 -0.3671  0.0319 -0.1437
16996TIP3    H172403   4.106   2.183  10.931 -1.3957 -2.0950 -2.2609
16996TIP3    H272404   4.198   2.080  10.993 -0.8787 -1.0556 -1.2726
16997TIP3   OH272405   3.311   2.950  11.286  0.4906  0.3949 -0.3527
16997TIP3    H172406   3.318   2.871  11.232  0.5760  1.3367 -1.7881
16997TIP3    H272407   3.369   2.934  11.360  0.0797 -1.1042 -0.3318
16998TIP3   OH272408   0.342   3.330  15.704  0.3296 -0.2635 -0.4085
16998TIP3    H172409   0.339   3.343  15.610 -1.3740 -0.5118 -0.4279
16998TIP3    H272410   0.360   3.417  15.740  0.4662 -0.0676 -0.9474
16999TIP3   OH272411   4.618   0.780  15.974  0.0831  0.1831  0.0243
16999TIP3    H172412   4.616   0.788  16.070 -0.5821  0.5873 -0.0231
16999TIP3    H272413   4.606   0.686  15.958 -0.9483  0.2638  0.3035
17000TIP3   OH272414   3.465   2.651  12.726  0.4994 -0.5044  0.7894
17000TIP3    H172415   3.455   2.627  12.818 -1.7632 -0.1487  0.6933
17000TIP3    H272416   3.541   2.601  12.696  0.6407 -1.4225  2.5726
17001TIP3   OH272417   3.061   3.693   3.880 -0.9144  0.6084 -0.4164
17001TIP3    H172418   3.146   3.708   3.921 -0.2487 -0.5128 -1.3335
17001TIP3    H272419   3.054   3.761   3.813 -0.0893 -0.1458 -1.2906
17002TIP3   OH272420   1.813   5.431  10.777  0.6645  0.1432 -0.1616
17002TIP3    H172421   1.863   5.512  10.772  2.5375 -1.0123 -1.7076
17002TIP3    H272422   1.878   5.364  10.798 -0.1968 -1.4169 -2.1209
17003TIP3   OH272423   1.447   4.192  16.607  0.4675  0.5497  0.2019
17003TIP3    H172424   1.416   4.216  16.695  1.2506 -0.3784  0.7523
17003TIP3    H272425   1.396   4.247  16.548 -0.9072  0.3677  1.1663
17004TIP3   OH272426   4.539   4.362  10.787  0.0762  0.0627 -0.1381
17004TIP3    H172427   4.532   4.457  10.786  2.4566  0.3284  0.7440
17004TIP3    H272428   4.463   4.331  10.739 -0.9600  2.3880 -0.1114
17005TIP3   OH272429   4.286   3.043   3.711 -0.4695  0.3384 -0.3526
17005TIP3    H172430   4.263   2.957   3.677  1.8912 -0.2178 -0.6994
17005TIP3    H272431   4.208   3.097   3.695 -1.2072 -1.1659 -2.1092
17006TIP3   OH272432   0.057   1.279  15.324  0.1706 -0.0827 -0.7356
17006TIP3    H172433   0.016   1.201  15.287  2.4151 -0.9109 -1.6775
17006TIP3    H272434  -0.014   1.342  15.333 -1.6056 -2.0005 -0.5268
17007TIP3   OH272435   5.621   1.359  13.689  0.1669 -0.8719  0.1760
17007TIP3    H172436   5.599   1.285  13.632 -0.4422 -0.1410 -0.5443
17007TIP3    H272437   5.551   1.422  13.675  0.0691 -0.6075  1.6350
17008TIP3   OH272438   2.880   5.974   5.074 -0.3245  0.0125 -0.1167
17008TIP3    H172439   2.876   6.060   5.114  0.4282 -0.0900  0.1914
17008TIP3    H272440   2.811   5.924   5.118  0.9004 -0.2912  1.5528
17009TIP3   OH272441   6.681   0.340  16.694  0.2246  0.3623  0.0497
17009TIP3    H172442   6.647   0.419  16.735  0.0822  1.0194 -1.2974
17009TIP3    H272443   6.775   0.357  16.682  0.4967 -0.2837  1.0926
17010TIP3   OH272444   0.406   0.597   3.370  0.3055  0.1965  1.0149
17010TIP3    H172445   0.346   0.624   3.439 -0.8025 -1.4994  0.7584
17010TIP3    H272446   0.492   0.595   3.412  0.0840  1.7817  1.6146
17011TIP3   OH272447   0.835   0.799  13.613  0.0618  0.1373 -0.7679
17011TIP3    H172448   0.901   0.737  13.583  1.2082 -0.4570  2.6013
17011TIP3    H272449   0.879   0.884  13.613 -0.0398  0.1910 -1.0377
17012TIP3   OH272450   4.382   1.445  16.184 -0.2097  0.2937 -0.0350
17012TIP3    H172451   4.293   1.455  16.215 -0.2318 -1.0938  0.4226
17012TIP3    H272452   4.436   1.484  16.252 -0.4646  1.3534 -0.4277
17013TIP3   OH272453   4.546   6.189   6.029  0.2580 -0.0500  0.0485
17013TIP3    H172454   4.501   6.268   5.997  0.8155  1.1261  1.9947
17013TIP3    H272455   4.476   6.125   6.041 -0.6414  1.0394  0.9247
17014TIP3   OH272456   0.915   2.465  14.538  0.4846 -0.1218 -0.8427
17014TIP3    H172457   1.006   2.493  14.526 -0.1622  2.2316 -0.8925
17014TIP3    H272458   0.885   2.513  14.616 -0.9941 -0.0072 -1.4332
17015TIP3   OH272459   3.901   0.703  14.077 -0.0464 -0.0112  0.0780
17015TIP3    H172460   3.871   0.794  14.070 -1.0058 -0.1824  1.5482
17015TIP3    H272461   3.996   0.710  14.084 -0.2215  1.1435  2.8699
17016TIP3   OH272462   0.882   3.395   3.749 -0.6572  0.4400  0.6971
17016TIP3    H172463   0.928   3.438   3.821 -0.7565  1.0904  0.3797
17016TIP3    H272464   0.838   3.320   3.790  3.5657 -2.5092  0.4703
17017TIP3   OH272465   4.921   4.668   0.594  0.0425 -0.6708 -0.3644
17017TIP3    H172466   4.837   4.631   0.568  0.7982 -1.8397 -1.2642
17017TIP3    H272467   4.923   4.662   0.689 -0.5910 -1.3268 -0.3900
17018TIP3   OH272468   0.227   0.814   0.823  0.1494  0.2198 -0.0625
17018TIP3    H172469   0.220   0.758   0.901  0.9788 -1.9445 -1.4519
17018TIP3    H272470   0.285   0.885   0.851 -0.4801  0.1291  1.6086
17019TIP3   OH272471   4.958   5.528  12.001 -0.3451 -0.5710 -0.1593
17019TIP3    H172472   5.017   5.496  11.933  1.7568 -0.2306  1.4117
17019TIP3    H272473   4.873   5.536  11.957  1.0813  0.5484 -2.9942
17020TIP3   OH272474   3.850   2.083  12.457  0.1595  0.6497  0.1247
17020TIP3    H172475   3.945   2.096  12.465 -0.1122  4.7591 -0.6981
17020TIP3    H272476   3.834   2.081  12.363 -0.5744 -0.5472  0.2551
17021TIP3   OH272477   3.882   2.345   4.088  0.5933 -0.0486  0.3907
17021TIP3    H172478   3.861   2.254   4.068 -0.2246  0.0926  0.5692
17021TIP3    H272479   3.798   2.384   4.113  1.1892  0.3359  1.9351
17022TIP3   OH272480   5.243   4.317   3.181  0.7443  0.0460 -0.6410
17022TIP3    H172481   5.256   4.242   3.239  3.8097  0.6556 -0.3588
17022TIP3    H272482   5.253   4.280   3.093  0.8555 -0.1175 -0.5606
17023TIP3   OH272483   4.634   1.493  12.208 -0.1590  0.5504 -0.3792
17023TIP3    H172484   4.664   1.480  12.118  0.1104  2.7474 -0.6567
17023TIP3    H272485   4.542   1.517  12.199 -0.8893 -1.7835  0.1734
17024TIP3   OH272486   3.108   2.948   1.659 -0.0743  0.4079  0.7509
17024TIP3    H172487   3.178   2.942   1.595  0.8451  1.2622  1.6333
17024TIP3    H272488   3.110   2.865   1.706 -1.4728 -0.6889 -0.9722
17025TIP3   OH272489   4.142   2.403  15.307  0.3338 -0.2701 -0.3358
17025TIP3    H172490   4.237   2.415  15.312  0.2658  0.3700 -0.5168
17025TIP3    H272491   4.112   2.470  15.246 -0.2532 -0.3967 -0.1954
17026TIP3   OH272492   6.398   0.273  16.206  0.1969 -0.2254 -0.1311
17026TIP3    H172493   6.395   0.260  16.301  0.5083 -0.1480 -0.1098
17026TIP3    H272494   6.336   0.345  16.190 -1.6070 -1.7249 -0.2697
17027TIP3   OH272495   3.892   6.231   2.894 -0.3515  0.3819 -0.0611
17027TIP3    H172496   3.829   6.198   2.958  0.5736  1.4293  1.4425
17027TIP3    H272497   3.877   6.326   2.892  0.0931  0.4476 -0.9006
17028TIP3   OH272498   0.467   3.811  13.405 -0.0856 -0.2728 -0.0217
17028TIP3    H172499   0.432   3.898  13.382  0.4418 -0.2090 -0.6013
17028TIP3    H272500   0.423   3.752  13.343 -0.0978 -0.3602  0.0709
17029TIP3   OH272501   4.064   6.342  14.649 -0.2930 -0.6497  0.4374
17029TIP3    H172502   4.139   6.396  14.625  0.6913 -2.0280  0.3244
17029TIP3    H272503   4.054   6.281  14.576 -1.8564 -0.1860  0.2074
17030TIP3   OH272504   0.496   5.473   1.446 -0.1233 -0.1605 -0.0560
17030TIP3    H172505   0.584   5.473   1.407  0.6804  4.3109  1.1633
17030TIP3    H272506   0.436   5.475   1.371  0.8998 -1.0604 -0.9247
17031TIP3   OH272507   2.850   1.973  16.586  0.1699 -0.0887 -0.2640
17031TIP3    H172508   2.802   1.892  16.570  0.9069 -0.2932 -1.5195
17031TIP3    H272509   2.931   1.946  16.629 -1.0259  0.3101  2.4291
17032TIP3   OH272510   2.251   4.063   0.617  0.1217 -0.5896  0.4293
17032TIP3    H172511   2.329   4.108   0.584 -0.2231  0.3738  0.9002
17032TIP3    H272512   2.236   3.992   0.553  1.6808 -1.1419  0.6249
17033TIP3   OH272513   5.876   0.520   2.295  0.0893  0.3487 -0.3336
17033TIP3    H172514   5.843   0.546   2.381  0.5250 -1.7096  0.5128
17033TIP3    H272515   5.856   0.427   2.289  1.0238  0.2208 -2.0351
17034TIP3   OH272516   3.160   0.016   6.244  0.2378 -0.0435  0.0750
17034TIP3    H172517   3.087   0.021   6.305 -2.2212  0.1293 -2.6852
17034TIP3    H272518   3.198   0.104   6.243  0.7231 -0.1995  1.6962
17035TIP3   OH272519   1.408   6.008   3.091  0.3123  0.7843 -0.1314
17035TIP3    H172520   1.336   6.006   3.154  1.2115  0.5397  0.9312
17035TIP3    H272521   1.366   6.002   3.005 -0.9066  0.4483  0.4715
17036TIP3   OH272522   6.374   2.949  12.058 -0.7364  0.0378 -0.2205
17036TIP3    H172523   6.393   3.040  12.037  0.2615  0.4153  2.0753
17036TIP3    H272524   6.294   2.952  12.110 -1.1354 -0.4948 -0.7879
17037TIP3   OH272525   1.394   4.939   0.230  0.2534 -0.1796 -0.2908
17037TIP3    H172526   1.419   4.849   0.252  0.9902  0.3313  1.0771
17037TIP3    H272527   1.387   4.983   0.315  0.5501  1.2227 -0.9653
17038TIP3   OH272528   0.821   2.787   5.044  0.7668 -0.3379 -0.3868
17038TIP3    H172529   0.881   2.767   4.973  2.6025  0.0933  0.9589
17038TIP3    H272530   0.822   2.883   5.050  2.3127 -0.4002  1.4888
17039TIP3   OH272531   2.039   1.618  15.575 -0.1568  0.0534  0.2221
17039TIP3    H172532   2.020   1.543  15.519 -0.7002  1.0957 -1.0404
17039TIP3    H272533   1.992   1.691  15.534 -1.5137  0.6613  2.6619
17040TIP3   OH272534   1.894   3.278   4.177  0.4546  0.0971 -0.2697
17040TIP3    H172535   1.977   3.288   4.130  0.7007  0.4024  0.2295
17040TIP3    H272536   1.896   3.188   4.211  0.4417  0.0034 -0.5071
17041TIP3   OH272537   4.890   3.623   6.429  0.0860  0.1909  0.2138
17041TIP3    H172538   4.896   3.591   6.519  0.7407  1.0890  0.5051
17041TIP3    H272539   4.841   3.706   6.436 -1.2587 -0.5047 -0.4756
17042TIP3   OH272540   2.524   0.906  16.826  0.0157 -0.2953 -0.2363
17042TIP3    H172541   2.595   0.941  16.880  0.5905 -0.6653 -0.7445
17042TIP3    H272542   2.510   0.973  16.759  0.1695 -0.4133 -0.3850
17043TIP3   OH272543   6.303   2.120   1.963 -0.5523  0.3992  0.1342
17043TIP3    H172544   6.304   2.051   1.896  1.2056 -0.2060  0.7135
17043TIP3    H272545   6.237   2.090   2.026  0.5031 -1.0334  0.6124
17044TIP3   OH272546   3.551   2.034   1.325  0.3472  0.2654 -0.0785
17044TIP3    H172547   3.518   2.090   1.395  2.3322 -0.7050  1.7757
17044TIP3    H272548   3.591   2.094   1.262  1.4133  1.0280  1.2778
17045TIP3   OH272549   2.826   2.847  16.314  0.2094  0.1909 -0.5016
17045TIP3    H172550   2.758   2.911  16.337  0.3285  0.6123 -1.3115
17045TIP3    H272551   2.781   2.785  16.256  0.9314  1.4944 -2.5544
17046TIP3   OH272552   2.646   5.094  13.148  0.1085 -0.1397 -0.2196
17046TIP3    H172553   2.695   5.086  13.066 -0.8065 -2.7146 -0.5950
17046TIP3    H272554   2.592   5.172  13.137 -0.1820 -0.5733 -2.2056
17047TIP3   OH272555   4.364   5.345  16.362 -0.7117 -0.1708  0.4173
17047TIP3    H172556   4.291   5.283  16.349 -0.6882  0.4286 -4.1316
17047TIP3    H272557   4.323   5.431  16.355 -0.0577  0.3004  1.9754
17048TIP3   OH272558   6.241   2.233   4.764  0.3578 -0.1386 -0.1412
17048TIP3    H172559   6.199   2.217   4.848 -0.4907  1.2748 -0.2511
17048TIP3    H272560   6.172   2.217   4.700  0.7544 -0.3719 -0.5157
17049TIP3   OH272561   0.901   6.135  14.226  0.3344 -0.1660  0.1123
17049TIP3    H172562   0.834   6.130  14.294  0.5183  1.1023  0.4134
17049TIP3    H272563   0.869   6.078  14.156 -0.6671 -0.2041  0.5819
17050TIP3   OH272564   1.043   2.360  15.389 -0.0737 -0.4940 -0.0167
17050TIP3    H172565   1.102   2.363  15.465 -1.5812 -0.8081  1.2297
17050TIP3    H272566   0.987   2.284  15.405  0.2012 -1.1528 -1.9788
17051TIP3   OH272567   2.539   6.067   5.585  0.5106  0.0109 -0.1381
17051TIP3    H172568   2.450   6.035   5.604  1.1382 -2.3529 -0.7964
17051TIP3    H272569   2.583   5.991   5.546  2.5844  1.3823 -0.5872
17052TIP3   OH272570   2.017   2.839  12.721  0.0424 -0.2523 -0.1267
17052TIP3    H172571   2.069   2.879  12.791  0.5377  2.7531 -1.9953
17052TIP3    H272572   1.927   2.844  12.753  0.1083  2.2826 -0.0870
17053TIP3   OH272573   0.355   1.813   2.312  0.0261  0.1412 -0.6566
17053TIP3    H172574   0.410   1.882   2.276  0.2998 -0.3528 -1.2058
17053TIP3    H272575   0.403   1.732   2.295 -1.0008 -0.3291 -1.4403
17054TIP3   OH272576   0.942   2.031  13.758 -0.3424  0.0404  0.5409
17054TIP3    H172577   0.925   2.029  13.852  1.2044 -1.6075  0.8504
17054TIP3    H272578   0.999   1.956  13.743 -0.8355  0.0636 -1.7876
17055TIP3   OH272579   6.483   2.073  15.100  0.3791 -0.9035  0.1148
17055TIP3    H172580   6.401   2.028  15.119  0.5985 -0.6053  1.9399
17055TIP3    H272581   6.458   2.164  15.088  0.5085 -0.7099  1.2837
17056TIP3   OH272582   3.870   1.462   3.796  0.3856  0.4838 -0.2422
17056TIP3    H172583   3.951   1.509   3.814 -1.2676  2.9596  1.3067
17056TIP3    H272584   3.806   1.499   3.857 -1.5691 -2.4841 -0.2659
17057TIP3   OH272585   1.440   1.398  15.034  0.5192 -0.1958 -0.6992
17057TIP3    H172586   1.345   1.408  15.031  0.4589 -0.1875  0.6079
17057TIP3    H272587   1.455   1.322  15.090  1.2939  0.4416 -0.0039
17058TIP3   OH272588   2.695   3.270   2.460  0.3390 -0.0493 -0.1657
17058TIP3    H172589   2.630   3.212   2.499 -0.0290 -0.3242 -1.1657
17058TIP3    H272590   2.755   3.211   2.414  0.6431  0.2867 -0.2052
17059TIP3   OH272591   3.575   3.628  17.000  0.0289  0.2719  0.2626
17059TIP3    H172592   3.646   3.635  17.065  3.0029 -2.3868 -2.3822
17059TIP3    H272593   3.583   3.708  16.948  1.8548 -0.4166 -0.5983
17060TIP3   OH272594   4.631   3.289  17.333  0.5457  0.2262  0.0307
17060TIP3    H172595   4.630   3.206  17.286 -1.2139  0.1380  0.1368
17060TIP3    H272596   4.635   3.265  17.425 -0.5911  0.1973  0.0926
17061TIP3   OH272597   0.997   2.101  11.195 -0.1314  0.1627  0.3091
17061TIP3    H172598   0.945   2.040  11.247 -2.5932  2.3325  0.5651
17061TIP3    H272599   0.965   2.089  11.105 -1.4945  1.8106  0.5306
17062TIP3   OH272600   3.742   5.854   3.863  0.0995 -0.0668  0.1409
17062TIP3    H172601   3.832   5.825   3.882  0.4977  0.8538 -0.2943
17062TIP3    H272602   3.739   5.943   3.895  0.2862  0.9824 -2.4868
17063TIP3   OH272603   2.419   2.477  15.726 -0.2689  0.0177  0.0341
17063TIP3    H172604   2.380   2.416  15.788  0.4533 -0.8250 -0.3065
17063TIP3    H272605   2.369   2.465  15.645 -1.5035  1.4440  0.5529
17064TIP3   OH272606   4.300   4.854  11.946 -0.0956 -0.0813  0.6990
17064TIP3    H172607   4.391   4.848  11.977  1.1471  0.2807 -2.4570
17064TIP3    H272608   4.265   4.766  11.956  1.0066 -0.5125  0.9329
17065TIP3   OH272609   2.587   1.601  12.659 -0.6601 -0.2335 -0.0652
17065TIP3    H172610   2.664   1.549  12.681 -0.8293 -0.2034  0.6095
17065TIP3    H272611   2.612   1.691  12.680 -1.4724 -0.4193  1.8522
17066TIP3   OH272612   0.061   0.240   5.421  0.5628  0.4674  0.6298
17066TIP3    H172613   0.155   0.257   5.423  0.2082  3.4045 -1.3382
17066TIP3    H272614   0.036   0.237   5.513  2.5605 -0.6119  1.2082
17067TIP3   OH272615   0.690   1.095  15.758 -0.8187  0.1424  0.5118
17067TIP3    H172616   0.726   1.012  15.726  0.5422  1.0021 -0.2684
17067TIP3    H272617   0.610   1.107  15.706  0.6065  0.8084 -1.6992
17068TIP3   OH272618   4.447   1.998   6.089 -0.2927 -0.0938 -0.5074
17068TIP3    H172619   4.353   2.002   6.074 -0.1778 -0.4018 -1.3172
17068TIP3    H272620   4.455   1.994   6.185 -1.0369  1.3305 -0.3674
17069TIP3   OH272621   4.634   1.751   1.401  0.1417 -0.0110 -0.3150
17069TIP3    H172622   4.589   1.759   1.486  1.1337 -2.7692  0.5839
17069TIP3    H272623   4.566   1.719   1.341 -0.5503  1.8943 -0.6321
17070TIP3   OH272624   6.440   6.113   0.820 -0.3151  0.0806  0.2742
17070TIP3    H172625   6.468   6.023   0.839  0.6545  0.1569 -0.6930
17070TIP3    H272626   6.425   6.114   0.726  0.4625  1.1407  0.1501
17071TIP3   OH272627   4.275   3.048   1.785 -0.5261 -0.4145  0.2734
17071TIP3    H172628   4.343   2.983   1.770 -0.8178 -0.2828 -2.0973
17071TIP3    H272629   4.317   3.116   1.837  0.2963 -1.6517  1.2720
17072TIP3   OH272630   6.701   1.257   2.652 -0.6994 -0.1379 -0.2298
17072TIP3    H172631   6.633   1.242   2.585  0.0108 -0.7069 -0.8364
17072TIP3    H272632   6.675   1.202   2.725 -0.3362 -1.1831 -0.8673
17073TIP3   OH272633   5.195   4.815   2.135 -0.5876  0.4057  0.0798
17073TIP3    H172634   5.101   4.812   2.117 -1.0832 -0.1094  2.4383
17073TIP3    H272635   5.202   4.852   2.223  1.3432 -0.5774  0.4087
17074TIP3   OH272636   4.134   1.185   2.192 -0.2692  0.6564  0.2040
17074TIP3    H172637   4.141   1.223   2.105  0.7142  3.2161  1.3079
17074TIP3    H272638   4.074   1.243   2.239  0.1728  0.0475  1.5878
17075TIP3   OH272639   1.809   4.418   4.272  0.0423 -0.2466  0.6191
17075TIP3    H172640   1.748   4.438   4.201  1.4973 -1.8639 -1.2235
17075TIP3    H272641   1.798   4.324   4.286  0.9681 -0.2590  1.3483
17076TIP3   OH272642   1.062   6.246  13.525  0.3660  0.6976 -0.1255
17076TIP3    H172643   0.967   6.245  13.538  0.2706 -1.6495 -0.6841
17076TIP3    H272644   1.075   6.222  13.434  1.5141  1.5084 -0.2036
17077TIP3   OH272645   1.154   3.288  16.932  0.1666  0.3243 -0.3403
17077TIP3    H172646   1.089   3.238  16.882  0.8922 -0.6476 -0.3508
17077TIP3    H272647   1.234   3.237  16.924  0.9712  1.5750 -0.4277
17078TIP3   OH272648   0.978   3.012   2.179 -0.4603 -0.3646 -0.5469
17078TIP3    H172649   0.993   2.991   2.087 -0.9328  2.1782 -1.2927
17078TIP3    H272650   0.899   3.067   2.179 -0.2656  0.0001  1.3304
17079TIP3   OH272651   5.743   5.047   5.966  0.3558 -0.3526  0.3081
17079TIP3    H172652   5.739   5.090   6.051  0.6060 -0.6282  0.4609
17079TIP3    H272653   5.659   5.002   5.957  0.4204 -0.5192  0.5177
17080TIP3   OH272654   4.481   1.440   4.582  0.2216  0.2698 -0.3418
17080TIP3    H172655   4.566   1.449   4.537  0.5976  1.4481  0.5350
17080TIP3    H272656   4.417   1.473   4.519  0.2534 -1.4818 -1.3710
17081TIP3   OH272657   4.980   2.937  12.314  0.2150 -0.0625 -0.2316
17081TIP3    H172658   5.007   2.869  12.377 -1.5208 -0.1013  0.5259
17081TIP3    H272659   5.061   2.983  12.293  0.7402  0.7476  3.0143
17082TIP3   OH272660   2.747   4.656   2.908 -0.0846  0.0096 -0.2259
17082TIP3    H172661   2.667   4.647   2.857 -0.8418  0.8728  0.7628
17082TIP3    H272662   2.729   4.609   2.990 -0.2553  1.6517  0.7146
17083TIP3   OH272663   5.547   5.824   4.121 -0.2003 -0.3363 -0.6883
17083TIP3    H172664   5.469   5.848   4.171 -1.2077 -1.0561 -1.8617
17083TIP3    H272665   5.519   5.751   4.065  1.7226 -1.6972 -0.0130
17084TIP3   OH272666   5.704   4.023  10.903 -0.4876 -0.5993  0.7282
17084TIP3    H172667   5.776   3.973  10.865  0.3727 -0.6957  2.3795
17084TIP3    H272668   5.698   4.102  10.849 -0.4036 -1.4551 -0.5651
17085TIP3   OH272669   0.345   2.568  16.618  0.1503  0.2893  0.0322
17085TIP3    H172670   0.313   2.577  16.708 -0.1451 -0.7287  0.0428
17085TIP3    H272671   0.356   2.658  16.588 -3.4666  0.7986 -0.2368
17086TIP3   OH272672   2.247   1.114  17.345 -0.0172  0.5033 -0.2061
17086TIP3    H172673   2.250   1.208  17.364 -0.2247  0.9732 -2.1861
17086TIP3    H272674   2.252   1.109  17.249  1.0026 -1.5680 -0.1059
17087TIP3   OH272675   0.419   3.912   1.438 -0.5177 -0.0724 -0.6019
17087TIP3    H172676   0.440   3.918   1.345  0.5146  0.6873 -0.3396
17087TIP3    H272677   0.494   3.953   1.482 -1.3043  0.1975  0.5268
17088TIP3   OH272678   3.210   0.701   6.011  0.0210  0.0275  0.0938
17088TIP3    H172679   3.261   0.781   6.006 -1.1517  0.7734 -0.1898
17088TIP3    H272680   3.223   0.670   6.101  0.8865  0.2447  0.0535
17089TIP3   OH272681   5.430   5.613  16.585 -0.3873  0.3986 -0.5854
17089TIP3    H172682   5.349   5.570  16.609  0.0143 -0.9370 -1.5298
17089TIP3    H272683   5.409   5.662  16.505 -0.8021  1.9124  0.3977
17090TIP3   OH272684   2.023   2.456  16.250  0.6320 -0.4283 -0.4244
17090TIP3    H172685   1.987   2.516  16.185  0.9909 -0.7261 -0.9087
17090TIP3    H272686   1.949   2.434  16.306  0.0643 -0.9736 -1.3608
17091TIP3   OH272687   4.632   3.814   5.016  0.0151  0.5377 -0.3651
17091TIP3    H172688   4.579   3.883   5.056  0.3426  0.8982 -0.5342
17091TIP3    H272689   4.660   3.852   4.932  0.1375  0.1669 -0.4944
17092TIP3   OH272690   0.169   2.493  12.197 -0.5086  0.4589  0.5491
17092TIP3    H172691   0.145   2.433  12.126  1.8015  0.2165 -0.0903
17092TIP3    H272692   0.110   2.469  12.269 -2.8445  0.6446 -1.1747
17093TIP3   OH272693   1.937   3.183  13.931  0.4100 -0.5132  0.1506
17093TIP3    H172694   1.960   3.276  13.933  0.3810 -0.4569 -1.5058
17093TIP3    H272695   1.866   3.175  13.995  0.8432  0.4665  0.7830
17094TIP3   OH272696   2.603   1.907  17.297  0.1800  0.3007  0.1517
17094TIP3    H172697   2.610   1.899  17.392 -1.5592 -3.0297  0.1258
17094TIP3    H272698   2.509   1.898  17.279  0.4301  1.2651 -1.9104
17095TIP3   OH272699   5.396   0.369   3.475 -0.1799 -0.3560  0.5989
17095TIP3    H172700   5.477   0.379   3.525  0.6658 -2.5060 -0.2191
17095TIP3    H272701   5.327   0.392   3.537  0.9158 -1.2547  2.2382
17096TIP3   OH272702   2.048   5.187   3.678 -0.1680 -0.0699 -0.6540
17096TIP3    H172703   2.038   5.104   3.725 -0.1310  0.1702 -0.2154
17096TIP3    H272704   1.981   5.184   3.610 -1.3980  0.3062  0.4954
17097TIP3   OH272705   5.749   0.616   4.821 -0.1702 -0.0644 -0.3419
17097TIP3    H172706   5.829   0.669   4.813  0.3100 -0.9585 -1.9020
17097TIP3    H272707   5.759   0.571   4.905  1.4387 -0.8350 -0.8922
17098TIP3   OH272708   2.753   3.190  13.163 -0.0738 -0.3987 -0.3479
17098TIP3    H172709   2.808   3.257  13.204 -0.7501  0.2135 -0.4221
17098TIP3    H272710   2.695   3.239  13.104 -2.1559 -0.7526  1.2885
17099TIP3   OH272711   6.159   0.505  16.739 -0.4730  0.0682  0.0844
17099TIP3    H172712   6.216   0.509  16.816 -2.6366  1.6593  1.7516
17099TIP3    H272713   6.210   0.546  16.670  0.4143  1.6111  1.5581
17100TIP3   OH272714   4.750   6.511  11.503 -0.2961  0.1894 -0.1480
17100TIP3    H172715   4.810   6.555  11.563 -2.7293  2.4699  0.8374
17100TIP3    H272716   4.758   6.559  11.421  0.4076 -0.5802 -0.5373
17101TIP3   OH272717   5.778   1.020  14.400 -0.3475 -0.0085  0.2506
17101TIP3    H172718   5.788   1.024  14.305 -0.8786 -1.1193  0.1213
17101TIP3    H272719   5.695   1.063  14.417 -0.4345 -0.1344  0.1577
17102TIP3   OH272720   2.539   4.244   1.219  0.1255  0.5056 -0.6434
17102TIP3    H172721   2.467   4.287   1.266  1.3224  2.1761 -0.2220
17102TIP3    H272722   2.618   4.275   1.264  1.1580 -0.5017 -1.7050
17103TIP3   OH272723   0.438   4.594   4.127 -0.0928  0.9009 -0.4950
17103TIP3    H172724   0.377   4.544   4.073  0.8750 -0.3745 -0.4475
17103TIP3    H272725   0.493   4.641   4.064 -1.0280  1.9550 -0.5402
17104TIP3   OH272726   4.324   6.449  14.586 -0.0503 -0.3695  0.4110
17104TIP3    H172727   4.303   6.438  14.493  0.0910 -0.4407  0.3876
17104TIP3    H272728   4.383   6.524  14.588  3.3195 -2.7538 -0.0433
17105TIP3   OH272729   6.371   5.234  13.861 -0.0633  0.8136  0.2127
17105TIP3    H172730   6.378   5.236  13.957 -1.4865  0.5752  0.3472
17105TIP3    H272731   6.437   5.297  13.831  1.7193 -0.4715  1.2410
17106TIP3   OH272732   3.837   0.369  17.266 -0.7519 -0.4551 -0.1813
17106TIP3    H172733   3.751   0.341  17.234  0.1786 -2.3839 -1.1404
17106TIP3    H272734   3.897   0.351  17.193  0.6278 -0.0471  0.8097
17107TIP3   OH272735   6.147   4.607   0.280 -0.2497 -0.3466  0.1350
17107TIP3    H172736   6.065   4.557   0.287  0.0266 -0.7911  0.2621
17107TIP3    H272737   6.121   4.690   0.241 -0.8703 -0.2239  0.7798
17108TIP3   OH272738   6.503   2.339   5.767  0.0282 -0.0165 -0.3219
17108TIP3    H172739   6.553   2.269   5.725 -0.9786 -0.7232 -0.3743
17108TIP3    H272740   6.473   2.301   5.849 -1.2171  0.0780 -0.7215
17109TIP3   OH272741   0.000   1.228   0.378 -0.2322 -0.0785 -0.1470
17109TIP3    H172742  -0.077   1.280   0.398 -1.5158 -2.0301  0.2582
17109TIP3    H272743  -0.010   1.149   0.431  1.2271 -1.0933 -1.2900
17110TIP3   OH272744   4.337   4.274  17.111 -0.0666  0.3876  0.4091
17110TIP3    H172745   4.399   4.208  17.080 -1.2862  0.1013 -1.5974
17110TIP3    H272746   4.298   4.310  17.032 -0.8487  2.1573  1.5312
17111TIP3   OH272747   2.122   6.392   5.821  0.8847  0.5832  0.4708
17111TIP3    H172748   2.213   6.405   5.795  1.1138 -0.8485  0.4708
17111TIP3    H272749   2.124   6.317   5.880 -0.2513  0.7560  0.7580
17112TIP3   OH272750   1.215   2.557  14.136 -0.2822 -0.0739  0.6705
17112TIP3    H172751   1.290   2.607  14.169  0.2874  1.2397 -2.2830
17112TIP3    H272752   1.252   2.499  14.070 -1.4298 -2.2024  1.7689
17113TIP3   OH272753   0.761   5.708   4.881  0.2812  0.0302  0.2098
17113TIP3    H172754   0.771   5.752   4.796 -2.2199 -1.9525 -1.2632
17113TIP3    H272755   0.747   5.779   4.943  1.5116  1.5193 -1.1187
17114TIP3   OH272756   5.924   1.695   0.150  0.0937  0.2312 -0.5833
17114TIP3    H172757   5.833   1.668   0.159 -0.1422  1.2470  0.1503
17114TIP3    H272758   5.962   1.631   0.089 -0.6744 -1.2154  0.4065
17115TIP3   OH272759   4.792   1.971   6.340  0.4774 -0.4542 -0.1897
17115TIP3    H172760   4.830   2.037   6.397 -1.3003 -0.9876  1.7250
17115TIP3    H272761   4.855   1.898   6.343  2.3768  0.9473 -2.2097
17116TIP3   OH272762   1.300   6.266  11.185 -0.4316  0.2951  0.1839
17116TIP3    H172763   1.219   6.316  11.195 -0.7909 -0.4777  1.3242
17116TIP3    H272764   1.273   6.175  11.191  0.2394 -0.0772 -1.7159
17117TIP3   OH272765   2.747   4.471  12.442 -0.1275 -0.5095 -0.0365
17117TIP3    H172766   2.664   4.519  12.441  0.8435  1.2908  0.6148
17117TIP3    H272767   2.783   4.483  12.354 -0.2117 -0.6403 -0.0886
17118TIP3   OH272768   2.921   0.713   2.666 -0.6091 -0.2564  0.0547
17118TIP3    H172769   3.007   0.746   2.642  0.0297 -1.7541  0.2114
17118TIP3    H272770   2.937   0.652   2.737 -1.6485 -1.5154 -0.7518
17119TIP3   OH272771   0.874   2.206  15.060  0.3397 -0.1577 -0.1255
17119TIP3    H172772   0.923   2.285  15.083 -3.1222  1.7778  1.3126
17119TIP3    H272773   0.855   2.215  14.967  1.2332 -0.0862 -0.3045
17120TIP3   OH272774   1.413   0.636   3.270 -0.4105 -0.0820 -0.6553
17120TIP3    H172775   1.419   0.689   3.349 -0.7640 -1.7480  0.5455
17120TIP3    H272776   1.465   0.682   3.205  1.5058  0.3548  1.1120
17121TIP3   OH272777   2.479   2.339   0.516 -0.3407 -0.4623  0.3784
17121TIP3    H172778   2.517   2.395   0.584 -0.1312  1.5441 -1.2777
17121TIP3    H272779   2.384   2.353   0.524 -0.4232 -1.3552  1.1370
17122TIP3   OH272780   2.396   0.084  14.017 -0.0328 -0.4734 -0.2763
17122TIP3    H172781   2.408   0.144  13.943  1.4915  0.3774  0.5989
17122TIP3    H272782   2.403  -0.003  13.979  0.3374 -0.0583 -1.1997
17123TIP3   OH272783   5.128   0.471  15.195 -0.1554 -0.2318  0.4827
17123TIP3    H172784   5.112   0.509  15.281 -0.4836 -0.6906  0.6273
17123TIP3    H272785   5.192   0.401  15.211 -0.5351 -0.5964  0.4217
17124TIP3   OH272786   5.535   5.760  13.153  0.2519 -0.0386 -0.2144
17124TIP3    H172787   5.622   5.789  13.124  0.0128 -0.2678 -1.1748
17124TIP3    H272788   5.552   5.713  13.235  1.2734 -1.6561 -1.2969
17125TIP3   OH272789   4.206   5.552   5.042 -0.7490 -0.4391 -0.3105
17125TIP3    H172790   4.246   5.484   5.097  0.7473 -0.7096 -1.6732
17125TIP3    H272791   4.151   5.602   5.103  0.0004 -1.3828  1.2122
17126TIP3   OH272792   0.994   2.819   3.754 -0.0842  0.2414 -0.0257
17126TIP3    H172793   0.979   2.912   3.737 -1.0319  0.1252  0.1260
17126TIP3    H272794   0.943   2.801   3.833 -0.2080 -0.4936 -0.2743
17127TIP3   OH272795   6.476   3.526  13.991 -0.3013 -0.0844 -0.2335
17127TIP3    H172796   6.451   3.617  13.976  0.3001  0.3186  1.0568
17127TIP3    H272797   6.442   3.506  14.078 -1.2215 -1.4039 -0.8621
17128TIP3   OH272798   5.178   6.652  15.864  0.2851  0.0447 -0.1200
17128TIP3    H172799   5.261   6.698  15.857  0.2968  0.5325  2.5183
17128TIP3    H272800   5.196   6.579  15.924 -1.7952  1.9272  3.0442
17129TIP3   OH272801   6.635   4.970  12.195  0.0841 -0.0447  0.0852
17129TIP3    H172802   6.674   4.887  12.167  1.9486  0.6229  0.5547
17129TIP3    H272803   6.687   4.996  12.271 -0.4891  1.5330 -0.0431
17130TIP3   OH272804   1.213   1.718  15.564  0.3611 -0.1760  0.3687
17130TIP3    H172805   1.271   1.791  15.586  0.3401 -1.2556  5.1872
17130TIP3    H272806   1.141   1.758  15.517  1.7160  2.3985  0.2885
17131TIP3   OH272807   1.178   6.593  12.594  0.3105  0.8994  0.4776
17131TIP3    H172808   1.272   6.607  12.583  0.6403 -1.0287  0.4326
17131TIP3    H272809   1.164   6.503  12.565 -1.3753  0.7872  1.5034
17132TIP3   OH272810   6.020   4.993   5.219  0.3061  0.6863  0.2480
17132TIP3    H172811   6.058   4.906   5.210  1.1218  1.0792 -0.1961
17132TIP3    H272812   6.078   5.050   5.170 -0.2284  1.4867  0.5196
17133TIP3   OH272813   4.822   5.760  14.209  0.0784  0.0364 -1.2171
17133TIP3    H172814   4.779   5.777  14.125 -1.0670  1.3848 -0.4150
17133TIP3    H272815   4.752   5.728  14.265  0.9729 -1.4957 -0.9385
17134TIP3   OH272816   1.701   6.100  14.530 -0.0183 -0.3682  0.2224
17134TIP3    H172817   1.661   6.146  14.457  1.3990 -1.2840 -1.1914
17134TIP3    H272818   1.665   6.143  14.608 -1.5744  0.6283 -0.9772
17135TIP3   OH272819   0.666   0.950  12.536  0.2262 -0.6285 -0.0688
17135TIP3    H172820   0.622   0.866  12.549 -0.3958 -0.5958 -1.8088
17135TIP3    H272821   0.606   1.015  12.574 -0.1715 -0.7977 -0.4027
17136TIP3   OH272822   2.014   3.472   4.936  0.0542 -0.3159  0.1670
17136TIP3    H172823   2.011   3.385   4.976 -1.4079 -0.6688 -0.6372
17136TIP3    H272824   2.018   3.456   4.842  0.5403  0.4992  0.0366
17137TIP3   OH272825   2.803   1.959   0.810  0.3236 -0.4038 -0.1890
17137TIP3    H172826   2.742   1.888   0.791 -0.2441  0.2977 -1.0386
17137TIP3    H272827   2.886   1.914   0.830 -0.6255 -1.4216  1.8601
17138TIP3   OH272828   3.045   3.604  15.022  0.6017  0.6482  0.3870
17138TIP3    H172829   2.999   3.568  14.946 -0.1244  1.7311  0.2909
17138TIP3    H272830   3.001   3.688  15.039  0.9878  0.5923  1.7780
17139TIP3   OH272831   2.978   4.959   0.636 -0.3828 -0.0343  0.0056
17139TIP3    H172832   3.035   5.026   0.597  1.1313 -1.3738 -0.2075
17139TIP3    H272833   2.952   4.904   0.562  1.0969 -1.5764  0.5705
17140TIP3   OH272834   6.304   5.937   4.416 -0.1180  0.1850 -0.2944
17140TIP3    H172835   6.340   5.870   4.358  0.4880  0.6988 -0.5143
17140TIP3    H272836   6.260   5.887   4.485 -1.2326 -0.4400 -1.4115
17141TIP3   OH272837   1.577   1.795   2.592 -0.0802 -0.4080  0.0720
17141TIP3    H172838   1.560   1.751   2.509 -2.2708 -1.0424  0.7793
17141TIP3    H272839   1.668   1.826   2.585  0.4293 -2.1061 -1.7780
17142TIP3   OH272840   6.144   3.027  14.295 -0.5353 -0.2760 -0.2368
17142TIP3    H172841   6.157   2.934  14.315 -0.3305 -0.8965 -2.9015
17142TIP3    H272842   6.139   3.030  14.200  1.8129  2.7433 -0.3980
17143TIP3   OH272843   4.699   0.753   1.792 -0.2803 -0.1093 -0.3447
17143TIP3    H172844   4.608   0.758   1.820 -0.2882 -0.6080 -0.2840
17143TIP3    H272845   4.748   0.741   1.873 -0.1893 -0.2188 -0.4166
17144TIP3   OH272846   1.101   4.835  11.083  0.4439 -0.2225 -0.1943
17144TIP3    H172847   1.091   4.803  10.994  2.2367 -0.1208 -0.4626
17144TIP3    H272848   1.191   4.866  11.088 -0.6676  3.2339  0.5659
17145TIP3   OH272849   2.075   2.411  11.623  0.0380 -0.0564  0.2154
17145TIP3    H172850   2.049   2.441  11.710  0.2466 -0.5284  0.4463
17145TIP3    H272851   1.993   2.399  11.576 -0.1493 -0.9228  0.7330
17146TIP3   OH272852   5.175   2.425  14.785 -0.7027  0.2642  0.6209
17146TIP3    H172853   5.204   2.514  14.767  0.1037  0.1699  1.3708
17146TIP3    H272854   5.115   2.434  14.860 -0.9083  0.2112  0.4655
17147TIP3   OH272855   1.278   1.778   4.091 -0.0614 -0.1773 -0.0088
17147TIP3    H172856   1.318   1.706   4.140  0.4007  0.4508  0.5556
17147TIP3    H272857   1.226   1.735   4.023  1.3087 -1.0329 -0.5670
17148TIP3   OH272858   3.343   1.448   3.298  0.5534 -0.0669 -0.0487
17148TIP3    H172859   3.268   1.506   3.304  0.4201 -0.3779  2.9353
17148TIP3    H272860   3.306   1.363   3.274 -0.0776 -0.1934  1.2982
17149TIP3   OH272861   4.256   5.588  16.333 -0.0048 -0.3558 -0.4253
17149TIP3    H172862   4.178   5.639  16.312  0.6992  0.3200 -1.5418
17149TIP3    H272863   4.322   5.653  16.356  0.0974 -0.9464  1.0752
17150TIP3   OH272864   0.988   3.120   2.568 -0.2802 -0.1367 -0.3347
17150TIP3    H172865   1.014   3.190   2.629  0.2658  0.0708 -0.7980
17150TIP3    H272866   1.058   3.118   2.503 -0.1939 -1.2533 -0.2170
17151TIP3   OH272867   1.643   4.019   2.720  0.2909 -0.2185  0.5494
17151TIP3    H172868   1.694   4.080   2.666 -0.8383  1.2229  1.0643
17151TIP3    H272869   1.663   3.933   2.683  2.0851  0.4146 -0.0715
17152TIP3   OH272870   3.132   2.481  13.477  0.5563 -0.1853  0.4879
17152TIP3    H172871   3.146   2.464  13.571  0.4349  0.7436  0.6874
17152TIP3    H272872   3.048   2.441  13.458  0.9424 -1.0655  0.5860
17153TIP3   OH272873   3.575   2.041  12.389  0.3260  0.1425  0.1537
17153TIP3    H172874   3.502   2.084  12.434 -0.3736 -0.9027  0.0630
17153TIP3    H272875   3.653   2.085  12.423 -0.2790  0.5095  1.1281
17154TIP3   OH272876   0.533   4.694   5.772  0.0279 -0.1492 -0.1948
17154TIP3    H172877   0.580   4.718   5.852 -0.0158 -2.0094  0.4504
17154TIP3    H272878   0.441   4.709   5.793  0.1373  1.2460 -0.6247
17155TIP3   OH272879   0.904   2.184   3.651 -0.4068 -0.1213 -0.3508
17155TIP3    H172880   0.978   2.235   3.617 -0.3251  0.8027  1.1353
17155TIP3    H272881   0.850   2.248   3.696 -0.7059 -1.2237  0.9154
17156TIP3   OH272882   0.671   3.802   6.254 -0.4336 -0.6420  0.7249
17156TIP3    H172883   0.612   3.749   6.200 -0.9805  1.0152 -0.4008
17156TIP3    H272884   0.612   3.853   6.310 -0.2831  2.0924 -1.3949
17157TIP3   OH272885   4.864   3.262   1.143 -0.0557 -0.2046 -0.5123
17157TIP3    H172886   4.808   3.328   1.185 -0.3043 -0.0537 -1.0721
17157TIP3    H272887   4.802   3.197   1.109  0.1896 -0.7524  0.0619
17158TIP3   OH272888   4.558   0.909   3.751  0.4673  0.2594 -0.7958
17158TIP3    H172889   4.501   0.881   3.823 -0.3141 -0.2855 -1.6050
17158TIP3    H272890   4.640   0.863   3.766  0.4164  0.3889 -0.0842
17159TIP3   OH272891   4.267   2.931  15.450 -0.2457  0.0673 -0.7181
17159TIP3    H172892   4.282   2.861  15.514 -0.7432  0.0482 -0.6196
17159TIP3    H272893   4.244   3.007  15.502 -1.3296 -0.1251 -0.8965
17160TIP3   OH272894   3.094   6.613  11.172  0.7214 -0.3820 -0.0009
17160TIP3    H172895   3.137   6.692  11.139  1.5959 -0.3234  1.2363
17160TIP3    H272896   3.025   6.645  11.230  0.2075 -0.5148 -0.5284
17161TIP3   OH272897   6.768   2.545  10.967 -0.6998 -0.9433 -0.2451
17161TIP3    H172898   6.824   2.587  10.901  0.0042  0.1021  0.9781
17161TIP3    H272899   6.828   2.500  11.025 -1.3092 -1.7093 -0.1845
17162TIP3   OH272900   4.114   5.128  11.358  0.3938  0.3735 -0.3666
17162TIP3    H172901   4.037   5.133  11.415  1.4126  0.8275  1.0393
17162TIP3    H272902   4.088   5.174  11.278 -0.7907  0.5294  0.0852
17163TIP3   OH272903   0.466   0.194   2.720  0.0894 -0.1401  0.1272
17163TIP3    H172904   0.391   0.156   2.674 -0.0209 -1.7907  1.5564
17163TIP3    H272905   0.542   0.169   2.667 -0.2977  1.4090 -1.2461
17164TIP3   OH272906   5.612   3.190  12.936 -0.2133 -0.2536 -0.3396
17164TIP3    H172907   5.635   3.246  12.862  0.9963 -2.8385 -2.0848
17164TIP3    H272908   5.682   3.203  13.000 -0.6572  1.1439 -0.1152
17165TIP3   OH272909   5.238   4.373  14.278  0.4707  0.1288  0.1356
17165TIP3    H172910   5.311   4.412  14.230  0.6881 -0.4436 -0.0200
17165TIP3    H272911   5.178   4.342  14.209  0.6276 -0.4050  0.2334
17166TIP3   OH272912   4.359   6.223   2.470  0.8095 -0.1596 -0.3180
17166TIP3    H172913   4.350   6.259   2.382 -0.5160 -0.6585 -0.4019
17166TIP3    H272914   4.421   6.151   2.460  0.4309 -0.4077 -0.9054
17167TIP3   OH272915   3.467   6.541  16.629 -0.2461  0.3261 -0.0274
17167TIP3    H172916   3.480   6.580  16.543  1.6296  0.4783  0.2862
17167TIP3    H272917   3.424   6.457  16.612  0.2715  0.2754 -1.1253
17168TIP3   OH272918   6.431   5.332   4.762 -0.5724  0.0602 -0.0355
17168TIP3    H172919   6.465   5.339   4.851  0.1109  1.2222 -0.3585
17168TIP3    H272920   6.451   5.243   4.735  2.6911  0.7652 -0.3346
17169TIP3   OH272921   1.095   0.815   0.328 -0.4226 -0.3752 -0.3251
17169TIP3    H172922   1.095   0.910   0.325 -1.2670 -0.3756 -0.5406
17169TIP3    H272923   1.188   0.791   0.336 -0.2936  0.5034  1.3199
17170TIP3   OH272924   2.942   1.880   4.513  0.5568  0.3520  0.2726
17170TIP3    H172925   2.868   1.828   4.482  1.1321  0.2548 -0.9686
17170TIP3    H272926   2.919   1.970   4.493  0.0751  0.5001  1.3788
17171TIP3   OH272927   4.821   3.955  11.560  0.0351 -0.2510  0.3301
17171TIP3    H172928   4.887   4.012  11.601 -0.8653  0.1996  1.1958
17171TIP3    H272929   4.795   4.001  11.481 -1.2446  0.9635  1.4092
17172TIP3   OH272930   3.908   0.684   0.861  0.4806  0.7326 -0.0072
17172TIP3    H172931   3.871   0.771   0.876  1.0105  0.7874  1.0750
17172TIP3    H272932   3.832   0.630   0.839 -0.5062  0.5992  3.2581
17173TIP3   OH272933   2.508   6.598   0.650  0.2680  0.3365 -0.0549
17173TIP3    H172934   2.474   6.601   0.561 -2.1825 -0.1905  0.7748
17173TIP3    H272935   2.450   6.536   0.696  0.5244  1.6664  2.2433
17174TIP3   OH272936   2.631   0.577  17.070 -0.3716  1.1075 -0.1328
17174TIP3    H172937   2.544   0.538  17.068 -0.0200  0.0885  1.9456
17174TIP3    H272938   2.682   0.526  17.006 -1.2726  1.7237 -1.3699
17175TIP3   OH272939   2.222   5.738   5.597  0.6428 -0.2118 -0.5045
17175TIP3    H172940   2.128   5.748   5.606  0.5367 -0.2069 -1.5459
17175TIP3    H272941   2.258   5.821   5.631  0.3306 -0.4853  0.5452
17176TIP3   OH272942   6.698   5.774   5.569 -0.1588  0.3383  0.2763
17176TIP3    H172943   6.714   5.696   5.516 -0.0447  0.4389  0.1630
17176TIP3    H272944   6.785   5.809   5.587 -0.2631  1.2618 -0.9010
17177TIP3   OH272945   1.386   2.960  15.098  0.3056  0.5554 -0.2143
17177TIP3    H172946   1.365   3.052  15.084  1.0228  0.7679  0.0448
17177TIP3    H272947   1.304   2.920  15.125  0.6553  1.8519  3.3572
17178TIP3   OH272948   2.041   1.542  13.771 -0.4506 -0.3741 -0.0397
17178TIP3    H172949   2.076   1.461  13.807 -1.8118 -0.7959  0.3850
17178TIP3    H272950   2.034   1.601  13.847 -0.9754 -0.4182 -0.0489
17179TIP3   OH272951   0.714   0.294   3.847 -0.4245  0.3296  0.5418
17179TIP3    H172952   0.762   0.335   3.775 -1.0863 -0.3218 -0.2919
17179TIP3    H272953   0.758   0.210   3.859 -0.2266  0.4984  0.9985
17180TIP3   OH272954   4.945   4.573  14.254  0.2180  0.2380  0.6179
17180TIP3    H172955   4.852   4.595  14.245  0.0808 -0.4004  0.4494
17180TIP3    H272956   4.954   4.489  14.209  1.0172  0.6443  0.0060
17181TIP3   OH272957   3.819   1.687   1.897 -0.2857  0.5377 -0.4532
17181TIP3    H172958   3.768   1.631   1.839  1.1293 -0.3070 -0.9455
17181TIP3    H272959   3.820   1.772   1.853 -1.0860  0.5116 -0.5342
17182TIP3   OH272960   3.170   5.965  17.122  0.7181  0.3007 -0.3920
17182TIP3    H172961   3.193   5.986  17.031 -1.6773  0.4849 -1.0176
17182TIP3    H272962   3.077   5.945  17.119  0.9856 -1.6855  1.7151
17183TIP3   OH272963   6.759   3.172  13.989 -0.3083 -0.6434 -0.7902
17183TIP3    H172964   6.676   3.151  14.032  0.1182  0.9995  0.9527
17183TIP3    H272965   6.749   3.263  13.962  1.0876 -0.2629 -0.1021
17184TIP3   OH272966   1.360   3.237   1.488 -0.6740 -0.0086  0.1021
17184TIP3    H172967   1.366   3.184   1.567 -0.7512  0.2931  0.3080
17184TIP3    H272968   1.273   3.217   1.452 -1.4613  1.3507  1.1542
17185TIP3   OH272969   6.236   1.161   2.410 -0.4433  0.0641 -0.2913
17185TIP3    H172970   6.323   1.197   2.426 -0.7922  1.1866 -0.7704
17185TIP3    H272971   6.215   1.190   2.322 -0.4773 -1.9566 -0.9879
17186TIP3   OH272972   0.702   6.063  11.668  0.3523  0.2217 -0.1917
17186TIP3    H172973   0.679   6.057  11.575  0.4999  1.9734 -0.3673
17186TIP3    H272974   0.782   6.115  11.670  0.6807 -0.2848  0.8954
17187TIP3   OH272975   1.461   0.148  11.787 -1.1696  0.5313  0.5426
17187TIP3    H172976   1.508   0.149  11.703 -1.5168 -0.6322  0.3227
17187TIP3    H272977   1.475   0.060  11.822 -1.0052  1.0097  1.7337
17188TIP3   OH272978   2.593   1.444  14.493 -0.3653 -0.6680  0.5111
17188TIP3    H172979   2.567   1.458  14.584  0.8533  1.6335  0.5791
17188TIP3    H272980   2.555   1.518  14.446  0.1913 -1.0675 -0.6011
17189TIP3   OH272981   1.683   1.668  10.634 -0.0968 -0.2771 -0.0653
17189TIP3    H172982   1.750   1.612  10.672 -0.1876 -1.8070 -2.0144
17189TIP3    H272983   1.697   1.754  10.675  1.8554 -1.0055  0.9123
17190TIP3   OH272984   1.385   3.241   0.819  0.2254 -0.0174 -0.3440
17190TIP3    H172985   1.369   3.249   0.913 -0.0006  0.8884 -0.4473
17190TIP3    H272986   1.298   3.244   0.779  0.3506  0.1202 -0.6088
17191TIP3   OH272987   4.655   2.437   3.540 -0.5647 -0.2571 -0.4457
17191TIP3    H172988   4.638   2.371   3.472  1.5178 -1.0693 -0.2449
17191TIP3    H272989   4.693   2.511   3.492  0.3130 -0.5826 -0.2755
17192TIP3   OH272990   2.199   5.827   4.808  0.2193  0.1332 -1.2122
17192TIP3    H172991   2.121   5.842   4.755 -2.1862 -1.1992  1.6578
17192TIP3    H272992   2.199   5.897   4.872  1.4058  0.1071 -1.1535
17193TIP3   OH272993   4.160   4.272   1.297  0.5949 -0.2908 -0.0550
17193TIP3    H172994   4.114   4.210   1.354  1.5450 -0.5742  0.4177
17193TIP3    H272995   4.104   4.350   1.297 -0.9573 -1.3610 -1.1931
17194TIP3   OH272996   0.487   1.245   2.194  0.2551  0.6236 -0.4697
17194TIP3    H172997   0.509   1.253   2.101  1.2228  1.5126 -0.1857
17194TIP3    H272998   0.425   1.173   2.198 -0.3390  1.0164 -1.8965
17195TIP3   OH272999   3.842   1.468  16.197 -0.0661  0.1696  0.6554
17195TIP3    H173000   3.796   1.541  16.154  0.1415 -1.5895 -2.9310
17195TIP3    H273001   3.773   1.413  16.233 -0.4505  0.3951  0.2746
17196TIP3   OH273002   2.228   2.306   4.886 -0.2131  0.3224  0.4900
17196TIP3    H173003   2.316   2.326   4.919  0.4790 -1.6867  0.0597
17196TIP3    H273004   2.170   2.325   4.959  0.7826  0.1607  1.3517
17197TIP3   OH273005   6.337   1.318   2.864  0.2000 -0.5007 -0.0942
17197TIP3    H173006   6.394   1.381   2.819 -0.7248  0.6889  0.3498
17197TIP3    H273007   6.309   1.257   2.795 -2.3764  2.1203 -1.5979
17198TIP3   OH273008   3.059   1.873  16.717 -0.3150  0.4388 -0.2287
17198TIP3    H173009   3.111   1.898  16.794  0.4527  1.9548 -1.1885
17198TIP3    H273010   3.039   1.781  16.731  0.6719  0.4151  1.3018
17199TIP3   OH273011   3.017   3.233  13.763  0.0358  0.2915 -0.1641
17199TIP3    H173012   3.015   3.328  13.773  1.0265  0.3186 -0.0782
17199TIP3    H273013   2.991   3.218  13.672 -1.2749  0.5515  0.1462
17200TIP3   OH273014   1.499   4.682  15.635 -0.0674  0.5954  0.1277
17200TIP3    H173015   1.592   4.679  15.611 -0.0398  2.0781 -0.0155
17200TIP3    H273016   1.500   4.678  15.731  0.1525  0.9076  0.1377
17201TIP3   OH273017   3.083   0.526  12.351  0.0378 -0.0038 -0.2028
17201TIP3    H173018   3.081   0.614  12.389 -3.4901 -0.2566  0.6007
17201TIP3    H273019   3.073   0.468  12.427 -0.2182 -0.9421 -0.9442
17202TIP3   OH273020   5.888   5.764  13.470 -0.1543  0.0267  0.3105
17202TIP3    H173021   5.969   5.716  13.486 -0.2463 -0.3999 -0.4958
17202TIP3    H273022   5.865   5.744  13.379 -1.1196  0.2064  0.5031
17203TIP3   OH273023   2.758   0.644   2.462 -0.2781 -0.0401 -0.2812
17203TIP3    H173024   2.715   0.621   2.545  0.4010 -1.4680 -0.2898
17203TIP3    H273025   2.845   0.676   2.489 -0.4134  0.4330 -0.3986
17204TIP3   OH273026   3.095   1.162   0.830 -0.1937  0.1203 -0.5299
17204TIP3    H173027   3.105   1.074   0.866 -0.8715 -0.2279 -1.1800
17204TIP3    H273028   3.084   1.148   0.736 -0.2491  0.9073 -0.6423
17205TIP3   OH273029   5.517   6.131   2.274 -0.5637  0.3401  0.3408
17205TIP3    H173030   5.560   6.157   2.356 -0.3317  0.5057  0.1687
17205TIP3    H273031   5.476   6.212   2.242  2.2999  1.2242 -1.5230
17206TIP3   OH273032   3.656   1.665   4.876  0.0874 -0.4264 -0.2103
17206TIP3    H173033   3.568   1.644   4.909 -0.8700  0.6141 -1.9221
17206TIP3    H273034   3.715   1.612   4.929 -1.5403 -0.8200  1.2927
17207TIP3   OH273035   1.929   6.152   1.608 -0.2850  0.0586 -0.4604
17207TIP3    H173036   1.845   6.138   1.563 -0.8155 -2.0059  0.9831
17207TIP3    H273037   1.906   6.148   1.701  1.1550  1.5354 -0.0033
17208TIP3   OH273038   6.441   3.742   3.788 -0.1227 -0.1243  0.3948
17208TIP3    H173039   6.356   3.755   3.744  0.3875  0.9465 -0.3247
17208TIP3    H273040   6.448   3.815   3.849  1.0785  0.9066 -0.8988
17209TIP3   OH273041   2.230   4.999  13.962 -0.0401 -0.3246  0.3914
17209TIP3    H173042   2.252   5.060  13.891  0.2969 -2.0036 -1.0336
17209TIP3    H273043   2.154   4.952  13.929  0.4293 -1.4838  0.9289
17210TIP3   OH273044   3.468   5.932   4.325 -0.1192 -0.1222 -0.2911
17210TIP3    H173045   3.376   5.948   4.348  0.0265 -2.3613  2.4090
17210TIP3    H273046   3.516   5.951   4.406  1.1685 -3.3646 -0.1390
17211TIP3   OH273047   2.423   0.262  13.806 -0.3335 -0.1987  0.1587
17211TIP3    H173048   2.519   0.261  13.809 -0.3370  0.4797  0.5674
17211TIP3    H273049   2.401   0.343  13.760 -0.7262  0.5034  1.5222
17212TIP3   OH273050   3.463   1.863  13.435 -0.2418 -0.2166 -0.2372
17212TIP3    H173051   3.488   1.771  13.427  1.2552  0.3604 -3.8170
17212TIP3    H273052   3.382   1.861  13.487  1.4701 -3.1336  2.7117
17213TIP3   OH273053   4.836   4.764  16.963 -0.0508 -0.2718 -0.0455
17213TIP3    H173054   4.818   4.749  16.870  0.0494  1.1670 -0.3109
17213TIP3    H273055   4.911   4.707  16.982  0.3758 -0.0632 -1.0252
17214TIP3   OH273056   5.120   4.480  15.466  0.4211  0.4403 -0.3762
17214TIP3    H173057   5.211   4.474  15.435 -0.4045 -0.1343 -2.8722
17214TIP3    H273058   5.096   4.571  15.450 -0.3953 -0.1218 -2.8830
17215TIP3   OH273059   5.578   4.577  14.791  0.1222 -0.7026 -0.1510
17215TIP3    H173060   5.665   4.585  14.752  0.1899  0.2803  0.1977
17215TIP3    H273061   5.535   4.660  14.772  0.1448 -0.1992  1.8356
17216TIP3   OH273062   2.187   5.364   0.008  0.5430 -0.2297  0.2578
17216TIP3    H173063   2.092   5.354   0.014  0.7010 -2.4251 -0.0220
17216TIP3    H273064   2.219   5.333   0.093  1.0893 -1.5202 -0.3915
17217TIP3   OH273065   3.775   4.238   2.855 -0.0813  0.1659 -0.1716
17217TIP3    H173066   3.835   4.313   2.847  0.3700 -0.2069 -0.2921
17217TIP3    H273067   3.773   4.220   2.949  0.3638 -0.1173 -0.2144
17218TIP3   OH273068   1.136   2.802  14.295  0.4723  0.4553 -0.1348
17218TIP3    H173069   1.057   2.760  14.329  1.5953 -1.7260 -0.0707
17218TIP3    H273070   1.134   2.785  14.201  0.7496  0.5721 -0.1637
17219TIP3   OH273071   1.544   1.435   2.820 -0.6526 -0.3381 -0.3458
17219TIP3    H173072   1.632   1.470   2.809 -0.7622  0.2545  0.5024
17219TIP3    H273073   1.556   1.353   2.867 -0.6788  1.0771  2.3170
17220TIP3   OH273074   0.926   5.879   3.455 -0.3394 -0.3778  0.3258
17220TIP3    H173075   0.954   5.809   3.395  3.0523  0.6373  0.4977
17220TIP3    H273076   0.864   5.932   3.404  1.1814 -0.4738 -1.7540
17221TIP3   OH273077   3.670   0.003   2.626 -0.1188 -0.1336  0.1373
17221TIP3    H173078   3.669   0.004   2.530  0.2823  0.6315  0.1305
17221TIP3    H273079   3.743  -0.056   2.648 -1.0100 -1.3160 -0.0015
17222TIP3   OH273080   1.652   2.515   5.340  0.3207 -0.1453  0.1130
17222TIP3    H173081   1.564   2.514   5.379 -0.0245  0.5015 -0.6305
17222TIP3    H273082   1.638   2.493   5.248  1.1724 -2.0373  0.3869
17223TIP3   OH273083   1.267   6.093   2.358 -0.1308  0.3533  0.0237
17223TIP3    H173084   1.276   6.117   2.266  0.1207  2.1321  0.4792
17223TIP3    H273085   1.220   6.167   2.397  1.8019  0.7428  1.7711
17224TIP3   OH273086   1.670   0.190  12.511  0.0861  0.5247 -0.1122
17224TIP3    H173087   1.578   0.212  12.527 -0.1639  0.5158 -1.4032
17224TIP3    H273088   1.669   0.146  12.426  1.0237 -1.3927  0.8169
17225TIP3   OH273089   3.046   4.586   3.432  0.2676 -0.1255 -0.0627
17225TIP3    H173090   3.028   4.610   3.341  0.0391  0.9049  0.2414
17225TIP3    H273091   2.978   4.630   3.483 -0.2652 -1.5654  0.5340
17226TIP3   OH273092   4.499   2.975  15.272 -0.1932  0.5574 -1.1647
17226TIP3    H173093   4.416   2.987  15.319 -0.2232 -0.1878 -1.0112
17226TIP3    H273094   4.561   3.032  15.317 -0.1370 -0.3895  0.0063
17227TIP3   OH273095   1.330   3.758   0.117 -0.2107  0.2786  0.0017
17227TIP3    H173096   1.278   3.772   0.037 -1.4167  0.9074  0.8680
17227TIP3    H273097   1.350   3.846   0.148  0.7527  0.0322  0.0870
17228TIP3   OH273098   2.833   1.382   1.216 -0.0272 -0.7880 -0.1550
17228TIP3    H173099   2.838   1.291   1.243  0.0028 -0.5203  0.7540
17228TIP3    H273100   2.924   1.412   1.214  0.0109 -0.9300 -1.0159
17229TIP3   OH273101   0.659   4.163   2.330  0.2014 -0.0067  0.5993
17229TIP3    H173102   0.736   4.194   2.379  0.3707  0.9981 -0.2776
17229TIP3    H273103   0.591   4.154   2.397  0.4105  1.3974  1.0444
17230TIP3   OH273104   5.728   1.421  16.296  0.4402  0.5128  0.0138
17230TIP3    H173105   5.744   1.499  16.350 -0.4092 -0.6868  2.1332
17230TIP3    H273106   5.639   1.394  16.320  0.3723 -0.5767 -1.3820
17231TIP3   OH273107   1.219   3.532   3.850 -0.2202 -0.2284  0.3889
17231TIP3    H173108   1.174   3.451   3.873  0.6420 -0.0763  2.9061
17231TIP3    H273109   1.170   3.601   3.894  0.7566  0.2687  0.7453
17232TIP3   OH273110   5.188   5.092   5.243  0.0993 -0.2317 -0.5447
17232TIP3    H173111   5.178   5.121   5.334 -1.7358 -0.9189 -0.4997
17232TIP3    H273112   5.265   5.140   5.211  0.8094 -0.0282  1.3736
17233TIP3   OH273113   0.261   5.589  16.320  0.5047  0.1926  0.1033
17233TIP3    H173114   0.347   5.593  16.277  0.6312 -0.9581  0.2079
17233TIP3    H273115   0.204   5.547  16.255 -0.1237  1.4576 -0.1758
17234TIP3   OH273116   0.328   5.808  13.651 -0.4015 -0.3932  0.2125
17234TIP3    H173117   0.306   5.794  13.743  0.2469 -0.4816  0.3508
17234TIP3    H273118   0.263   5.757  13.603 -2.1554  1.3827  0.5470
17235TIP3   OH273119   3.816   4.097   4.920  0.1108  0.0259  0.2727
17235TIP3    H173120   3.895   4.070   4.873 -0.9536 -2.1993 -0.3928
17235TIP3    H273121   3.748   4.039   4.887 -1.5287  0.9766  1.8051
17236TIP3   OH273122   4.430   6.375   6.249 -0.2979 -0.5424 -0.3752
17236TIP3    H173123   4.355   6.330   6.210  1.0041 -1.3189 -2.1165
17236TIP3    H273124   4.486   6.398   6.175 -0.4378  3.2673  0.4668
17237TIP3   OH273125   6.163   5.070   0.321 -0.1862 -0.1624 -0.0160
17237TIP3    H173126   6.209   5.029   0.394  0.9637  1.7303  0.3908
17237TIP3    H273127   6.125   5.150   0.357 -0.5452  0.2408 -1.2274
17238TIP3   OH273128   4.208   1.319  11.572  0.2841 -0.2735 -0.9079
17238TIP3    H173129   4.117   1.294  11.557  0.2807  0.2260 -1.7735
17238TIP3    H273130   4.218   1.318  11.668 -0.9141  0.6492 -0.7546
17239TIP3   OH273131   1.596   6.290   2.729 -0.3622 -0.1379 -0.2448
17239TIP3    H173132   1.595   6.244   2.645  2.4592  3.2310 -2.3855
17239TIP3    H273133   1.684   6.278   2.762 -0.1763  1.8798  0.1208
17240TIP3   OH273134   4.828   1.948  17.144 -0.2285  0.2612 -0.3083
17240TIP3    H173135   4.798   1.912  17.060  1.5113  0.9696 -1.2757
17240TIP3    H273136   4.847   1.870  17.197 -0.4565 -0.2003 -0.8867
17241TIP3   OH273137   5.228   4.116   6.556 -0.1108 -0.1355 -0.5455
17241TIP3    H173138   5.321   4.118   6.579 -0.1771  0.4858 -0.2954
17241TIP3    H273139   5.210   4.025   6.535 -0.1207 -0.8421  2.1692
17242TIP3   OH273140   2.108   2.216   3.042 -0.0567  0.1813  0.0306
17242TIP3    H173141   2.173   2.214   2.972  0.7416  1.3046  0.7255
17242TIP3    H273142   2.159   2.214   3.123 -0.8794  0.9852  0.5851
17243TIP3   OH273143   6.305   2.540  17.137  0.1857 -0.0599  0.0761
17243TIP3    H173144   6.243   2.574  17.201 -1.9318  0.1658 -1.9345
17243TIP3    H273145   6.290   2.445  17.137  2.2525 -0.4686  1.8549
17244TIP3   OH273146   0.990   1.543  11.312  0.5912 -1.2937  0.0047
17244TIP3    H173147   0.970   1.459  11.269 -1.3736 -1.5849  1.3190
17244TIP3    H273148   0.938   1.607  11.264  1.3521 -0.9625 -0.3949
17245TIP3   OH273149   2.219   6.750  11.751  0.0897  0.0309  0.3281
17245TIP3    H173150   2.132   6.728  11.718  0.1403 -0.9132  0.7965
17245TIP3    H273151   2.210   6.746  11.846  0.9504 -1.3587  0.3721
17246TIP3   OH273152   3.256   1.202  16.416 -0.5077  0.1433  0.3127
17246TIP3    H173153   3.343   1.177  16.387 -0.9517  0.1980 -1.1525
17246TIP3    H273154   3.224   1.261  16.348 -1.7547 -0.0098  0.7348
17247TIP3   OH273155   0.663   6.405  14.167 -0.3740 -0.3198  0.3867
17247TIP3    H173156   0.681   6.326  14.218 -0.5321 -1.4289 -1.2080
17247TIP3    H273157   0.578   6.389  14.126  0.1950  0.0970 -1.0198
17248TIP3   OH273158   5.693   1.065  11.037  0.3535  0.3897  0.1351
17248TIP3    H173159   5.760   1.134  11.042  1.7684 -0.8884 -0.3313
17248TIP3    H273160   5.714   1.017  10.957 -1.4902  0.2695 -0.3158
17249TIP3   OH273161   4.113   2.158  13.169 -0.2883  0.3121  0.3210
17249TIP3    H173162   4.137   2.160  13.262  0.4317  2.4257  0.1455
17249TIP3    H273163   4.196   2.146  13.123 -0.5003  0.4019 -0.0886
17250TIP3   OH273164   2.375   1.526   5.144  0.8014 -0.2730 -0.7171
17250TIP3    H173165   2.363   1.449   5.200  0.0725  0.4966  0.2162
17250TIP3    H273166   2.350   1.600   5.199  1.7993  0.6736 -1.4977
17251TIP3   OH273167   4.185   6.411  13.239 -0.5475 -0.6034  0.3181
17251TIP3    H173168   4.217   6.433  13.152  0.1723 -1.1152  0.4444
17251TIP3    H273169   4.116   6.346  13.224 -0.7697 -0.3222  0.1075
17252TIP3   OH273170   3.915   0.739   1.697  1.0488  0.2709 -0.7753
17252TIP3    H173171   3.820   0.734   1.683  0.8892 -1.1500  0.6066
17252TIP3    H273172   3.949   0.778   1.616 -0.7906  1.6641 -0.9362
17253TIP3   OH273173   3.254   1.184   1.086 -0.7105 -0.2962  0.4933
17253TIP3    H173174   3.313   1.110   1.096  2.5443  1.8557 -0.9314
17253TIP3    H273175   3.201   1.162   1.009  1.1448 -0.6577 -0.7385
17254TIP3   OH273176   3.629   6.127  16.134  0.0324 -0.3434 -0.0015
17254TIP3    H173177   3.643   6.222  16.133  0.8942 -0.4587  0.3351
17254TIP3    H273178   3.702   6.091  16.083 -0.2943 -0.8258 -0.1362
17255TIP3   OH273179   3.405   2.815  16.851 -0.3259 -0.4240 -0.5410
17255TIP3    H173180   3.333   2.843  16.908  0.7417  0.7026  0.3138
17255TIP3    H273181   3.474   2.788  16.912 -0.1221 -1.8335 -1.3483
17256TIP3   OH273182   0.868   2.025   1.926  0.8628 -0.6667  0.2037
17256TIP3    H173183   0.865   1.936   1.889  1.4793 -0.5494 -0.1352
17256TIP3    H273184   0.799   2.025   1.993  1.5086 -1.7027  0.8892
17257TIP3   OH273185   0.106   4.455   1.209 -0.2918  0.4343 -0.4419
17257TIP3    H173186   0.194   4.488   1.191 -1.0226  1.9654 -1.4087
17257TIP3    H273187   0.101   4.447   1.304  0.4379  1.6571 -0.2942
17258TIP3   OH273188   0.711   0.588  14.529  0.1150 -0.2544 -0.0393
17258TIP3    H173189   0.617   0.605  14.535  0.4651  1.4217  1.7232
17258TIP3    H273190   0.717   0.493  14.519 -1.7528 -0.4144 -0.1131
17259TIP3   OH273191   1.231   0.477  15.674 -0.1726 -0.3941 -0.6160
17259TIP3    H173192   1.271   0.484  15.760  1.6975  0.7411 -1.5231
17259TIP3    H273193   1.263   0.394  15.638 -1.4338 -1.1668 -0.0286
17260TIP3   OH273194   3.923   6.161   1.626 -0.0105 -0.1271 -0.1361
17260TIP3    H173195   3.902   6.247   1.590  0.1689 -0.7963 -1.9311
17260TIP3    H273196   4.010   6.140   1.591  0.4108 -0.6134  1.1246
17261TIP3   OH273197   0.111   3.505   5.919 -0.9903 -0.4284 -0.7363
17261TIP3    H173198   0.115   3.490   5.824 -1.1044 -0.8861 -0.6722
17261TIP3    H273199   0.146   3.593   5.930  0.1941 -0.8187 -1.0904
17262TIP3   OH273200   4.743   5.924   5.301  0.5875 -0.7891  0.1543
17262TIP3    H173201   4.728   6.002   5.355 -0.4971  1.5914 -3.2461
17262TIP3    H273202   4.835   5.902   5.316  0.9262  1.1429  1.2572
17263TIP3   OH273203   3.761   2.280  11.913 -0.7270  0.3393  0.3601
17263TIP3    H173204   3.679   2.238  11.939 -1.0022  0.0270 -0.9034
17263TIP3    H273205   3.751   2.293  11.819  1.4713 -1.6147 -0.2404
17264TIP3   OH273206   6.200   2.360  12.786  0.0266  0.5249 -0.0240
17264TIP3    H173207   6.136   2.305  12.832  0.2705 -1.3953 -1.8136
17264TIP3    H273208   6.163   2.371  12.698  1.1016  1.2770 -0.4002
17265TIP3   OH273209   3.000   1.187  11.899 -0.2673  0.2157 -0.3112
17265TIP3    H173210   2.905   1.190  11.912 -0.2717 -1.2806  0.1877
17265TIP3    H273211   3.036   1.211  11.984 -0.2756 -3.1466  0.8029
17266TIP3   OH273212   0.537   6.195   4.954 -0.3612  0.5115  0.0977
17266TIP3    H173213   0.620   6.163   4.989  0.2203  0.7140 -1.0332
17266TIP3    H273214   0.554   6.286   4.930  0.1286 -0.3287 -3.1804
17267TIP3   OH273215   6.163   6.718  11.455  0.1060  0.1607  0.0004
17267TIP3    H173216   6.093   6.711  11.520 -0.4187 -1.4320 -0.6872
17267TIP3    H273217   6.161   6.810  11.428 -0.9039  0.4176  0.8658
17268TIP3   OH273218   2.127   0.039   6.651  0.6257  0.2480 -0.0480
17268TIP3    H173219   2.187   0.113   6.662  0.5855 -0.0721  3.3004
17268TIP3    H273220   2.040   0.079   6.654  0.6179  0.1841  1.0934
17269TIP3   OH273221   4.751   5.243   3.869 -0.4767 -0.5278 -0.3977
17269TIP3    H173222   4.696   5.322   3.875  0.6686  0.3450 -0.8849
17269TIP3    H273223   4.800   5.242   3.951  0.6510  0.1784 -1.0328
17270TIP3   OH273224   4.216   5.266  13.358 -0.0424  0.2663 -0.7216
17270TIP3    H173225   4.293   5.264  13.301  0.2193 -0.1334 -0.3598
17270TIP3    H273226   4.251   5.248  13.446 -0.2706  1.9661 -0.2435
17271TIP3   OH273227   2.249   2.412   5.741 -0.1555 -0.4311  0.3491
17271TIP3    H173228   2.221   2.502   5.724  2.9051  1.0051  2.1139
17271TIP3    H273229   2.236   2.367   5.658 -1.7080  1.6213 -0.6150
17272TIP3   OH273230   3.432   2.701  15.180 -0.2491  0.6226  0.2400
17272TIP3    H173231   3.350   2.739  15.149  0.0700 -0.0087 -1.4719
17272TIP3    H273232   3.416   2.607  15.180  0.4664  0.4953 -0.1182
17273TIP3   OH273233   5.372   1.959  15.983 -0.9233  1.1780  0.3390
17273TIP3    H173234   5.360   1.961  15.889  3.7416 -1.8100 -0.6793
17273TIP3    H273235   5.443   2.022  16.000  1.3526 -1.3361  0.9140
17274TIP3   OH273236   4.498   1.656  11.230 -0.4717  0.4157  0.1235
17274TIP3    H173237   4.572   1.688  11.177 -2.5087  0.7606 -2.7377
17274TIP3    H273238   4.529   1.573  11.265  1.8512  1.3178  0.4508
17275TIP3   OH273239   2.061   0.717  13.567  0.6736  0.4011 -0.0158
17275TIP3    H173240   1.997   0.723  13.496 -1.2866  0.5535  1.6669
17275TIP3    H273241   2.023   0.654  13.629  0.7843  2.4640  2.3171
17276TIP3   OH273242   3.226   4.938   3.471  0.4124 -0.3558 -0.4647
17276TIP3    H173243   3.271   5.004   3.419 -1.6935  1.3633 -0.2334
17276TIP3    H273244   3.232   4.858   3.419  0.2734  0.7903 -2.3194
17277TIP3   OH273245   5.859   1.148   6.089 -0.2832  0.4275 -0.1321
17277TIP3    H173246   5.818   1.222   6.133 -1.7844 -0.6085  0.2822
17277TIP3    H273247   5.930   1.122   6.147 -1.2875  0.0344  0.9655
17278TIP3   OH273248   0.041   3.485  12.562 -0.2255  0.4558 -0.6283
17278TIP3    H173249   0.027   3.562  12.507 -0.3284  0.5045 -0.5327
17278TIP3    H273250   0.107   3.512  12.626 -0.1879  0.4335 -0.6577
17279TIP3   OH273251   5.775   3.427   5.864  0.1918  0.8243  0.1052
17279TIP3    H173252   5.734   3.396   5.945  2.2472  1.3826  1.4241
17279TIP3    H273253   5.810   3.347   5.824  0.7571  0.7409  0.7332
17280TIP3   OH273254   2.737   5.189  11.696  0.0336  0.3151 -0.4625
17280TIP3    H173255   2.791   5.215  11.771  1.2757  0.8404 -1.4855
17280TIP3    H273256   2.754   5.257  11.631 -2.4905  0.8976 -0.5838
17281TIP3   OH273257   6.619   1.277   1.502 -0.2501  0.3259  0.2580
17281TIP3    H173258   6.648   1.211   1.439 -0.5043 -1.0414  1.5283
17281TIP3    H273259   6.686   1.276   1.571 -1.7171 -0.7715  1.7507
17282TIP3   OH273260   3.527   2.358  13.714 -0.3041 -0.3305  0.0487
17282TIP3    H173261   3.474   2.309  13.652  0.8650 -0.3677 -0.9727
17282TIP3    H273262   3.601   2.300  13.733 -0.1283  0.0918  0.6740
17283TIP3   OH273263   2.961   6.707   4.362 -0.5730 -0.5113 -0.0815
17283TIP3    H173264   3.020   6.720   4.288  1.0489 -1.3068  0.9954
17283TIP3    H273265   2.930   6.795   4.384 -0.5164 -0.1838 -1.2417
17284TIP3   OH273266   1.839   6.160   3.184  0.0798  0.3470  0.5518
17284TIP3    H173267   1.873   6.185   3.270 -0.0154 -0.8150  0.9396
17284TIP3    H273268   1.759   6.213   3.174  0.9783  1.7426  0.4191
17285TIP3   OH273269   5.611   5.828   5.091  0.2269 -0.0797 -0.2950
17285TIP3    H173270   5.640   5.756   5.147 -1.2621 -1.2738 -0.9815
17285TIP3    H273271   5.689   5.853   5.042  0.9059 -0.8366  0.3633
17286TIP3   OH273272   2.081   5.707   6.653  0.2098  0.0277  0.0345
17286TIP3    H173273   2.019   5.707   6.725 -0.1114  0.3393 -0.2390
17286TIP3    H273274   2.163   5.675   6.691  0.7143  2.3742  1.1258
17287TIP3   OH273275   4.077   4.024   3.988  0.0274  0.2929  0.1727
17287TIP3    H173276   4.168   4.014   4.015 -0.2894  0.8245  1.5416
17287TIP3    H273277   4.032   3.950   4.027 -0.6015  1.5657  2.0047
17288TIP3   OH273278   1.715   0.106   3.376 -0.6328  0.0982  0.0163
17288TIP3    H173279   1.723   0.196   3.345 -0.0727  0.0724  0.0840
17288TIP3    H273280   1.683   0.114   3.466  1.3462  0.3202  0.7438
17289TIP3   OH273281   3.773   1.675  12.723  0.8329 -0.0919  0.5744
17289TIP3    H173282   3.789   1.769  12.712  0.9442 -0.2314 -0.6217
17289TIP3    H273283   3.682   1.669  12.751  0.1509  0.3113 -1.3849
17290TIP3   OH273284   0.821   2.397  13.002 -0.6150 -0.0422  0.4883
17290TIP3    H173285   0.826   2.315  12.952  0.2657 -0.6532  1.5492
17290TIP3    H273286   0.777   2.458  12.943 -0.8796 -1.1508 -0.4922
17291TIP3   OH273287   2.518   5.624  16.131  0.4884 -0.6567  0.5143
17291TIP3    H173288   2.483   5.588  16.049  0.4914 -0.6151  0.4949
17291TIP3    H273289   2.496   5.559  16.197 -0.7549 -0.0473  0.7293
17292TIP3   OH273290   0.682   3.869   2.765 -0.1720 -0.0794 -0.5451
17292TIP3    H173291   0.740   3.861   2.841 -0.0376  0.4285 -0.5911
17292TIP3    H273292   0.617   3.800   2.777  0.8878 -1.1914 -0.8898
17293TIP3   OH273293   2.633   5.769   3.084  0.7435 -0.4138 -0.6828
17293TIP3    H173294   2.662   5.813   3.164  0.4022 -1.1624 -0.1345
17293TIP3    H273295   2.565   5.826   3.048  0.2485 -0.5235  0.0670
17294TIP3   OH273296   5.673   4.358   4.554  0.7789  0.7048  0.2853
17294TIP3    H173297   5.749   4.367   4.611  1.4467 -0.4209 -0.3831
17294TIP3    H273298   5.617   4.294   4.599  0.8786  0.5027  0.1254
17295TIP3   OH273299   0.446   3.501   3.738  0.3337 -0.4056 -0.4243
17295TIP3    H173300   0.466   3.415   3.701  0.3460 -0.1985 -0.9005
17295TIP3    H273301   0.383   3.540   3.677 -0.2105 -0.3537  0.1558
17296TIP3   OH273302   4.320   3.578  13.870 -0.4249  0.2528  0.5266
17296TIP3    H173303   4.244   3.598  13.814 -0.4357  0.6928  0.6897
17296TIP3    H273304   4.285   3.523  13.940 -0.5449  0.2533  0.4673
17297TIP3   OH273305   3.148   4.628   0.254 -0.9269  0.0018 -0.4276
17297TIP3    H173306   3.121   4.717   0.275 -0.8756  0.2817 -1.4532
17297TIP3    H273307   3.234   4.619   0.293 -0.9886  0.3562 -0.2038
17298TIP3   OH273308   5.587   6.526  11.464 -0.6142  0.0934 -0.2204
17298TIP3    H173309   5.646   6.589  11.424  1.0055 -0.4809  1.1171
17298TIP3    H273310   5.619   6.441  11.433 -0.3770 -0.2529  0.9179
17299TIP3   OH273311   4.969   1.342  14.158  0.1869 -0.1081 -0.2786
17299TIP3    H173312   4.879   1.370  14.144  0.3201  0.8311  0.5873
17299TIP3    H273313   4.979   1.341  14.253  0.1023 -3.5693 -0.1980
17300TIP3   OH273314   4.925   2.665  12.704 -0.5771  0.0982  0.0683
17300TIP3    H173315   4.988   2.596  12.724 -1.7754 -1.1296 -0.1795
17300TIP3    H273316   4.978   2.743  12.691  0.9156 -0.9521 -0.4795
17301TIP3   OH273317   3.063   6.196  16.660  0.2193  0.3517 -0.2295
17301TIP3    H173318   3.151   6.214  16.629  0.7169  0.5359  1.2182
17301TIP3    H273319   3.075   6.133  16.731 -0.7331  0.9179  0.4607
17302TIP3   OH273320   1.595   5.500   0.253  0.2555  0.6393 -0.0880
17302TIP3    H173321   1.610   5.418   0.301 -0.2414 -0.2466 -1.3571
17302TIP3    H273322   1.500   5.508   0.248  0.2895  0.6449 -0.9780
17303TIP3   OH273323   3.186   0.875  16.969  0.2117  1.0584  0.4730
17303TIP3    H173324   3.230   0.847  16.889 -0.9046  0.9321 -0.1130
17303TIP3    H273325   3.193   0.800  17.029  0.6509  0.9914  0.3448
17304TIP3   OH273326   5.970   3.788   0.464 -0.6745 -0.6692 -0.6034
17304TIP3    H173327   6.032   3.752   0.528 -0.2906  0.8442 -0.0568
17304TIP3    H273328   5.911   3.716   0.444 -1.4163 -0.9781  2.2159
17305TIP3   OH273329   1.224   3.421  14.762 -0.2199 -0.2529 -0.0543
17305TIP3    H173330   1.146   3.469  14.735 -0.4548 -1.1109 -0.9591
17305TIP3    H273331   1.204   3.329  14.744  1.1420 -0.4504 -0.7044
17306TIP3   OH273332   1.097   6.617   1.708  0.8198  0.5760 -0.3507
17306TIP3    H173333   1.117   6.696   1.658  0.3405 -0.0421 -1.5591
17306TIP3    H273334   1.004   6.626   1.729  0.0270 -0.8473 -2.8137
17307TIP3   OH273335   3.039   4.714   3.206  0.2301  0.0947  0.0381
17307TIP3    H173336   3.020   4.693   3.115 -0.6922  0.8808  0.0241
17307TIP3    H273337   3.071   4.804   3.204 -2.0574  1.0086  0.6651
17308TIP3   OH273338   0.774   2.017   4.453 -0.4023 -0.2764 -0.2738
17308TIP3    H173339   0.855   1.999   4.500 -0.8671  0.6620  0.9689
17308TIP3    H273340   0.779   1.964   4.373  1.2169 -0.5680 -0.0092
17309TIP3   OH273341   6.450   1.222  13.669 -0.1332 -0.1632 -0.2239
17309TIP3    H173342   6.477   1.311  13.647  0.7278 -0.6594 -1.3044
17309TIP3    H273343   6.401   1.193  13.592  1.3002 -1.2873 -0.7663
17310TIP3   OH273344   0.389   5.824  11.020 -0.2877  0.4000 -0.2259
17310TIP3    H173345   0.316   5.856  10.968 -0.9663  0.6930  0.8968
17310TIP3    H273346   0.420   5.747  10.972 -1.6129  0.0055 -0.4795
17311TIP3   OH273347   4.496   0.801   6.013  0.0656 -0.0337  0.5713
17311TIP3    H173348   4.472   0.740   6.083 -0.1094  0.9140  1.3720
17311TIP3    H273349   4.521   0.881   6.059 -1.1710  1.0131 -0.4777
17312TIP3   OH273350   3.495   1.004   0.141 -0.3986  0.0376 -0.2880
17312TIP3    H173351   3.483   0.930   0.199  0.9529 -0.6364 -0.8128
17312TIP3    H273352   3.418   1.059   0.154  0.2137  0.3618  2.7567
17313TIP3   OH273353   5.704   3.491   3.395  0.1406  0.5968 -0.3140
17313TIP3    H173354   5.665   3.536   3.320  0.9787  1.2846 -0.3446
17313TIP3    H273355   5.695   3.398   3.374  0.2757  0.7806 -1.2206
17314TIP3   OH273356   2.018   4.360  15.973  0.2244 -0.5107  0.2493
17314TIP3    H173357   1.940   4.369  15.918  0.3747 -0.2745  0.0710
17314TIP3    H273358   2.090   4.355  15.910  0.4047 -0.1597  0.4265
17315TIP3   OH273359   3.679   4.836   5.749  0.2749 -0.5126  0.1391
17315TIP3    H173360   3.676   4.781   5.827  1.2126 -3.0414 -1.4654
17315TIP3    H273361   3.734   4.786   5.687 -1.4161  0.7447 -2.5627
17316TIP3   OH273362   1.483   4.731   3.763  0.0897 -0.3149 -0.4741
17316TIP3    H173363   1.410   4.713   3.822 -0.9248 -1.7840 -2.0732
17316TIP3    H273364   1.447   4.794   3.700  0.1345 -1.1716 -1.3702
17317TIP3   OH273365   0.481   0.542  14.975  0.6223  0.0196 -0.2607
17317TIP3    H173366   0.546   0.472  14.972  0.8231  0.2424 -2.0192
17317TIP3    H273367   0.530   0.619  15.001  0.8363 -0.0511 -0.4496
17318TIP3   OH273368   3.017   1.011   0.071 -1.2794 -0.7198 -0.7730
17318TIP3    H173369   3.084   0.945   0.053  0.8617  1.3296 -0.7840
17318TIP3    H273370   2.984   1.034  -0.016 -0.0227  0.1697 -1.0373
17319TIP3   OH273371   0.972   2.477   5.035 -0.2098  0.1322  0.2138
17319TIP3    H173372   0.932   2.401   4.992 -0.2618 -0.3879  1.1573
17319TIP3    H273373   0.965   2.547   4.970 -0.1281 -0.6710 -0.6944
17320TIP3   OH273374   3.832   5.629   5.711 -0.3159  0.1795 -0.3014
17320TIP3    H173375   3.927   5.636   5.721 -0.3950  0.4481  0.3222
17320TIP3    H273376   3.805   5.566   5.779 -0.4886 -0.5510 -1.0295
17321TIP3   OH273377   0.561   4.123   5.208  0.4245 -0.6310  0.3791
17321TIP3    H173378   0.637   4.182   5.207  0.7794 -1.0358 -1.9410
17321TIP3    H273379   0.485   4.181   5.197  0.4940 -0.3800  1.1102
17322TIP3   OH273380   3.046   0.253   1.683  0.6569  0.5056 -0.4505
17322TIP3    H173381   2.977   0.189   1.667  0.0679  0.7927  0.8056
17322TIP3    H273382   3.100   0.214   1.751 -0.9283  2.1437  1.9102
17323TIP3   OH273383   6.630   0.857   0.998  0.1979  0.0691 -0.0343
17323TIP3    H173384   6.601   0.766   0.991 -0.0201  0.1378 -0.0134
17323TIP3    H273385   6.581   0.903   0.930 -1.9569  0.7551  1.8632
17324TIP3   OH273386   4.723   1.997  11.060 -0.6343  0.5063 -0.0392
17324TIP3    H173387   4.721   1.904  11.081 -3.4123  0.4697 -0.0215
17324TIP3    H273388   4.799   2.008  11.003  0.2102 -1.5956  0.6075
17325TIP3   OH273389   2.343   0.734   3.782  0.4968 -0.3248  0.4484
17325TIP3    H173390   2.380   0.816   3.748 -0.6834 -0.1330 -0.4353
17325TIP3    H273391   2.305   0.691   3.706  2.7868 -2.7035  0.5090
17326TIP3   OH273392   5.389   3.331  13.030  0.0605 -0.6770  0.2872
17326TIP3    H173393   5.465   3.277  13.010  1.2516  1.5229 -1.6001
17326TIP3    H273394   5.318   3.292  12.979  1.2425  0.2114 -2.2554
17327TIP3   OH273395   4.051   5.829  12.185  0.1898  0.6931  0.9190
17327TIP3    H173396   3.961   5.801  12.173 -0.0407  1.4415  0.8188
17327TIP3    H273397   4.046   5.898  12.251  0.6694  0.8285  0.8161
17328TIP3   OH273398   0.030   0.578  13.368  0.3036  0.2930  0.0220
17328TIP3    H173399   0.085   0.654  13.385  0.4752 -0.1208  1.4991
17328TIP3    H273400  -0.053   0.597  13.412  1.1564 -1.3017  2.5734
17329TIP3   OH273401   6.449   2.571  13.051 -0.3530  0.0908 -0.1404
17329TIP3    H173402   6.515   2.640  13.062 -2.9757  2.4944  2.2066
17329TIP3    H273403   6.395   2.601  12.978  0.5901 -1.5300 -1.6050
17330TIP3   OH273404   5.325   1.022  13.694 -0.4432 -0.3102 -0.6464
17330TIP3    H173405   5.248   1.049  13.744  0.1660 -0.5502  0.4573
17330TIP3    H273406   5.399   1.038  13.753  0.2411 -1.2628 -1.2050
17331TIP3   OH273407   0.059   4.384   1.549  0.0113  0.7212 -0.3053
17331TIP3    H173408   0.080   4.477   1.535 -0.1589  1.0180  1.2018
17331TIP3    H273409   0.075   4.370   1.643  0.1689 -0.8159 -0.5357
17332TIP3   OH273410   0.607   5.163  12.736 -0.5417  0.5147  0.0175
17332TIP3    H173411   0.637   5.144  12.825 -0.0867 -0.0255 -0.2503
17332TIP3    H273412   0.582   5.256  12.739 -0.4611  0.5197  0.6852
17333TIP3   OH273413   6.686   1.585  11.918 -0.5472  0.0195  0.1563
17333TIP3    H173414   6.668   1.507  11.970 -1.0889 -0.4537 -0.7349
17333TIP3    H273415   6.624   1.651  11.951  0.7491  0.4997  1.7783
17334TIP3   OH273416   1.896   6.100   3.969  1.0169  0.4354 -0.8772
17334TIP3    H173417   1.929   6.062   3.887  1.5080  0.8130 -0.8580
17334TIP3    H273418   1.947   6.180   3.981  1.3401  0.1109  0.0758
17335TIP3   OH273419   5.263   2.017  13.074 -0.4704 -0.2360  0.4684
17335TIP3    H173420   5.258   1.963  12.995  0.4848  0.2858  0.0372
17335TIP3    H273421   5.175   2.053  13.084 -0.1926  1.0564 -1.3473
17336TIP3   OH273422   6.397   2.798   3.961 -0.1480  0.7742  0.3451
17336TIP3    H173423   6.356   2.884   3.958 -1.3460  0.2044 -0.2391
17336TIP3    H273424   6.330   2.741   3.999  0.3967 -0.0275  0.1241
17337TIP3   OH273425   4.023   1.248  14.126 -0.4845 -0.3151 -0.0515
17337TIP3    H173426   4.015   1.175  14.186  0.8767 -0.4814 -0.0496
17337TIP3    H273427   4.050   1.322  14.180 -1.0272 -0.0055 -0.1879
17338TIP3   OH273428   5.646   1.016  13.897  0.2463  0.3363  0.3726
17338TIP3    H173429   5.601   0.949  13.846  0.3373  0.3325  0.2954
17338TIP3    H273430   5.700   1.062  13.832 -0.8242  1.3448  0.1681
17339TIP3   OH273431   3.817   3.115   3.866  0.0566  0.0005 -0.1135
17339TIP3    H173432   3.793   3.046   3.804 -0.7635  0.0359  0.1450
17339TIP3    H273433   3.765   3.191   3.838 -0.7755 -0.1483  0.9364
17340TIP3   OH273434   0.723   3.519  12.128  0.4009  0.7292  0.2666
17340TIP3    H173435   0.802   3.537  12.180  0.2673  2.4316 -0.0667
17340TIP3    H273436   0.655   3.571  12.170 -0.2241  0.4123 -0.3377
17341TIP3   OH273437   2.829   0.199  11.579 -0.1049 -0.0929 -0.4411
17341TIP3    H173438   2.750   0.187  11.632  1.5565 -1.1740  1.9980
17341TIP3    H273439   2.809   0.157  11.495 -2.6941  1.2587 -0.5760
17342TIP3   OH273440   1.787   6.089   4.448  0.1320 -0.6903 -0.3393
17342TIP3    H173441   1.807   6.182   4.448 -1.6023 -0.2845 -0.8529
17342TIP3    H273442   1.869   6.047   4.422  0.6567  0.7714 -1.1677
17343TIP3   OH273443   1.244   3.920  14.470 -0.0980  0.0916  0.4897
17343TIP3    H173444   1.325   3.917  14.419  0.8380  1.0024  1.8598
17343TIP3    H273445   1.201   3.836  14.451  0.3564  0.2458 -1.4884
17344TIP3   OH273446   2.172   2.502   2.172 -0.1238 -0.3885 -0.5059
17344TIP3    H173447   2.185   2.555   2.094  0.5609 -1.2450 -0.9927
17344TIP3    H273448   2.139   2.418   2.139 -1.4488 -0.2079  0.2686
17345TIP3   OH273449   2.173   0.057  14.176  0.0455 -0.4186 -0.7070
17345TIP3    H173450   2.120   0.021  14.105  0.1278  0.1507 -1.0649
17345TIP3    H273451   2.256   0.080  14.135  0.1578 -0.2411 -0.3856
17346TIP3   OH273452   2.254   6.572  16.385  0.3983  0.2988 -0.5554
17346TIP3    H173453   2.199   6.496  16.400  2.0998 -0.7690  0.7048
17346TIP3    H273454   2.329   6.538  16.335  1.5378  0.9319  0.6451
17347TIP3   OH273455   2.104   0.379  14.588 -0.1166 -0.3228 -0.2312
17347TIP3    H173456   2.028   0.392  14.532 -1.0566 -0.2429  1.0214
17347TIP3    H273457   2.103   0.285  14.608  0.5753 -0.4671 -0.8259
17348TIP3   OH273458   2.809   6.408  12.215 -0.1536 -0.0789 -0.3314
17348TIP3    H173459   2.758   6.333  12.245  0.1066 -0.0314  0.2287
17348TIP3    H273460   2.873   6.370  12.155  0.0942 -0.3292  0.0887
17349TIP3   OH273461   1.030   4.845   1.164 -0.0510  0.2513  0.3861
17349TIP3    H173462   0.962   4.911   1.177 -0.1593 -0.0299  1.3116
17349TIP3    H273463   0.996   4.766   1.208  0.6495 -0.0348  0.4305
17350TIP3   OH273464   1.179   2.249   4.947  0.0632  0.0572  0.5180
17350TIP3    H173465   1.254   2.240   5.006 -0.5121 -0.7589  1.1415
17350TIP3    H273466   1.112   2.192   4.985 -1.1909  1.4533  0.4735
17351TIP3   OH273467   4.897   3.322  15.951 -0.0348 -0.0345 -0.7617
17351TIP3    H173468   4.848   3.353  15.875 -0.3322  0.2048 -0.4723
17351TIP3    H273469   4.837   3.263  15.996  0.0571  0.0050 -0.5860
17352TIP3   OH273470   5.030   0.051  12.224 -0.0092  0.6071  0.1092
17352TIP3    H173471   5.010   0.144  12.224 -0.0706  0.6106 -0.9657
17352TIP3    H273472   5.004   0.020  12.310 -0.3058  1.5188  0.3520
17353TIP3   OH273473   3.799   0.514   3.139  0.3037  0.6207  0.2432
17353TIP3    H173474   3.823   0.507   3.231  0.6310 -1.6284  0.0376
17353TIP3    H273475   3.726   0.576   3.138 -0.0776  0.2471  2.0818
17354TIP3   OH273476   0.658   2.849   2.090  0.4854 -0.1090  0.3580
17354TIP3    H173477   0.614   2.848   2.175  0.4384 -1.4734  0.3381
17354TIP3    H273478   0.746   2.818   2.107  0.4272 -0.5503 -0.1119
17355TIP3   OH273479   5.085   3.759   6.297 -0.0814  0.0416 -0.2753
17355TIP3    H173480   5.035   3.707   6.360 -2.0139  1.6145 -0.4107
17355TIP3    H273481   5.122   3.830   6.348 -1.6614  1.3299 -0.8525
17356TIP3   OH273482   6.023   1.796   0.709 -0.4718  0.4640  0.6414
17356TIP3    H173483   6.026   1.726   0.775  2.2915  0.7713  0.9577
17356TIP3    H273484   6.060   1.872   0.753  0.1415  1.0583 -0.8513
17357TIP3   OH273485   4.043   6.618   5.851 -0.0341  0.0181 -0.4356
17357TIP3    H173486   4.017   6.531   5.883 -0.3949 -0.3059 -1.5634
17357TIP3    H273487   4.137   6.623   5.871 -0.1019 -0.4505  0.0363
17358TIP3   OH273488   2.859   2.068   6.546 -0.1527  0.2221 -0.3005
17358TIP3    H173489   2.877   2.150   6.593  2.3910 -0.0887 -0.6197
17358TIP3    H273490   2.840   2.096   6.456  0.4975  0.4858 -0.3613
17359TIP3   OH273491   1.388   2.494   5.486  0.2016 -0.3738  0.0952
17359TIP3    H173492   1.310   2.470   5.436 -0.1156  1.6864 -0.5213
17359TIP3    H273493   1.356   2.512   5.574  0.2133 -0.8358  0.1952
17360TIP3   OH273494   6.458   2.002  15.934 -0.2057  0.7399 -0.2352
17360TIP3    H173495   6.384   1.981  15.878 -0.9795 -0.1971  1.0946
17360TIP3    H273496   6.419   2.040  16.012  0.6775 -0.0988  0.6376
17361TIP3   OH273497   5.954   3.147   1.881  0.4750 -0.3286 -0.3844
17361TIP3    H173498   6.004   3.132   1.801  0.2373  0.4231 -0.6850
17361TIP3    H273499   5.890   3.076   1.883  1.6426 -1.4048  0.0963
17362TIP3   OH273500   4.090   0.224  10.462 -0.0911  0.9399  0.6643
17362TIP3    H173501   4.183   0.237  10.443  0.1051 -1.3249 -0.3071
17362TIP3    H273502   4.074   0.133  10.438 -2.4292  1.0922  1.4350
17363TIP3   OH273503   0.388   1.652  17.043 -0.3173 -0.8446  0.1314
17363TIP3    H173504   0.386   1.670  16.949  1.0843 -2.0732 -0.1600
17363TIP3    H273505   0.440   1.724  17.080 -0.9371 -0.3174 -0.0093
17364TIP3   OH273506   5.109   5.794  14.247 -0.6553  0.4478  0.3286
17364TIP3    H173507   5.025   5.775  14.207 -1.4898  1.7271  1.3693
17364TIP3    H273508   5.159   5.713  14.240 -1.6323 -0.0575 -1.1067
17365TIP3   OH273509   3.123   5.871   2.090 -0.1410  0.0107  0.4500
17365TIP3    H173510   3.089   5.936   2.152  1.0674 -1.0761  2.3589
17365TIP3    H273511   3.144   5.922   2.011 -0.9206  1.6046  1.2155
17366TIP3   OH273512   5.885   3.595  17.105  0.1320 -0.6750 -0.3032
17366TIP3    H173513   5.830   3.641  17.169  0.3226  1.3114 -1.4637
17366TIP3    H273514   5.912   3.515  17.149 -1.3523 -0.3324  1.3474
17367TIP3   OH273515   6.718   2.285  13.781  0.4951 -0.2757 -0.3275
17367TIP3    H173516   6.802   2.313  13.818  0.2126 -0.4315  0.4636
17367TIP3    H273517   6.653   2.339  13.826  0.2101  0.3256 -1.4360
17368TIP3   OH273518   5.915   1.542   4.690 -0.3559  0.1532  0.2681
17368TIP3    H173519   5.979   1.551   4.760 -0.5906  0.9871  0.3887
17368TIP3    H273520   5.846   1.604   4.712 -0.8840 -0.2511 -0.2115
17369TIP3   OH273521   5.533   5.521   1.540 -0.3330  0.1736  0.3450
17369TIP3    H173522   5.555   5.565   1.622 -1.3006  0.9701  0.1998
17369TIP3    H273523   5.592   5.560   1.476  0.2144 -0.2278  0.5991
17370TIP3   OH273524   0.677   0.187  16.305 -0.4280  0.1244  0.1387
17370TIP3    H173525   0.637   0.103  16.324 -2.2796  1.2626  1.6528
17370TIP3    H273526   0.655   0.204  16.213 -1.7772 -0.1772  0.3838
17371TIP3   OH273527   6.102   0.243  16.479 -0.0422 -0.5417 -0.1864
17371TIP3    H173528   6.147   0.159  16.487 -1.8787 -1.6728 -1.0368
17371TIP3    H273529   6.026   0.235  16.537 -0.6767  0.2006 -0.8803
17372TIP3   OH273530   4.656   3.624   4.711  0.7653  0.0792 -0.2370
17372TIP3    H173531   4.749   3.605   4.703  0.4461 -1.8585  0.1698
17372TIP3    H273532   4.613   3.553   4.663 -0.5203  0.5783  0.1369
17373TIP3   OH273533   3.744   1.966  12.704 -0.7434  0.6649  0.1894
17373TIP3    H173534   3.795   2.006  12.634 -0.1129  0.1885  0.3713
17373TIP3    H273535   3.658   1.950  12.666  0.3044 -1.8868 -1.2644
17374TIP3   OH273536   3.467   1.467  14.353  0.6652  0.5867  0.3880
17374TIP3    H173537   3.379   1.465  14.316  1.2050  1.8478 -1.1141
17374TIP3    H273538   3.494   1.375  14.357  0.0579  0.3061 -1.1686
17375TIP3   OH273539   3.091   1.361  15.039 -0.6126  0.1491  0.0100
17375TIP3    H173540   3.084   1.348  14.945 -0.4736  0.8668 -0.1071
17375TIP3    H273541   3.100   1.456  15.050  2.3188 -0.0986  0.5237
17376TIP3   OH273542   0.152   6.370  14.520 -0.0214 -0.4045  0.2038
17376TIP3    H173543   0.203   6.289  14.521  1.0946  0.2845  0.7423
17376TIP3    H273544   0.217   6.439  14.511 -0.9580  0.4449 -0.2506
17377TIP3   OH273545   5.559   0.377   6.075  0.3334 -0.1724  0.2276
17377TIP3    H173546   5.534   0.440   6.007 -0.8623 -1.0404 -0.1870
17377TIP3    H273547   5.654   0.380   6.077  0.3521  0.5049 -0.8947
17378TIP3   OH273548   5.456   1.768  16.638  0.3710 -0.3929 -0.4510
17378TIP3    H173549   5.370   1.729  16.654 -0.4061  1.3743 -0.1007
17378TIP3    H273550   5.516   1.694  16.634 -1.1785 -1.6689 -0.7718
17379TIP3   OH273551   5.435   1.488   0.352  0.1377  0.0416  0.1439
17379TIP3    H173552   5.454   1.405   0.396 -0.8247 -1.6163 -2.3747
17379TIP3    H273553   5.517   1.510   0.307  1.1852  1.8376  2.6377
17380TIP3   OH273554   6.537   4.951   4.125 -0.9433  0.4637  0.2512
17380TIP3    H173555   6.478   4.994   4.063 -1.4025  0.0501  0.3960
17380TIP3    H273556   6.593   5.022   4.158 -0.0733  0.5402 -1.3034
17381TIP3   OH273557   5.036   2.663  16.054  0.0933 -0.0196  0.3835
17381TIP3    H173558   5.094   2.667  15.978 -1.5436 -1.5460 -1.0527
17381TIP3    H273559   4.982   2.742  16.048  0.8175  0.5107  0.7219
17382TIP3   OH273560   5.774   0.258   3.695 -0.3394 -0.5293 -0.7284
17382TIP3    H173561   5.795   0.213   3.613 -1.6355 -1.5549 -0.5321
17382TIP3    H273562   5.820   0.342   3.689 -0.0180 -0.7904 -2.2754
17383TIP3   OH273563   1.246   3.938   2.537 -0.2129  0.2057  0.3974
17383TIP3    H173564   1.316   3.996   2.506 -0.8406  1.0847  0.5961
17383TIP3    H273565   1.286   3.890   2.610  0.9260 -1.0722 -0.9694
17384TIP3   OH273566   3.207   0.339  11.420 -0.3838  0.4624 -0.8644
17384TIP3    H173567   3.168   0.418  11.458  2.4264  1.1085  0.9305
17384TIP3    H273568   3.272   0.311  11.485 -1.1645 -3.2929 -1.5029
17385TIP3   OH273569   1.711   3.087   3.489  0.1155 -0.8857 -0.4455
17385TIP3    H173570   1.747   3.174   3.471  1.4092 -1.1981  0.5185
17385TIP3    H273571   1.663   3.065   3.409 -3.0768  2.0334  0.4439
17386TIP3   OH273572   4.589   0.876  14.357 -0.1990  0.2779 -0.2067
17386TIP3    H173573   4.562   0.967  14.343 -0.4607  0.1141 -0.8094
17386TIP3    H273574   4.565   0.857  14.447  2.0693  1.5584  0.7383
17387TIP3   OH273575   5.887   5.875   5.528 -0.2523 -0.5278 -0.1507
17387TIP3    H173576   5.865   5.859   5.620 -0.2670 -0.1482 -0.0865
17387TIP3    H273577   5.981   5.890   5.528 -0.4158  0.5279 -0.0464
17388TIP3   OH273578   4.792   6.537   5.018 -0.4941 -1.1264 -0.1818
17388TIP3    H173579   4.870   6.563   4.970 -0.9224 -0.9580 -0.8101
17388TIP3    H273580   4.753   6.619   5.049 -0.5779 -1.1874 -0.1220
17389TIP3   OH273581   3.342   6.086  11.421 -0.3633  0.0522  0.1031
17389TIP3    H173582   3.365   6.000  11.386 -0.8214 -0.4909  1.1114
17389TIP3    H273583   3.275   6.119  11.360 -0.5439 -0.5184 -0.0141
17390TIP3   OH273584   5.803   5.264   5.309 -0.5887  0.5275  0.5264
17390TIP3    H173585   5.765   5.213   5.381 -2.1724  0.7049 -0.1351
17390TIP3    H273586   5.845   5.339   5.352 -0.6130  0.0962  1.3200
17391TIP3   OH273587   5.383   2.398   0.731  0.5117 -1.0312  0.0325
17391TIP3    H173588   5.375   2.395   0.826  1.3950 -1.8665  0.0908
17391TIP3    H273589   5.453   2.461   0.714 -0.2319 -0.2227 -0.1155
17392TIP3   OH273590   2.489   1.820  10.618 -0.2213  0.1660  0.1139
17392TIP3    H173591   2.548   1.755  10.579  0.5388  0.2967  1.0197
17392TIP3    H273592   2.490   1.893  10.557  2.5779  1.2325  1.2823
17393TIP3   OH273593   1.146   2.229  13.100  0.3239  0.6609 -0.6458
17393TIP3    H173594   1.174   2.315  13.134 -1.6937  0.2579  2.4985
17393TIP3    H273595   1.227   2.178  13.096  0.9689  1.1971  2.5921
17394TIP3   OH273596   3.660   6.312  12.929  0.4105  0.1397 -0.1707
17394TIP3    H173597   3.617   6.354  12.854  1.0003  0.1705 -0.4937
17394TIP3    H273598   3.630   6.362  13.005 -1.0400 -0.5487 -0.2573
17395TIP3   OH273599   4.666   0.018  15.300 -0.8907 -0.5441 -0.0515
17395TIP3    H173600   4.740  -0.040  15.279 -0.4939 -0.7995  1.8692
17395TIP3    H273601   4.598  -0.041  15.332 -1.5276 -0.1970 -0.7455
17396TIP3   OH273602   3.899   0.722  16.547 -0.0382  0.7187 -0.5069
17396TIP3    H173603   3.989   0.727  16.581  0.1528  1.0351 -1.0493
17396TIP3    H273604   3.909   0.734  16.453 -0.7149  1.3217 -0.5001
17397TIP3   OH273605   1.772   6.064  15.324 -0.0744 -0.0998  0.0879
17397TIP3    H173606   1.750   5.979  15.285  0.9670 -0.8979  1.1506
17397TIP3    H273607   1.822   6.042  15.402  0.6561  1.5152  0.1206
17398TIP3   OH273608   6.223   5.521   0.774 -0.2634  0.3961  0.0976
17398TIP3    H173609   6.286   5.474   0.719  0.7434  1.8547 -0.0400
17398TIP3    H273610   6.277   5.571   0.834 -1.3342  0.6263  0.8863
17399TIP3   OH273611   3.417   2.472  11.495 -0.5181  0.4468 -0.5962
17399TIP3    H173612   3.498   2.442  11.455  0.0689  0.7582  0.3297
17399TIP3    H273613   3.367   2.391  11.511 -0.3523  0.2458 -1.0616
17400TIP3   OH273614   2.572   4.672   3.257 -0.2273 -0.2273  0.4135
17400TIP3    H173615   2.567   4.764   3.233  0.1313  0.0908  1.5404
17400TIP3    H273616   2.658   4.643   3.226  0.0066  0.0342  0.8260
17401TIP3   OH273617   3.085   5.217   0.483 -0.1627 -0.1303  0.4433
17401TIP3    H173618   3.139   5.185   0.411 -1.5682  0.6145 -1.0021
17401TIP3    H273619   2.995   5.211   0.450 -0.7227  2.0668  1.3851
17402TIP3   OH273620   2.399   4.210   5.426 -0.3634  1.1529  0.4969
17402TIP3    H173621   2.305   4.205   5.441 -0.2731  2.0943  1.5515
17402TIP3    H273622   2.409   4.249   5.340 -0.9206 -0.9208 -0.5673
17403TIP3   OH273623   2.419   1.047   6.453 -0.1662 -0.0887 -0.4535
17403TIP3    H173624   2.493   1.024   6.510  1.7664  1.5420 -2.1452
17403TIP3    H273625   2.351   1.075   6.513  1.1219 -0.1604  1.1337
17404TIP3   OH273626   2.399   4.693   1.071  0.3657 -0.3035  0.4053
17404TIP3    H173627   2.311   4.716   1.040  1.1568  0.3857 -1.4628
17404TIP3    H273628   2.435   4.776   1.104  0.9394 -0.1838 -0.4868
17405TIP3   OH273629   5.291   5.598   0.732 -1.0191  0.0906  0.0995
17405TIP3    H173630   5.320   5.589   0.641 -1.4339 -0.9421  0.0548
17405TIP3    H273631   5.254   5.686   0.737  1.6617  1.3326  0.0418
17406TIP3   OH273632   2.883   3.539   3.590  0.0646  0.2926 -0.0658
17406TIP3    H173633   2.912   3.448   3.581 -0.4611  0.0937  0.2395
17406TIP3    H273634   2.960   3.591   3.565  0.1587 -0.2318 -0.8841
17407TIP3   OH273635   6.579   6.473  13.051  0.0944  0.0883 -0.1414
17407TIP3    H173636   6.514   6.403  13.050 -0.1985  0.3507 -1.4987
17407TIP3    H273637   6.658   6.432  13.085  0.1921 -1.1821 -1.7573
17408TIP3   OH273638   4.488   6.626  16.657  0.1901 -0.1029 -0.1631
17408TIP3    H173639   4.483   6.615  16.752  0.8925 -0.5523 -0.1783
17408TIP3    H273640   4.410   6.581  16.624 -0.4052  0.6001  0.2333
17409TIP3   OH273641   4.196   2.743  15.114  0.4147  0.3531 -0.4633
17409TIP3    H173642   4.269   2.725  15.174  0.0293 -1.4934 -0.4911
17409TIP3    H273643   4.216   2.691  15.036 -0.6557  0.2510 -0.6838
17410TIP3   OH273644   1.296   5.929   3.404 -0.0285 -0.1711  0.9666
17410TIP3    H173645   1.212   5.884   3.398 -0.5841  0.8280  1.0033
17410TIP3    H273646   1.325   5.914   3.495 -0.1506 -0.5256  0.9491
17411TIP3   OH273647   0.372   1.844   6.618  1.0941 -0.1608  0.3447
17411TIP3    H173648   0.289   1.892   6.621  1.6963  1.0812 -1.4294
17411TIP3    H273649   0.365   1.780   6.689 -0.7207  0.9660  1.2558
17412TIP3   OH273650   4.428   6.344   4.996 -0.2335 -0.7342 -0.2617
17412TIP3    H173651   4.337   6.335   5.026  0.2826 -0.4659  1.4660
17412TIP3    H273652   4.431   6.431   4.956 -0.2062  0.2645  1.8085
17413TIP3   OH273653   4.479   0.622  13.904  0.4180 -0.3901 -0.7250
17413TIP3    H173654   4.409   0.654  13.848  0.0352  1.3806  0.6490
17413TIP3    H273655   4.559   0.657  13.865  0.1555  0.8321 -0.2239
17414TIP3   OH273656   6.378   4.396   2.010 -0.7444  0.3827  0.6420
17414TIP3    H173657   6.306   4.399   2.073 -0.8205 -0.8784  0.6525
17414TIP3    H273658   6.342   4.431   1.929 -1.2543  0.1596  0.7694
17415TIP3   OH273659   0.254   4.122  10.697  0.0246 -0.6173  0.4789
17415TIP3    H173660   0.229   4.195  10.753  0.9068  0.2399 -0.2035
17415TIP3    H273661   0.266   4.049  10.758  0.5916  0.1920  1.3790
17416TIP3   OH273662   1.138   5.051  15.752  0.4258 -1.1718  0.4012
17416TIP3    H173663   1.172   5.114  15.815 -0.6184  0.7550 -0.8851
17416TIP3    H273664   1.215   5.014  15.710  1.0545  0.6709 -0.1546
17417TIP3   OH273665   5.233   6.147   5.511  0.4590 -0.0653  0.1086
17417TIP3    H173666   5.253   6.161   5.418  1.6256  0.0507  0.3702
17417TIP3    H273667   5.318   6.151   5.555 -0.2320  1.6751  1.4140
17418TIP3   OH273668   4.530   3.042   1.583 -0.1013 -0.6183 -0.2481
17418TIP3    H173669   4.588   3.118   1.591 -0.6992 -0.2875  1.2257
17418TIP3    H273670   4.570   2.976   1.639  0.1678 -1.2444 -1.1687
17419TIP3   OH273671   4.628   2.045   5.126  0.1678  0.1891  0.2835
17419TIP3    H173672   4.636   2.030   5.220  0.1294  0.0932  0.2717
17419TIP3    H273673   4.719   2.054   5.096  0.1107  2.6278  0.7134
17420TIP3   OH273674   2.051   0.474   0.810 -0.3123  0.7888 -0.0987
17420TIP3    H173675   2.043   0.431   0.725 -0.7314 -0.5601  0.5859
17420TIP3    H273676   1.969   0.453   0.855  1.1006 -1.2485  1.7977
17421TIP3   OH273677   2.432   5.728   5.944  0.5032  0.1064  0.2136
17421TIP3    H173678   2.364   5.674   5.983 -0.1101 -0.8568 -2.0230
17421TIP3    H273679   2.391   5.814   5.932  0.5845  0.3056  1.2937
17422TIP3   OH273680   1.237   0.897  15.383  0.1844 -0.5903  0.0247
17422TIP3    H173681   1.187   0.936  15.455 -1.6379 -1.1987 -0.8576
17422TIP3    H273682   1.231   0.961  15.312  1.3681 -0.3129  0.1549
17423TIP3   OH273683   2.430   2.455  13.941 -0.5114 -0.4087 -0.0869
17423TIP3    H173684   2.345   2.413  13.930 -0.3684 -0.0767 -3.3666
17423TIP3    H273685   2.420   2.541  13.900  0.7366  0.6656  1.7143
17424TIP3   OH273686   2.475   0.080  14.509  0.2474 -0.1592 -0.8327
17424TIP3    H173687   2.402   0.018  14.502  0.3326 -0.1985 -1.4234
17424TIP3    H273688   2.438   0.163  14.478  0.2804 -0.0258 -0.5267
17425TIP3   OH273689   4.050   2.060  11.932  0.0001 -0.6369  0.8062
17425TIP3    H173690   4.103   1.983  11.952 -0.5562 -1.5527 -1.0621
17425TIP3    H273691   4.112   2.132  11.931  1.5750 -1.8522 -2.5795
17426TIP3   OH273692   3.916   1.722   6.513  0.1604 -0.0868  0.2420
17426TIP3    H173693   3.906   1.636   6.553  1.8499 -0.1752  0.5368
17426TIP3    H273694   3.856   1.722   6.439  1.6127 -2.3159 -1.0344
17427TIP3   OH273695   2.802   5.775   6.020 -0.2976  0.1693  0.0859
17427TIP3    H173696   2.750   5.752   5.943  0.7380 -1.6777 -0.1284
17427TIP3    H273697   2.815   5.692   6.066 -0.8305  1.2122  2.2499
17428TIP3   OH273698   1.816   4.137  16.803  0.6391 -0.8508 -0.1817
17428TIP3    H173699   1.741   4.193  16.823  0.2724 -1.2556 -0.4392
17428TIP3    H273700   1.794   4.094  16.720  1.3456 -0.6280 -0.5000
17429TIP3   OH273701   4.400   0.194  11.537  0.0128  0.4472  0.0277
17429TIP3    H173702   4.338   0.191  11.464  0.6986 -0.4860 -0.5235
17429TIP3    H273703   4.469   0.132  11.514  0.4873  0.4857  1.2505
17430TIP3   OH273704   5.741   6.087   0.110  0.2993  0.0762 -0.1887
17430TIP3    H173705   5.772   6.082   0.200 -1.2771 -0.7045  0.3444
17430TIP3    H273706   5.699   6.172   0.103  1.0110  0.4163 -0.3979
17431TIP3   OH273707   2.936   1.101   4.916  0.2863  0.4716  0.0522
17431TIP3    H173708   3.010   1.161   4.904  0.6734 -0.4356 -3.2513
17431TIP3    H273709   2.860   1.149   4.884  0.2966 -0.1450 -0.9438
17432TIP3   OH273710   3.742   2.655  13.843 -0.1345 -0.0726  0.3553
17432TIP3    H173711   3.807   2.585  13.840 -1.5599 -1.5093  1.1646
17432TIP3    H273712   3.754   2.702  13.760  0.6998 -1.4516 -0.3514
17433TIP3   OH273713   5.414   1.876  12.626 -0.6186  0.2287 -1.1094
17433TIP3    H173714   5.423   1.934  12.701 -3.8276 -0.4141 -0.0533
17433TIP3    H273715   5.355   1.922  12.567 -1.9346 -1.2026 -0.9771
17434TIP3   OH273716   5.868   2.762  12.416 -0.8017  0.1319  0.1311
17434TIP3    H173717   5.775   2.744  12.404 -0.8546  0.9376 -0.8614
17434TIP3    H273718   5.875   2.857  12.410  0.2815 -0.0099 -1.5620
17435TIP3   OH273719   4.535   3.229   2.680  0.4890  0.3638 -0.2135
17435TIP3    H173720   4.453   3.254   2.637 -0.1223 -2.4816 -0.8751
17435TIP3    H273721   4.602   3.278   2.633 -0.7609  3.1958  0.6888
17436TIP3   OH273722   4.569   4.809  11.102  0.3103  0.1005  0.1327
17436TIP3    H173723   4.561   4.839  11.193  2.0395  1.8444 -0.2153
17436TIP3    H273724   4.506   4.862  11.054  0.7365  0.5488  0.0589
17437TIP3   OH273725   1.316   1.290  13.065  0.3947  0.0571 -0.0056
17437TIP3    H173726   1.233   1.262  13.105  1.3952 -1.6830  0.9550
17437TIP3    H273727   1.350   1.211  13.023  0.5614  1.2707 -2.2890
17438TIP3   OH273728   5.551   3.190   5.383  0.2170 -0.2261 -0.8058
17438TIP3    H173729   5.633   3.240   5.383  0.6210 -0.8637 -0.7958
17438TIP3    H273730   5.567   3.120   5.447 -0.7040  0.2179 -0.0738
17439TIP3   OH273731   4.400   4.374  11.466  0.0761  0.0430 -0.0728
17439TIP3    H173732   4.346   4.367  11.387  0.3477 -1.5023 -0.1692
17439TIP3    H273733   4.409   4.468  11.481 -0.2808  0.3692 -1.6718
17440TIP3   OH273734   2.792   5.071   5.818  0.4654  0.0002  0.4209
17440TIP3    H173735   2.859   5.136   5.795 -0.4220  0.5535 -0.6763
17440TIP3    H273736   2.771   5.028   5.736 -1.1550  0.4604  0.5552
17441TIP3   OH273737   5.461   1.801  16.333 -0.1725  0.8568  0.1234
17441TIP3    H173738   5.444   1.775  16.243 -0.8815 -0.4135  0.5968
17441TIP3    H273739   5.537   1.749  16.359  0.8815  2.2077 -0.1342
17442TIP3   OH273740   5.595   1.380   3.092 -0.3519  0.2404 -0.2530
17442TIP3    H173741   5.544   1.461   3.082 -0.5700  0.2966  1.1331
17442TIP3    H273742   5.682   1.402   3.057 -0.4780  1.0105 -0.1070
17443TIP3   OH273743   2.246   1.864   2.182 -0.3766 -0.5481 -0.3317
17443TIP3    H173744   2.295   1.794   2.226 -0.3794  0.2836  1.0334
17443TIP3    H273745   2.301   1.887   2.107  0.7300 -0.4799  0.4731
17444TIP3   OH273746   6.675   0.964   3.905  0.9325  0.4978 -0.5680
17444TIP3    H173747   6.722   0.882   3.922  0.7040  0.1872 -1.3529
17444TIP3    H273748   6.744   1.030   3.894  1.0931  0.8852  2.1347
17445TIP3   OH273749   1.083   1.946   5.373 -0.0246  0.3170 -0.4145
17445TIP3    H173750   1.006   1.895   5.399 -0.5855  1.4528  0.1876
17445TIP3    H273751   1.152   1.917   5.432 -0.5751  0.8937  0.5251
17446TIP3   OH273752   1.629   0.277   0.096 -0.0361 -0.0747 -0.2969
17446TIP3    H173753   1.566   0.319   0.038  0.6386  1.6070  0.1118
17446TIP3    H273754   1.684   0.349   0.127  1.2878 -1.3070  0.3377
17447TIP3   OH273755   1.919   5.371   5.926  0.2748  0.8100  0.1646
17447TIP3    H173756   1.976   5.326   5.988 -0.2848  1.0953  0.8944
17447TIP3    H273757   1.832   5.363   5.964 -0.4396 -0.8793 -1.6197
17448TIP3   OH273758   5.421   3.715   0.793 -0.4182 -0.0732 -0.2398
17448TIP3    H173759   5.374   3.784   0.746 -0.4185 -0.1894 -0.4093
17448TIP3    H273760   5.485   3.762   0.846 -0.3713  0.0533 -0.4097
17449TIP3   OH273761   0.767   3.024   0.199  0.4015 -0.2841  0.2913
17449TIP3    H173762   0.816   2.978   0.131  0.2120  1.3964 -1.0640
17449TIP3    H273763   0.835   3.064   0.254  0.5705  0.2024 -0.2600
17450TIP3   OH273764   3.457   3.323  14.689 -0.4344 -0.1551  0.3575
17450TIP3    H173765   3.490   3.383  14.621 -2.2596 -2.0434 -2.4225
17450TIP3    H273766   3.377   3.364  14.721 -1.0187 -0.4621 -0.6538
17451TIP3   OH273767   0.448   1.662  16.743 -0.1099 -0.1046 -0.0202
17451TIP3    H173768   0.480   1.582  16.702 -0.8076 -0.8088  0.7839
17451TIP3    H273769   0.475   1.732  16.684  0.9787 -0.8774 -0.4648
17452TIP3   OH273770   5.306   6.316   2.211  0.5131 -0.1663  0.2202
17452TIP3    H173771   5.366   6.340   2.141  1.3202 -1.7607  0.3275
17452TIP3    H273772   5.257   6.241   2.177  0.9111 -0.9560  1.3335
17453TIP3   OH273773   2.886   6.409  15.495 -1.1407  0.0277  0.1164
17453TIP3    H173774   2.978   6.391  15.474 -1.8740 -1.5606 -2.1283
17453TIP3    H273775   2.888   6.442  15.585  1.5150 -1.0437  0.5465
17454TIP3   OH273776   3.935   5.962   2.891 -0.4752  0.2897  0.0604
17454TIP3    H173777   3.848   5.940   2.856 -0.5695  0.3409  0.2612
17454TIP3    H273778   3.940   6.057   2.884 -0.5013  0.3013  0.2018
17455TIP3   OH273779   1.719   3.563   0.157  0.5387  0.1009 -0.2230
17455TIP3    H173780   1.632   3.524   0.143  0.7310  0.0583 -1.3678
17455TIP3    H273781   1.764   3.501   0.215  0.2610 -0.5419 -0.6862
17456TIP3   OH273782   1.659   0.948  14.403 -0.2617  0.1046  0.1496
17456TIP3    H173783   1.652   0.864  14.358 -3.6165 -0.1391  0.9148
17456TIP3    H273784   1.660   0.926  14.496 -1.5009  0.8976  0.3716
17457TIP3   OH273785   6.319   0.153   5.410 -0.5365 -0.0243  0.4065
17457TIP3    H173786   6.336   0.222   5.474  0.8043 -0.9404  1.0829
17457TIP3    H273787   6.404   0.137   5.368 -1.1294 -0.3160 -0.7281
17458TIP3   OH273788   5.150   1.780   1.733 -0.3575  0.1554 -0.7081
17458TIP3    H173789   5.160   1.687   1.711 -2.0766 -0.4705  0.8988
17458TIP3    H273790   5.199   1.791   1.814 -1.0920  0.3424 -0.2745
17459TIP3   OH273791   2.310   1.906  11.354 -0.1996 -0.5105  0.0361
17459TIP3    H173792   2.275   1.993  11.336 -0.4662 -0.8272 -1.0389
17459TIP3    H273793   2.245   1.846  11.316 -0.4989 -1.2171  1.5714
17460TIP3   OH273794   5.392   0.726   2.990 -0.2222  0.3683  0.8553
17460TIP3    H173795   5.360   0.740   3.080 -0.3777  0.3276  0.8062
17460TIP3    H273796   5.380   0.633   2.974  0.0095  0.3352  0.8692
17461TIP3   OH273797   6.195   4.761  14.320 -0.1837  0.7059 -0.1883
17461TIP3    H173798   6.193   4.777  14.414  0.9826 -0.3336  0.0421
17461TIP3    H273799   6.206   4.848  14.281 -1.8344  1.2766  0.5416
17462TIP3   OH273800   3.053   5.789   5.216 -0.1866  0.2071  0.1218
17462TIP3    H173801   3.040   5.884   5.226 -1.6742  0.1250 -0.6153
17462TIP3    H273802   3.066   5.757   5.305  1.0993  1.1884  0.3085
17463TIP3   OH273803   5.006   3.200  12.349  0.0119 -1.0062 -0.3044
17463TIP3    H173804   4.969   3.267  12.407  0.8961 -0.3471 -0.4813
17463TIP3    H273805   4.987   3.117  12.393  0.5147 -0.5346  0.8584
17464TIP3   OH273806   4.557   1.559  16.895 -0.4388  0.4195  0.4471
17464TIP3    H173807   4.651   1.573  16.904 -0.2288  1.8746 -2.6105
17464TIP3    H273808   4.520   1.592  16.976  1.6356  0.4327  1.4608
17465TIP3   OH273809   1.826   0.351  12.185  0.1566 -0.1369  0.3195
17465TIP3    H173810   1.789   0.266  12.211 -0.6715  0.2870  0.5715
17465TIP3    H273811   1.785   0.414  12.245 -0.4882  0.6428 -0.9001
17466TIP3   OH273812   4.027   3.780  15.440  0.2776  0.1257 -0.4717
17466TIP3    H173813   3.969   3.780  15.516  1.4293 -0.4981  0.4451
17466TIP3    H273814   4.115   3.787  15.477  0.9163 -0.9612 -1.6955
17467TIP3   OH273815   5.418   5.824   2.751  0.9664 -0.2061  0.2941
17467TIP3    H173816   5.484   5.813   2.683 -1.9365  0.2878 -2.8999
17467TIP3    H273817   5.390   5.915   2.742 -1.5170 -0.9165  0.0121
17468TIP3   OH273818   6.499   2.553  12.506  0.0911  0.0350 -0.3209
17468TIP3    H173819   6.479   2.613  12.434 -0.0250 -0.0449 -0.3546
17468TIP3    H273820   6.477   2.603  12.585 -0.0952  0.0015 -0.3526
17469TIP3   OH273821   3.159   5.190   0.206 -0.4649 -0.0128  0.7536
17469TIP3    H173822   3.176   5.168   0.114 -0.1774 -0.7430  0.9788
17469TIP3    H273823   3.130   5.281   0.203  0.4921  0.2919  0.0368
17470TIP3   OH273824   3.974   2.662   4.192 -0.0558  0.5929  0.3596
17470TIP3    H173825   4.049   2.605   4.207 -0.9458 -1.3275 -1.9720
17470TIP3    H273826   3.903   2.621   4.241  0.0217  1.5338  1.2868
17471TIP3   OH273827   4.668   5.077   0.316  0.1108 -0.4037  0.7605
17471TIP3    H173828   4.662   5.152   0.257 -0.6588 -0.2658  0.9907
17471TIP3    H273829   4.603   5.096   0.384  1.9469  0.1457  2.4465
17472TIP3   OH273830   5.756   4.103   5.982  0.0493 -0.1563  0.6185
17472TIP3    H173831   5.693   4.160   6.025  1.4667  0.1965  2.3309
17472TIP3    H273832   5.714   4.017   5.981 -0.4449  0.0517  1.7838
17473TIP3   OH273833   1.037   0.461   0.697 -0.1817  0.2459  0.0462
17473TIP3    H173834   1.056   0.478   0.604 -0.8323 -1.4266 -0.4355
17473TIP3    H273835   1.089   0.525   0.744  2.3883 -0.6282 -1.3690
17474TIP3   OH273836   2.023   0.022  13.962 -0.3899  0.1458  0.0624
17474TIP3    H173837   2.085   0.057  13.898 -0.6136  0.0587 -0.2020
17474TIP3    H273838   1.937   0.032  13.921 -0.3521 -2.3632 -0.8358
17475TIP3   OH273839   2.877   4.982  11.440  0.1665  0.4777 -0.2765
17475TIP3    H173840   2.890   4.948  11.352 -0.4379 -0.4370 -0.0299
17475TIP3    H273841   2.938   4.931  11.495 -3.0285 -2.8116  0.6508
17476TIP3   OH273842   3.453   4.122  12.972 -0.2859  0.1951  0.1907
17476TIP3    H173843   3.416   4.166  12.896  0.4188  0.6906  0.1282
17476TIP3    H273844   3.535   4.084  12.940  0.2602  0.8229  0.8188
17477TIP3   OH273845   4.169   0.262   0.600  0.2637  0.3184 -0.0281
17477TIP3    H173846   4.111   0.218   0.537 -0.0932  1.7704 -0.7568
17477TIP3    H273847   4.256   0.229   0.580  0.0614  0.2584 -0.8471
17478TIP3   OH273848   4.533   4.965  12.427  0.6562 -0.5218  0.4176
17478TIP3    H173849   4.574   4.969  12.514 -1.0682 -0.1216  1.2546
17478TIP3    H273850   4.461   4.903  12.437 -0.7755  0.9663 -0.1680
17479TIP3   OH273851   5.959   0.083   4.039  0.2580  0.4619  0.2747
17479TIP3    H173852   5.931  -0.005   4.064  0.7804 -0.0428 -0.8345
17479TIP3    H273853   5.883   0.122   3.997  0.3060  0.1887 -0.0705
17480TIP3   OH273854   3.792   3.567   5.800 -0.6538  0.0315 -0.2172
17480TIP3    H173855   3.742   3.492   5.832 -0.3041  0.3093  1.0324
17480TIP3    H273856   3.741   3.643   5.829 -0.4524  0.2949 -0.5485
17481TIP3   OH273857   5.966   5.174  11.717  0.1649 -0.4355  0.5586
17481TIP3    H173858   5.958   5.152  11.624  1.1312  1.4811 -0.0266
17481TIP3    H273859   5.897   5.123  11.759 -0.6358 -0.9677 -1.2818
17482TIP3   OH273860   1.266   5.466  11.909  0.1906  0.2002 -0.2155
17482TIP3    H173861   1.338   5.408  11.931  0.3127 -0.7517 -2.7964
17482TIP3    H273862   1.189   5.410  11.907  0.3129 -0.0024 -2.7623
17483TIP3   OH273863   6.401   4.320  14.990 -0.1079  0.0504 -0.1711
17483TIP3    H173864   6.429   4.246  15.044 -3.7590 -1.6895 -0.3740
17483TIP3    H273865   6.363   4.382  15.051 -2.4044 -1.0107 -0.4288
17484TIP3   OH273866   4.738   1.702  16.229 -0.0108  0.3634 -0.2778
17484TIP3    H173867   4.744   1.644  16.154  0.1697 -0.9950  0.7452
17484TIP3    H273868   4.647   1.732  16.228 -0.8442 -1.8548  0.4667
17485TIP3   OH273869   0.626   5.407   5.418  0.1122 -0.0145  0.2614
17485TIP3    H173870   0.668   5.454   5.345 -1.9179 -0.1317 -1.0810
17485TIP3    H273871   0.676   5.326   5.426  1.5779  0.8489  0.3548
17486TIP3   OH273872   6.674   0.897   2.213  0.3755 -0.3135 -0.0223
17486TIP3    H173873   6.585   0.917   2.182  0.1605  0.5062  1.0369
17486TIP3    H273874   6.673   0.804   2.231  0.1066 -0.5470 -1.1510
17487TIP3   OH273875   3.417   1.287   2.183  0.2824  0.2814 -0.1103
17487TIP3    H173876   3.409   1.335   2.101  0.6680  0.1495 -0.2255
17487TIP3    H273877   3.378   1.345   2.249  0.6542  0.7113 -0.2621
17488TIP3   OH273878   5.246   6.628   4.892  0.1024  0.5566  0.4928
17488TIP3    H173879   5.162   6.673   4.883  0.6015  1.9662  2.3024
17488TIP3    H273880   5.231   6.542   4.854 -1.5978  1.4080 -0.9153
17489TIP3   OH273881   3.378   2.523   1.655  0.3188 -0.0610 -0.1025
17489TIP3    H173882   3.444   2.569   1.707 -2.0451  3.4383  0.1198
17489TIP3    H273883   3.352   2.449   1.709  2.5075 -0.2808  0.7269
17490TIP3   OH273884   0.624   1.555   1.997  0.5370 -0.6111  0.3094
17490TIP3    H173885   0.671   1.638   2.006  0.2350 -0.3472 -0.4307
17490TIP3    H273886   0.693   1.489   1.990  0.7888 -0.3338  0.1288
17491TIP3   OH273887   5.443   6.072  14.928  0.5559 -0.1481 -0.2644
17491TIP3    H173888   5.454   6.013  15.003 -0.7343 -1.1602 -0.8216
17491TIP3    H273889   5.460   6.016  14.851 -1.2814  0.0048 -0.8305
17492TIP3   OH273890   3.322   2.777  14.591  0.2075 -0.2681  0.5439
17492TIP3    H173891   3.367   2.827  14.524  0.7470  0.1796  1.2274
17492TIP3    H273892   3.274   2.843  14.642  0.6839 -0.4630  1.2666
17493TIP3   OH273893   1.259   4.447  12.911  0.4856  0.1983 -0.2989
17493TIP3    H173894   1.328   4.382  12.912  1.3573  1.1014  1.0981
17493TIP3    H273895   1.276   4.500  12.832  0.2592 -0.7053 -0.9733
17494TIP3   OH273896   4.274   3.934  11.991 -0.5447 -0.1095  0.1534
17494TIP3    H173897   4.270   4.026  11.965  0.2818 -0.8742 -3.1380
17494TIP3    H273898   4.192   3.896  11.959  0.8283 -1.2462 -2.3214
17495TIP3   OH273899   4.176   3.015   6.532  0.2010  0.0710  0.5155
17495TIP3    H173900   4.160   2.967   6.451 -0.1884  1.7540 -0.4500
17495TIP3    H273901   4.262   2.985   6.562 -0.6945 -2.3433  0.8084
17496TIP3   OH273902   2.318   2.472   2.396 -0.3444  0.0239 -0.5256
17496TIP3    H173903   2.315   2.459   2.302 -1.7274  1.1829 -0.6652
17496TIP3    H273904   2.227   2.468   2.425 -0.5247  4.0584  0.0677
17497TIP3   OH273905   0.641   6.132  12.156 -0.4558 -0.3115 -0.1255
17497TIP3    H173906   0.622   6.212  12.205  0.8360  0.4599 -0.8180
17497TIP3    H273907   0.720   6.153  12.105 -0.5887 -1.7425 -0.9894
17498TIP3   OH273908   1.864   1.839  15.829  0.0246  0.3691 -0.3463
17498TIP3    H173909   1.849   1.859  15.737  1.3835 -0.8138 -0.8789
17498TIP3    H273910   1.960   1.830  15.836 -0.1670 -1.3358  0.7576
17499TIP3   OH273911   4.497   1.028   4.165 -0.2707 -0.4215 -0.3645
17499TIP3    H173912   4.566   1.045   4.100  0.7656 -0.1761  0.7464
17499TIP3    H273913   4.443   1.107   4.163 -0.0683 -0.2859 -0.7012
17500TIP3   OH273914   1.014   3.981  11.307  0.2168 -0.8289  0.0269
17500TIP3    H173915   0.920   3.986  11.324  0.3976  1.7979  0.6767
17500TIP3    H273916   1.035   4.062  11.261  2.3111 -0.8600  0.7979
17501TIP3   OH273917   5.782   2.171  14.159  0.1814 -0.2990 -0.3470
17501TIP3    H173918   5.827   2.229  14.220 -1.7074  1.1364 -0.2155
17501TIP3    H273919   5.850   2.142  14.098  1.5431  0.5231  0.7285
17502TIP3   OH273920   1.924   0.552   5.139  0.1366 -0.2570  0.2972
17502TIP3    H173921   1.921   0.556   5.235 -0.2087  0.3782  0.2681
17502TIP3    H273922   1.915   0.643   5.111 -1.8871 -0.6037 -0.3790
17503TIP3   OH273923   3.360   3.087   2.970 -0.3876  0.2295 -0.3542
17503TIP3    H173924   3.421   3.070   2.898  0.4058 -0.5081  0.4765
17503TIP3    H273925   3.414   3.123   3.040 -1.0236  0.2220  0.1507
17504TIP3   OH273926   3.314   0.481   2.704  0.3053 -0.8158 -0.1396
17504TIP3    H173927   3.225   0.446   2.694 -0.0184 -0.7500  1.9294
17504TIP3    H273928   3.371   0.405   2.697  0.0553 -0.9264 -1.0335
17505TIP3   OH273929   3.590   4.991  15.433  0.0503  0.2299 -0.4492
17505TIP3    H173930   3.500   4.995  15.465  0.4080  0.5668  0.5600
17505TIP3    H273931   3.605   5.077  15.393 -0.1894  0.0500 -0.9193
17506TIP3   OH273932   4.841   2.213  16.881  0.3071 -0.1322  0.6146
17506TIP3    H173933   4.755   2.177  16.905 -0.4498  2.2068  1.6749
17506TIP3    H273934   4.869   2.160  16.806 -2.1330 -0.8637  0.1328
17507TIP3   OH273935   0.365   2.586   3.501  0.7946  0.2304  0.6450
17507TIP3    H173936   0.374   2.582   3.406 -1.2101  1.2456  0.3672
17507TIP3    H273937   0.396   2.500   3.532 -0.2519 -0.8313 -1.0903
17508TIP3   OH273938   6.127   1.239   2.120 -0.0652 -0.1596  0.1059
17508TIP3    H173939   6.208   1.271   2.079  0.7951  0.8032  2.4090
17508TIP3    H273940   6.057   1.277   2.067  0.9840  0.3990 -0.9332
17509TIP3   OH273941   1.062   1.564  16.822  0.2066 -0.4483 -0.2966
17509TIP3    H173942   0.992   1.521  16.773  2.2740 -2.7587 -1.4529
17509TIP3    H273943   1.143   1.531  16.783  2.0041 -0.7130  3.2003
17510TIP3   OH273944   5.332   4.141  15.366  0.0772 -0.3656 -0.4726
17510TIP3    H173945   5.280   4.138  15.446  0.5152 -0.9943 -0.2099
17510TIP3    H273946   5.423   4.140  15.396  0.2898 -3.1290 -1.0168
17511TIP3   OH273947   4.518   6.483   4.630 -0.0672 -0.4847 -0.4904
17511TIP3    H173948   4.498   6.572   4.602  0.1588 -0.5697 -0.9263
17511TIP3    H273949   4.435   6.450   4.666  0.6112  1.0497  2.8492
17512TIP3   OH273950   5.427   4.049  14.711  0.2931 -0.5099 -0.3746
17512TIP3    H173951   5.382   4.113  14.657 -0.6800 -0.9237 -0.0768
17512TIP3    H273952   5.357   4.003  14.758  0.8804 -2.4419 -1.2958
17513TIP3   OH273953   5.279   3.733  14.686  0.2985  0.3111  0.2458
17513TIP3    H173954   5.267   3.776  14.601 -1.7730  0.6904  0.6787
17513TIP3    H273955   5.292   3.640  14.664  0.4019  0.4952 -0.5068
17514TIP3   OH273956   2.316   5.843  15.196 -0.3817 -0.3257 -0.3182
17514TIP3    H173957   2.242   5.875  15.248 -0.9288 -1.1127 -0.5785
17514TIP3    H273958   2.357   5.922  15.161  0.6835  0.2858  2.1636
17515TIP3   OH273959   2.367   5.110  10.879  0.1381  0.0937  1.0253
17515TIP3    H173960   2.457   5.119  10.847  0.0187 -1.3460  0.2291
17515TIP3    H273961   2.312   5.125  10.801 -0.2389 -1.0005  1.0723
17516TIP3   OH273962   2.022   4.710   1.839  0.2550 -0.3716  0.1698
17516TIP3    H173963   1.926   4.703   1.835  0.3902 -2.2772 -1.5251
17516TIP3    H273964   2.051   4.680   1.753  2.3854  0.6899  0.4604
17517TIP3   OH273965   5.148   2.264  16.318  0.1968 -0.4179 -0.1333
17517TIP3    H173966   5.238   2.234  16.319  0.7423  1.1490  0.4420
17517TIP3    H273967   5.105   2.217  16.389  0.4123 -1.5119 -0.7000
17518TIP3   OH273968   4.306   3.440  11.512  0.7825 -0.3321 -0.4993
17518TIP3    H173969   4.255   3.454  11.432 -0.1772  0.3864  0.2073
17518TIP3    H273970   4.374   3.507  11.510  2.0395 -1.5690 -1.6638
17519TIP3   OH273971   0.042   5.707  11.054  0.3169  0.6511 -0.4228
17519TIP3    H173972   0.051   5.789  11.005 -2.0106  0.7951 -0.7325
17519TIP3    H273973   0.088   5.642  11.000  0.9243  1.4793 -0.9183
17520TIP3   OH273974   4.856   4.738  14.922 -0.7218  0.3178  0.2790
17520TIP3    H173975   4.804   4.658  14.931  0.5782 -0.4312  1.4163
17520TIP3    H273976   4.813   4.801  14.980 -0.6485 -0.1399  0.8360
17521TIP3   OH273977   4.109   3.409   6.092 -0.0571  0.2197 -0.0476
17521TIP3    H173978   4.108   3.466   6.169  0.5767  0.2403 -0.0495
17521TIP3    H273979   4.083   3.323   6.126 -2.0786  0.7057 -0.2316
17522TIP3   OH273980   2.682   2.322  12.657 -0.3989 -0.3731  0.1486
17522TIP3    H173981   2.664   2.296  12.567 -1.2004  2.4369 -0.6041
17522TIP3    H273982   2.719   2.410  12.650 -1.7855  0.5200  2.6060
17523TIP3   OH273983   3.109   3.895  13.223 -0.2221  0.6182 -0.3829
17523TIP3    H173984   3.174   3.962  13.198  0.7012 -0.2064 -0.2619
17523TIP3    H273985   3.040   3.904  13.158  0.3547  1.0371 -0.9594
17524TIP3   OH273986   6.397   4.370   4.251  0.6567  0.5319 -0.6424
17524TIP3    H173987   6.443   4.337   4.173  0.7871 -0.2634 -0.2437
17524TIP3    H273988   6.309   4.389   4.220 -0.4147 -3.1018 -0.3336
17525TIP3   OH273989   3.589   3.684  12.403  0.2553  0.3663 -0.2172
17525TIP3    H173990   3.628   3.600  12.428  0.9234  0.9742  0.8621
17525TIP3    H273991   3.536   3.709  12.478  0.2192  1.0014 -0.4500
17526TIP3   OH273992   6.158   3.079   5.217  0.7026  0.2510 -0.2691
17526TIP3    H173993   6.139   3.084   5.311 -0.0599 -0.4238 -0.3784
17526TIP3    H273994   6.143   2.987   5.195 -1.8977  0.8992 -1.6034
17527TIP3   OH273995   5.875   1.120  13.501  0.0516 -0.4342 -0.0483
17527TIP3    H173996   5.891   1.208  13.534 -1.7608 -0.3507  0.7601
17527TIP3    H273997   5.910   1.121  13.412  1.1019  0.7198  0.3401
17528TIP3   OH273998   5.173   0.114  12.660  0.1800 -0.6961  0.2692
17528TIP3    H173999   5.248   0.131  12.604 -0.7574  0.2828 -0.7462
17528TIP3    H274000   5.162   0.195  12.710 -1.6662  0.1710 -1.4055
17529TIP3   OH274001   2.861   4.058  16.273  0.1872  0.0416 -0.0766
17529TIP3    H174002   2.921   4.019  16.210  0.0441 -1.7311  0.8157
17529TIP3    H274003   2.899   4.037  16.359 -2.0087 -1.7866  0.5410
17530TIP3   OH274004   1.179   4.198  13.260 -0.0729 -0.1679 -0.2714
17530TIP3    H174005   1.210   4.220  13.348  0.1186  1.2820 -0.6670
17530TIP3    H274006   1.256   4.209  13.204 -0.2499 -0.8465 -0.6603
17531TIP3   OH274007   1.984   0.911  16.044  0.3993  0.5595 -0.1377
17531TIP3    H174008   1.888   0.913  16.038  0.4344  0.4704 -0.8723
17531TIP3    H274009   2.013   0.957  15.965  0.9554  2.3567  1.0606
17532TIP3   OH274010   0.948   1.119  11.293  0.7703 -0.0449 -0.0764
17532TIP3    H174011   0.969   1.076  11.210 -1.3564 -0.0355 -0.6923
17532TIP3    H274012   0.899   1.197  11.266 -3.1376 -1.8411  1.1538
17533TIP3   OH274013   0.239   3.327   3.007 -0.9203 -0.0126 -0.5155
17533TIP3    H174014   0.308   3.361   3.064 -2.8474 -0.0166  1.9674
17533TIP3    H274015   0.273   3.342   2.918  1.0559  2.5576  0.5192
17534TIP3   OH274016   2.356   2.395   5.344 -0.1803  0.3951  0.4037
17534TIP3    H174017   2.433   2.414   5.291 -0.2821  0.2477  0.1991
17534TIP3    H274018   2.285   2.443   5.301 -0.8138 -1.8042 -1.1867
17535TIP3   OH274019   1.683   1.485  12.013 -1.1002  0.5803  0.3655
17535TIP3    H174020   1.612   1.479  12.077 -1.1837  1.0308  0.3182
17535TIP3    H274021   1.714   1.576  12.019 -1.5664  0.8330 -0.7062
17536TIP3   OH274022   1.954   5.251   6.681 -0.3566 -0.4756 -0.1400
17536TIP3    H174023   1.965   5.177   6.622  0.9473 -0.3357 -0.1050
17536TIP3    H274024   2.043   5.286   6.693 -1.2452  3.6887 -3.4146
17537TIP3   OH274025   3.078   3.651  16.994  0.5468  0.4824  0.1796
17537TIP3    H174026   3.002   3.683  16.945  1.3913  0.8110 -0.9850
17537TIP3    H274027   3.130   3.730  17.012  1.2858  0.1183 -0.2756
17538TIP3   OH274028   3.861   2.503   2.422  0.0543 -0.3272 -0.2782
17538TIP3    H174029   3.801   2.509   2.497  0.1109  1.5771 -0.3388
17538TIP3    H274030   3.903   2.417   2.432  1.8265  0.7589  3.2446
17539TIP3   OH274031   5.349   4.436  14.735 -0.2397  0.0314  0.0105
17539TIP3    H174032   5.362   4.391  14.651  1.3953  1.4295 -0.5490
17539TIP3    H274033   5.438   4.454  14.766 -0.8152  2.1231  0.5788
17540TIP3   OH274034   4.071   4.906  15.090 -0.2325  0.2953  0.2912
17540TIP3    H174035   4.091   4.813  15.083 -0.5860  0.3484 -2.8155
17540TIP3    H274036   4.051   4.933  15.000 -0.1365  3.3809  1.0854
17541TIP3   OH274037   2.649   1.193   1.971 -0.1341 -0.0493  0.1644
17541TIP3    H174038   2.722   1.148   1.929 -0.0720  2.9635 -3.4879
17541TIP3    H274039   2.690   1.269   2.013 -0.9063  0.1415  0.5812
17542TIP3   OH274040   2.248   4.756   5.622 -0.0943 -0.2687 -0.1844
17542TIP3    H174041   2.292   4.819   5.565 -0.6808  1.9245  1.6280
17542TIP3    H274042   2.310   4.741   5.694 -0.7332 -0.2444  0.3832
17543TIP3   OH274043   4.853   2.233   0.997 -0.2515 -0.3106  0.3461
17543TIP3    H174044   4.811   2.148   1.006 -0.8679  0.1045  1.6021
17543TIP3    H274045   4.816   2.271   0.917 -1.5101 -0.3827  0.8813
17544TIP3   OH274046   5.086   0.231  14.596 -0.2748 -0.1165 -0.3777
17544TIP3    H174047   5.054   0.281  14.521  0.1559  0.2875 -0.2919
17544TIP3    H274048   5.151   0.171  14.560  0.8374  0.9292 -0.1525
17545TIP3   OH274049   1.673   1.380  12.794 -0.2433  0.4045 -0.0616
17545TIP3    H174050   1.693   1.393  12.886  0.0345 -1.4991  0.1848
17545TIP3    H274051   1.622   1.299  12.791 -0.8463  0.7993 -1.5128
17546TIP3   OH274052   0.735   2.788  15.032 -0.1569  0.6161  0.4353
17546TIP3    H174053   0.695   2.832  15.107  1.9865  0.9230  1.4836
17546TIP3    H274054   0.662   2.770  14.973 -1.6904  1.8312  1.8546
17547TIP3   OH274055   4.244   1.509   6.376  0.2587  0.4774  0.0015
17547TIP3    H174056   4.247   1.571   6.303 -0.0688 -0.3866 -0.7594
17547TIP3    H274057   4.326   1.460   6.370 -0.5219 -0.7703 -0.8569
17548TIP3   OH274058   1.251   6.538   1.345 -0.1824 -0.1459  0.2985
17548TIP3    H174059   1.310   6.605   1.310  1.0649 -0.4432  1.7424
17548TIP3    H274060   1.167   6.583   1.356  0.1997  0.7307 -0.2613
17549TIP3   OH274061   5.290   0.771  16.960  0.2482 -0.7362 -0.0605
17549TIP3    H174062   5.290   0.738  16.870  0.5603 -1.1574  0.0869
17549TIP3    H274063   5.206   0.743  16.996 -0.2057  0.1008 -0.4515
17550TIP3   OH274064   1.904   1.456  15.764 -0.5955  0.6501 -0.4395
17550TIP3    H174065   1.897   1.547  15.734 -2.4485  0.8889  0.5290
17550TIP3    H274066   1.813   1.426  15.771 -0.0581 -0.9798  0.1484
17551TIP3   OH274067   1.845   2.636  14.843  0.0100 -0.0458 -0.3787
17551TIP3    H174068   1.926   2.686  14.837 -0.0003 -0.1207 -1.2689
17551TIP3    H274069   1.872   2.550  14.873  0.0787  0.3491  0.7374
17552TIP3   OH274070   1.001   5.714   1.942  0.4513 -0.2295 -0.0028
17552TIP3    H174071   0.975   5.784   2.002  0.6186 -0.6087  0.5200
17552TIP3    H274072   0.921   5.693   1.894  0.4932  0.5817 -0.4378
17553TIP3   OH274073   2.111   4.925   2.925  0.1087  0.5111  0.0071
17553TIP3    H174074   2.161   4.928   3.006  2.5527  1.7869 -1.4452
17553TIP3    H274075   2.141   5.001   2.875 -1.9502  0.2705 -1.7617
17554TIP3   OH274076   6.278   0.176   2.302  0.3683 -0.0347  0.0626
17554TIP3    H174077   6.294   0.255   2.250 -1.3818 -0.1676 -0.7467
17554TIP3    H274078   6.198   0.194   2.349 -0.2126 -1.4104 -0.3369
17555TIP3   OH274079   4.756   2.762   6.179  0.1830 -0.3049  0.6977
17555TIP3    H174080   4.696   2.741   6.108 -0.3381  0.3438  0.9339
17555TIP3    H274081   4.797   2.678   6.201  2.2262 -0.1328 -2.0059
17556TIP3   OH274082   5.078   0.879   0.955  0.0597  0.4394  0.0769
17556TIP3    H174083   5.012   0.888   0.886 -0.0773  1.0571  0.2833
17556TIP3    H274084   5.031   0.840   1.029 -0.1719  1.2226  0.3518
17557TIP3   OH274085   5.633   1.460  11.311 -0.3171  0.1869  0.8768
17557TIP3    H174086   5.708   1.434  11.363  0.0582 -0.4929  0.0156
17557TIP3    H274087   5.648   1.422  11.225 -1.3429  0.5652  0.5048
17558TIP3   OH274088   2.336   1.522   5.875  0.5558  0.4851  0.2619
17558TIP3    H174089   2.349   1.427   5.872  1.0879  0.5184  1.1848
17558TIP3    H274090   2.264   1.538   5.814 -0.8353 -0.7609  1.4824
17559TIP3   OH274091   2.350   4.736   2.990  0.0169  0.2678  0.5265
17559TIP3    H174092   2.325   4.705   2.903 -0.4328  0.5482  0.5520
17559TIP3    H274093   2.405   4.813   2.973 -0.3659  0.5406  0.4864
17560TIP3   OH274094   1.815   0.218  15.967 -0.5299  0.1164  0.0427
17560TIP3    H174095   1.847   0.218  16.057 -0.9112  0.2070  0.1788
17560TIP3    H274096   1.831   0.128  15.936  0.3946  0.3185 -0.0872
17561TIP3   OH274097   0.712   1.733   3.528 -0.8748  0.6261 -0.1451
17561TIP3    H174098   0.652   1.666   3.561 -1.6136  1.0657 -0.5713
17561TIP3    H274099   0.753   1.693   3.451  0.3291 -0.1371  0.8478
17562TIP3   OH274100   0.859   1.106  12.172  0.3411 -0.2052  0.2177
17562TIP3    H174101   0.918   1.051  12.121  2.1118 -0.7802  2.7039
17562TIP3    H274102   0.773   1.064  12.162  1.3570 -2.6341  0.8472
17563TIP3   OH274103   4.962   0.118  11.871 -0.4908 -0.5879  0.3652
17563TIP3    H174104   5.047   0.152  11.898 -0.7333 -0.3289  0.8132
17563TIP3    H274105   4.980   0.028  11.843  0.4419  0.3205 -2.2947
17564TIP3   OH274106   2.310   2.642   4.553  0.2536 -0.0224  0.2209
17564TIP3    H174107   2.285   2.684   4.471  2.9284 -0.9724 -1.2099
17564TIP3    H274108   2.247   2.571   4.564 -0.0908  0.0555 -1.0878
17565TIP3   OH274109   3.060   0.295  11.713 -0.0483  0.3146  0.3215
17565TIP3    H174110   3.024   0.322  11.797 -0.7600 -0.3680  0.2561
17565TIP3    H274111   2.986   0.254  11.668  0.6574 -0.5265 -0.0965
17566TIP3   OH274112   3.738   6.079   4.293  0.2670 -0.3085 -0.1584
17566TIP3    H174113   3.759   5.999   4.341 -0.0956 -0.3413 -0.0524
17566TIP3    H274114   3.644   6.091   4.306  0.4337  0.5030  0.3735
17567TIP3   OH274115   4.042   2.843  13.036  0.2530 -0.1397  0.0119
17567TIP3    H174116   3.952   2.836  13.002 -0.4863  1.2381  1.5185
17567TIP3    H274117   4.041   2.791  13.116  1.0313 -0.7122 -0.3406
17568TIP3   OH274118   4.109   1.822  14.975 -0.4156  0.1289  0.6020
17568TIP3    H174119   4.171   1.830  14.903  0.6048  0.2423  1.4587
17568TIP3    H274120   4.163   1.794  15.049 -0.9935  2.2599  1.9235
17569TIP3   OH274121   3.662   6.222  16.624  0.2386  0.3671  0.0615
17569TIP3    H174122   3.743   6.216  16.676 -0.1504 -0.0861  0.6348
17569TIP3    H274123   3.601   6.267  16.682 -0.0290  0.3706 -0.2258
17570TIP3   OH274124   3.277   4.920  16.892 -0.4935  0.2760 -0.8753
17570TIP3    H174125   3.212   4.880  16.951 -0.7872  0.6503 -0.9378
17570TIP3    H274126   3.296   4.852  16.828  0.6081 -0.4960  0.2425
17571TIP3   OH274127   0.408   4.800  11.055  0.8276 -0.3178 -0.2780
17571TIP3    H174128   0.354   4.822  11.132 -0.5836  1.3746 -1.6617
17571TIP3    H274129   0.398   4.706  11.046 -1.7241 -0.1352 -0.2627
17572TIP3   OH274130   1.421   0.614  16.248  0.1577  0.1086  0.9045
17572TIP3    H174131   1.409   0.520  16.263 -0.5834  0.1200  0.4169
17572TIP3    H274132   1.481   0.619  16.174 -1.6081 -0.0287 -0.6016
17573TIP3   OH274133   5.327   4.473  16.262  0.0434  0.1646  0.3866
17573TIP3    H174134   5.404   4.461  16.207 -1.2253  2.5422 -2.0992
17573TIP3    H274135   5.267   4.403  16.235 -0.2965  0.8937 -0.7947
17574TIP3   OH274136   5.232   6.212  15.843 -0.0588 -0.8437 -0.5056
17574TIP3    H174137   5.254   6.277  15.910  0.5644 -0.9018 -0.6399
17574TIP3    H274138   5.317   6.190  15.803 -0.4132 -0.8325 -1.2917
17575TIP3   OH274139   1.589   3.622   5.145  0.0512  0.1384  0.4824
17575TIP3    H174140   1.684   3.611   5.150  0.2127 -0.2374 -1.9371
17575TIP3    H274141   1.554   3.564   5.212  1.5055 -0.2909  0.9062
17576TIP3   OH274142   5.698   2.733  12.936  0.1967  0.2429 -0.4657
17576TIP3    H174143   5.767   2.720  12.870 -0.5980 -0.9504 -1.0948
17576TIP3    H274144   5.687   2.647  12.976 -1.8676  0.0502 -1.3474
17577TIP3   OH274145   0.138   2.516   4.017 -0.0590  0.2647  0.2187
17577TIP3    H174146   0.171   2.588   3.964 -0.4540 -0.3996 -0.9594
17577TIP3    H274147   0.044   2.514   4.000 -0.1198 -0.2555  0.5754
17578TIP3   OH274148   5.476   3.810  15.490  0.4152  0.1096 -0.2591
17578TIP3    H174149   5.539   3.879  15.471  0.1078  0.8111  1.1443
17578TIP3    H274150   5.393   3.855  15.503  0.4837 -0.3181  2.0664
17579TIP3   OH274151   2.567   3.759   0.090  0.7555  0.3916  0.2753
17579TIP3    H174152   2.526   3.843   0.067  1.4263  0.3400 -1.1879
17579TIP3    H274153   2.624   3.781   0.164 -0.3230  0.8669  1.0036
17580TIP3   OH274154   6.578   2.773  17.337  0.3738  0.1318 -0.0460
17580TIP3    H174155   6.524   2.826  17.277 -1.1915 -0.5060  0.7355
17580TIP3    H274156   6.658   2.755  17.287  0.5604  2.3787 -0.7077
17581TIP3   OH274157   4.003   0.037  12.232 -0.0262  0.9053  0.0840
17581TIP3    H174158   4.029   0.081  12.151  0.2835  0.3187 -0.1347
17581TIP3    H274159   4.010  -0.056  12.213  3.4847  0.6346  1.8395
17582TIP3   OH274160   3.957   5.930   0.108 -0.3496 -0.1252  0.1536
17582TIP3    H174161   3.862   5.933   0.123 -0.2860 -2.0860  1.3394
17582TIP3    H274162   3.994   5.980   0.181 -0.4075 -1.3764  1.0602
17583TIP3   OH274163   3.233   4.319   4.151  0.2822 -0.2266 -0.4749
17583TIP3    H174164   3.230   4.237   4.199  1.1849 -0.0137 -0.0413
17583TIP3    H274165   3.193   4.299   4.067 -0.8279 -0.7393  0.1494
17584TIP3   OH274166   1.962   1.992  13.011  0.0424  0.9145 -0.5978
17584TIP3    H174167   2.017   2.017  12.937  0.7795 -0.3225 -0.4927
17584TIP3    H274168   1.956   2.072  13.064  0.5923  1.4476 -1.3184
17585TIP3   OH274169   0.819   6.414   3.721 -0.0039 -0.2294  0.4947
17585TIP3    H174170   0.870   6.350   3.770  1.3029  0.6631  0.3669
17585TIP3    H274171   0.792   6.478   3.787  4.3134  2.6526 -0.1212
17586TIP3   OH274172   0.183   2.161   5.154  0.7974  0.0790  0.2683
17586TIP3    H174173   0.231   2.243   5.146 -1.2890  1.1904 -2.1803
17586TIP3    H274174   0.244   2.094   5.125  1.8751  1.0241  0.2845
17587TIP3   OH274175   3.092   2.332  17.326 -0.1994  0.6226  0.2415
17587TIP3    H174176   3.038   2.375  17.260  1.2080  1.5203 -0.3631
17587TIP3    H274177   3.030   2.307  17.395 -1.7480 -0.5484 -1.4693
17588TIP3   OH274178   3.153   4.548   2.257  0.6077  0.2988 -0.0408
17588TIP3    H174179   3.149   4.618   2.192 -0.7242 -0.5193 -0.8884
17588TIP3    H274180   3.234   4.502   2.237  1.2433  1.2735  0.2065
17589TIP3   OH274181   5.895   0.411  10.907 -0.5266 -0.4679  0.2738
17589TIP3    H174182   5.964   0.347  10.893  2.0716  2.3524 -0.7979
17589TIP3    H274183   5.848   0.415  10.823  2.5504  2.4108 -1.5548
17590TIP3   OH274184   1.395   1.884  12.184  0.0635 -0.0650 -0.3531
17590TIP3    H174185   1.420   1.838  12.264  1.1002 -1.2995 -1.3452
17590TIP3    H274186   1.332   1.825  12.142  0.5604 -0.0758 -1.0967
17591TIP3   OH274187   0.222   4.511  15.609 -0.0507  0.2575  0.6692
17591TIP3    H174188   0.271   4.438  15.571 -1.8106  0.5514 -2.5505
17591TIP3    H274189   0.131   4.483  15.606 -0.6180  1.9560  0.9102
17592TIP3   OH274190   5.213   4.907  13.765 -0.6461  0.1584  0.0077
17592TIP3    H174191   5.257   4.866  13.840  0.1494 -0.5562 -0.8283
17592TIP3    H274192   5.128   4.934  13.799  0.5558  1.9899  1.7954
17593TIP3   OH274193   0.438   3.766  15.314 -0.5905  0.3020 -0.2567
17593TIP3    H174194   0.429   3.690  15.257  1.0756 -0.1123 -0.0256
17593TIP3    H274195   0.473   3.835  15.258 -0.1232  0.2654 -0.0139
17594TIP3   OH274196   5.612   6.448  16.438  0.0559 -0.1502  0.2535
17594TIP3    H174197   5.588   6.534  16.472  1.2179  0.7852 -1.1576
17594TIP3    H274198   5.687   6.421  16.491 -0.5094 -0.4668  0.9101
17595TIP3   OH274199   4.507   2.164  11.706  0.1372  0.0608 -0.4577
17595TIP3    H174200   4.427   2.116  11.684  0.4862 -0.3530 -0.8568
17595TIP3    H274201   4.507   2.240  11.648 -0.1323  0.2396 -0.2244
17596TIP3   OH274202   4.454   5.646  12.681 -0.1327 -0.1089 -0.4537
17596TIP3    H174203   4.421   5.718  12.628  0.7367 -0.6406 -1.7816
17596TIP3    H274204   4.419   5.567  12.638 -0.5461 -0.5045  0.5927
17597TIP3   OH274205   3.957   3.839   3.501  0.8211 -0.2962  0.6120
17597TIP3    H174206   3.875   3.877   3.467  1.3735 -0.5332 -1.0749
17597TIP3    H274207   3.970   3.760   3.449  2.6840  0.3246  0.0562
17598TIP3   OH274208   5.525   3.361  13.359  0.9218 -0.1676  0.6843
17598TIP3    H174209   5.505   3.454  13.354  1.9383 -0.0051 -1.1895
17598TIP3    H274210   5.446   3.320  13.394  0.1155  1.2758  0.5898
17599TIP3   OH274211   1.169   5.259   3.775 -0.0600 -0.2369 -0.5841
17599TIP3    H174212   1.094   5.265   3.835 -0.1459  0.8371 -0.7659
17599TIP3    H274213   1.243   5.293   3.826 -0.3117  1.5493 -1.3374
17600TIP3   OH274214   1.399   3.513   0.190 -0.1436 -0.0551 -0.2332
17600TIP3    H174215   1.359   3.447   0.134  0.3786 -0.3522 -0.2602
17600TIP3    H274216   1.396   3.594   0.138 -0.9849 -0.0053 -0.1104
17601TIP3   OH274217   3.531   5.327   1.215  0.3835 -0.4189  0.2440
17601TIP3    H174218   3.444   5.344   1.252  0.1927  0.5608 -0.6087
17601TIP3    H274219   3.573   5.412   1.212  0.7952 -0.6470 -0.7783
17602TIP3   OH274220   4.610   4.526  15.432  0.1685  0.3641 -0.8879
17602TIP3    H174221   4.692   4.492  15.395  0.8584  0.2576  0.6824
17602TIP3    H274222   4.636   4.605  15.479 -0.2845 -0.6512  1.1874
17603TIP3   OH274223   4.107   0.359   0.027 -0.0900  0.1791  0.4775
17603TIP3    H174224   4.100   0.414   0.105 -0.6414  0.1065  0.4853
17603TIP3    H274225   4.073   0.413  -0.044  0.6586  0.3400  0.2380
17604TIP3   OH274226   3.682   3.386  15.936  0.4257  0.6931  0.3391
17604TIP3    H174227   3.775   3.373  15.922  0.1656  0.0663 -0.9502
17604TIP3    H274228   3.666   3.357  16.026  1.9202  3.3771  1.5889
17605TIP3   OH274229   4.722   1.079   3.627  0.7438  0.3280 -0.0322
17605TIP3    H174230   4.698   1.164   3.591  1.3163  0.4397 -0.1738
17605TIP3    H274231   4.639   1.034   3.641  0.3632  1.3606  1.1974
17606TIP3   OH274232   6.424   6.551   3.644  0.2326 -0.7185 -0.5112
17606TIP3    H174233   6.465   6.465   3.655 -0.2577 -0.7656  1.4538
17606TIP3    H274234   6.331   6.532   3.637  0.0043 -0.3420  1.0480
17607TIP3   OH274235   6.338   0.611  16.941  0.0908  0.0257 -0.0701
17607TIP3    H174236   6.329   0.610  17.037 -0.1753  0.4579 -0.0838
17607TIP3    H274237   6.429   0.636  16.926 -0.3549  1.9258  0.0819
17608TIP3   OH274238   0.641   1.241  11.132 -0.4151  0.0162  0.3221
17608TIP3    H174239   0.563   1.192  11.158 -0.2762 -0.3332  0.0873
17608TIP3    H274240   0.654   1.219  11.039 -1.0185  1.3987 -0.1170
17609TIP3   OH274241   5.122   1.463   3.829 -0.8594 -0.3458  0.2376
17609TIP3    H174242   5.039   1.507   3.844 -0.2515  0.6449  0.7423
17609TIP3    H274243   5.159   1.450   3.916 -0.6263 -1.0711  0.0375
17610TIP3   OH274244   1.796   4.408  12.978  0.0601 -0.4082 -0.0235
17610TIP3    H174245   1.873   4.365  12.940 -0.1043 -0.5165 -0.2380
17610TIP3    H274246   1.796   4.495  12.937 -1.2151 -1.1859 -1.7932
17611TIP3   OH274247   4.411   4.878   0.930  0.6657 -0.0968 -0.0983
17611TIP3    H174248   4.381   4.821   0.859 -1.1702  0.4360  0.1966
17611TIP3    H274249   4.426   4.819   1.004 -0.4986 -0.3089 -0.0160
17612TIP3   OH274250   1.290   4.400  17.138 -0.6851  0.2853 -0.2599
17612TIP3    H174251   1.355   4.448  17.189 -1.4110  2.0812 -0.9491
17612TIP3    H274252   1.327   4.398  17.049 -2.1719  2.6966 -1.0232
17613TIP3   OH274253   1.631   1.956  12.885 -0.0201 -0.6528 -0.2737
17613TIP3    H174254   1.623   2.051  12.875  0.0651 -0.7626 -1.6052
17613TIP3    H274255   1.721   1.942  12.914 -1.2201 -0.0783  4.6942
17614TIP3   OH274256   1.236   5.723  17.072 -0.3410  0.2727  0.4572
17614TIP3    H174257   1.203   5.796  17.125 -0.4321 -0.7994  1.9379
17614TIP3    H274258   1.328   5.743  17.057 -0.3229  0.5985  1.0079
17615TIP3   OH274259   3.146   3.312   5.565 -0.2554 -0.2419  0.1935
17615TIP3    H174260   3.144   3.399   5.526  2.3270  0.5083  1.4878
17615TIP3    H274261   3.074   3.311   5.628 -0.2666  0.9988  0.2149
17616TIP3   OH274262   2.275   2.186   3.763 -0.1092 -0.4619 -0.5011
17616TIP3    H174263   2.282   2.096   3.730 -0.0295  0.2008 -2.4218
17616TIP3    H274264   2.332   2.189   3.839 -1.3445 -2.4541  0.5802
17617TIP3   OH274265   4.752   5.282  13.763  0.5524 -0.6328  0.0340
17617TIP3    H174266   4.838   5.276  13.805  0.2365 -0.4742  0.7166
17617TIP3    H274267   4.713   5.196  13.775  0.0582 -0.2920  0.9671
17618TIP3   OH274268   1.055   0.544  16.883 -0.4727 -0.1480 -0.0264
17618TIP3    H174269   1.079   0.458  16.917 -0.0952 -0.2214 -0.4643
17618TIP3    H274270   0.966   0.559  16.915 -0.1101 -0.1851  1.0424
17619TIP3   OH274271   3.118   2.355  16.892 -1.0354  0.0892  0.3189
17619TIP3    H174272   3.059   2.355  16.967 -0.9081 -0.3384  0.4219
17619TIP3    H274273   3.147   2.264  16.884 -0.0008  0.3796  0.5913
17620TIP3   OH274274   4.927   5.686   1.174 -0.1313  0.1472 -0.3978
17620TIP3    H174275   4.972   5.728   1.247  1.2248 -1.5959 -0.1667
17620TIP3    H274276   4.834   5.705   1.189  0.1234 -0.0589  1.6979
17621TIP3   OH274277   2.986   4.839   5.649 -0.1949  0.8407  0.2472
17621TIP3    H174278   2.952   4.909   5.593 -0.2818  0.5341 -0.0874
17621TIP3    H274279   2.911   4.783   5.666  0.1653  0.0466 -0.6661
17622TIP3   OH274280   4.116   2.602   6.213  0.2807 -0.2673  0.1688
17622TIP3    H174281   4.080   2.582   6.299 -0.3067  1.0724  0.2551
17622TIP3    H274282   4.057   2.561   6.151 -1.5312  1.9466  0.3029
17623TIP3   OH274283   1.631   0.974  15.699  0.0068  0.0597 -0.4355
17623TIP3    H174284   1.569   0.909  15.666 -0.1521  0.2619 -0.5436
17623TIP3    H274285   1.685   0.996  15.623 -0.1297  0.2665 -0.4738
17624TIP3   OH274286   2.869   0.938   5.278  0.0739 -0.1478 -0.2793
17624TIP3    H174287   2.855   0.887   5.358  0.9971  1.7684  1.1770
17624TIP3    H274288   2.942   0.893   5.234  0.0266 -0.8150  0.3126
17625TIP3   OH274289   4.318   4.246   1.581 -0.0385 -0.0152 -0.0631
17625TIP3    H174290   4.236   4.198   1.584  0.3478 -0.8780 -1.7178
17625TIP3    H274291   4.296   4.329   1.540 -0.0818 -0.3391 -0.7234
17626TIP3   OH274292   6.443   2.525   4.447 -0.3220  0.5464  0.1348
17626TIP3    H174293   6.510   2.566   4.392  0.0711  0.3293  0.4441
17626TIP3    H274294   6.487   2.450   4.486 -0.1717  1.4622  1.8096
17627TIP3   OH274295   2.105   3.659  11.062  0.8763 -0.6746  0.0230
17627TIP3    H174296   2.183   3.612  11.034  0.7904  0.7880 -3.0768
17627TIP3    H274297   2.045   3.652  10.988 -1.3390 -0.4142  1.7084
17628TIP3   OH274298   6.377   3.136  12.347  0.2291  0.1631 -0.5886
17628TIP3    H174299   6.292   3.121  12.388  0.4376 -1.0524 -0.5513
17628TIP3    H274300   6.359   3.197  12.275 -0.8062 -0.6044 -0.9991
17629TIP3   OH274301   2.204   1.179  13.630  1.0068  0.9161  0.0270
17629TIP3    H174302   2.193   1.122  13.554  0.8031  0.2145  0.5598
17629TIP3    H274303   2.161   1.131  13.701  0.5852  1.8706  0.4359
17630TIP3   OH274304   3.816   4.890   3.324  0.3483  0.6592  0.3976
17630TIP3    H174305   3.858   4.816   3.369 -1.1080 -0.0896  0.5951
17630TIP3    H274306   3.732   4.900   3.368 -0.7363  0.5142 -1.5047
17631TIP3   OH274307   5.932   1.448   3.914  0.1394  0.0367 -0.4845
17631TIP3    H174308   5.929   1.536   3.875  2.2193 -0.0766 -1.0215
17631TIP3    H274309   6.003   1.453   3.978 -1.3703 -0.5986  1.3314
17632TIP3   OH274310   4.387   5.411  11.475 -0.1259  0.2932  0.4293
17632TIP3    H174311   4.397   5.335  11.418  0.4065  0.6458  0.0366
17632TIP3    H274312   4.319   5.386  11.537  1.2563 -1.1835  1.4171
17633TIP3   OH274313   6.664   4.157  16.951 -0.0931  0.3683 -0.3897
17633TIP3    H174314   6.661   4.176  16.857  0.5433 -0.2071 -0.5354
17633TIP3    H274315   6.575   4.130  16.973 -0.7868  2.4763 -0.3791
17634TIP3   OH274316   0.772   3.929   6.020  0.5283  0.0226 -0.2565
17634TIP3    H174317   0.727   3.903   6.101  0.1082 -0.5134 -0.6578
17634TIP3    H274318   0.864   3.910   6.037  0.3795 -0.5752 -0.0856
17635TIP3   OH274319   2.491   0.849   0.446 -0.2055  0.2649 -0.1113
17635TIP3    H174320   2.433   0.904   0.393 -2.4605 -0.5635  1.3305
17635TIP3    H274321   2.486   0.763   0.404 -2.6708 -0.6129  1.7238
17636TIP3   OH274322   2.847   5.215   0.364  0.3997 -0.0870  0.3787
17636TIP3    H174323   2.756   5.245   0.376  0.2805 -0.7718  1.2317
17636TIP3    H274324   2.839   5.136   0.311  0.8808  2.6674 -4.4719
17637TIP3   OH274325   2.295   5.369  12.169  0.8404 -0.5303  0.2181
17637TIP3    H174326   2.356   5.371  12.095  0.4574 -0.6947 -0.1056
17637TIP3    H274327   2.314   5.286  12.213  1.4669 -0.1644  0.6471
17638TIP3   OH274328   3.593   0.771  17.113  0.0556  0.2386 -0.0098
17638TIP3    H174329   3.519   0.824  17.084  0.5745 -0.2908 -2.5283
17638TIP3    H274330   3.553   0.705  17.171 -1.2927  0.5833 -0.4983
17639TIP3   OH274331   2.710   5.437  15.462 -0.2085  0.1880  0.9259
17639TIP3    H174332   2.745   5.494  15.531  0.2260 -1.2282  1.9354
17639TIP3    H274333   2.765   5.358  15.467 -0.6840 -0.2520 -0.5300
17640TIP3   OH274334   3.055   0.991   2.406 -0.3986 -0.1455 -0.0408
17640TIP3    H174335   3.062   1.080   2.372  0.0788  0.2705  1.0928
17640TIP3    H274336   2.962   0.969   2.399 -0.2961 -0.1244 -1.6852
17641TIP3   OH274337   0.124   6.715  12.762  0.6752  0.4164  0.0807
17641TIP3    H174338   0.032   6.706  12.784  0.4832 -0.1104 -0.9486
17641TIP3    H274339   0.167   6.644  12.810  0.4297  0.0950 -0.1724
17642TIP3   OH274340   1.014   4.162  16.075  0.2501 -0.1498  0.0300
17642TIP3    H174341   0.958   4.162  15.998  0.5666  1.7410 -0.2618
17642TIP3    H274342   1.069   4.084  16.066 -1.9143 -1.7805  0.0664
17643TIP3   OH274343   1.102   6.691  17.062 -0.2526  0.5604 -0.8799
17643TIP3    H174344   1.189   6.732  17.063 -0.5945  1.3367  1.1193
17643TIP3    H274345   1.070   6.701  17.151 -0.8600 -3.1640 -0.5514
17644TIP3   OH274346   1.321   5.267  10.864  0.5226 -0.7640 -0.3491
17644TIP3    H174347   1.299   5.323  10.938 -0.2353  1.3217 -2.0679
17644TIP3    H274348   1.416   5.270  10.859  0.5101  0.0491 -0.1719
17645TIP3   OH274349   2.354   0.697  15.084 -0.7310 -0.2288 -0.6036
17645TIP3    H174350   2.444   0.694  15.119 -1.0345  0.2393  0.2504
17645TIP3    H274351   2.326   0.605  15.085 -1.2893 -0.1089  1.9757
17646TIP3   OH274352   4.276   4.824  13.779  0.1690 -0.3395 -0.0693
17646TIP3    H174353   4.240   4.736  13.795 -0.8839 -0.3608 -2.2108
17646TIP3    H274354   4.201   4.883  13.788  1.1301  0.5977  2.7548
17647TIP3   OH274355   4.349   3.462  15.512 -0.0465  0.4341 -0.1053
17647TIP3    H174356   4.351   3.444  15.606 -2.4973  1.5758  0.2331
17647TIP3    H274357   4.319   3.381  15.472 -0.6429  0.4569  0.2886
17648TIP3   OH274358   0.964   3.863   2.681  0.0258 -0.2656  0.2660
17648TIP3    H174359   0.907   3.939   2.690  0.4408  0.0818  0.0244
17648TIP3    H274360   0.905   3.790   2.665 -0.3408  0.1176 -0.1552
17649TIP3   OH274361   1.755   4.156   4.294  0.4132 -0.3622  0.5827
17649TIP3    H174362   1.697   4.099   4.242 -0.0294 -1.6925  2.4111
17649TIP3    H274363   1.750   4.120   4.383  0.0202  2.6265  1.8960
17650TIP3   OH274364   3.659   0.452  16.952 -0.0483 -0.4169 -0.6784
17650TIP3    H174365   3.686   0.364  16.924 -1.9217 -0.7667 -1.5177
17650TIP3    H274366   3.673   0.506  16.874  0.6249 -0.0588 -0.3148
17651TIP3   OH274367   4.921   4.361   6.067 -0.1717 -0.3735 -0.0240
17651TIP3    H174368   4.841   4.413   6.074  1.1701  2.0954 -1.6543
17651TIP3    H274369   4.961   4.367   6.154 -1.3080 -0.9664  0.5684
17652TIP3   OH274370   1.069   0.268   3.844 -0.5983  0.4441 -0.1913
17652TIP3    H174371   1.033   0.188   3.807 -0.1940  0.7316 -1.2437
17652TIP3    H274372   1.041   0.267   3.935  0.0942 -1.3167  0.0485
17653TIP3   OH274373   5.675   4.239   2.676  0.0029 -0.3173 -0.0369
17653TIP3    H174374   5.662   4.232   2.581 -0.4050  1.3415 -0.1367
17653TIP3    H274375   5.670   4.333   2.694  2.8201 -0.2883  1.2500
17654TIP3   OH274376   6.244   5.907  17.137  0.3219 -0.0607 -0.3581
17654TIP3    H174377   6.172   5.873  17.190 -0.2292 -0.1884 -1.1622
17654TIP3    H274378   6.311   5.931  17.200 -1.1943  1.9979  0.5956
17655TIP3   OH274379   0.983   1.781   2.999 -0.0047  0.0195 -0.3415
17655TIP3    H174380   0.914   1.812   3.057 -0.0171  1.2339 -0.9856
17655TIP3    H274381   1.013   1.699   3.039 -1.2561 -0.1032  0.3743
17656TIP3   OH274382   5.755   0.075   1.806  0.2246 -0.4741  0.8068
17656TIP3    H174383   5.802   0.106   1.884 -1.6070  1.3970  1.2518
17656TIP3    H274384   5.762   0.148   1.744 -1.6590 -0.3511  0.7085
17657TIP3   OH274385   6.109   1.308  13.262  0.9042 -0.3038  0.1786
17657TIP3    H174386   6.138   1.344  13.178 -0.4888 -0.6596 -0.4834
17657TIP3    H274387   6.113   1.383  13.322 -1.4960  0.9552 -1.0643
17658TIP3   OH274388   1.060   1.391   3.456 -0.5609  0.1084  0.3302
17658TIP3    H174389   1.031   1.340   3.532 -0.4341  0.6555  0.7509
17658TIP3    H274390   1.149   1.419   3.478 -0.1742 -0.4988 -0.4170
17659TIP3   OH274391   6.185   0.623  11.647  0.0614 -0.2590 -0.0193
17659TIP3    H174392   6.180   0.709  11.604  1.5606  0.5880  1.3812
17659TIP3    H274393   6.100   0.582  11.629 -0.3280  1.1124 -1.5334
17660TIP3   OH274394   6.105   4.306   0.063 -0.6876  0.0199  0.4146
17660TIP3    H174395   6.090   4.348  -0.022 -1.5125 -0.4359  0.3191
17660TIP3    H274396   6.174   4.358   0.104 -0.8588  0.7451 -0.1915
17661TIP3   OH274397   5.466   5.692  14.337  0.5031 -0.2923 -0.5874
17661TIP3    H174398   5.490   5.749  14.265 -2.0649  1.4519 -0.1975
17661TIP3    H274399   5.411   5.624  14.297  0.1294 -0.0609 -0.4719
17662TIP3   OH274400   3.640   2.030  10.780  0.5824  0.9655 -0.0024
17662TIP3    H174401   3.546   2.023  10.766  0.5737  0.7342  0.1754
17662TIP3    H274402   3.650   2.062  10.870  0.7026 -0.6641  0.5886
17663TIP3   OH274403   3.510   5.914   4.045 -0.4605  0.4031  0.0170
17663TIP3    H174404   3.593   5.881   4.009 -0.2519  0.0351  0.8034
17663TIP3    H274405   3.537   5.965   4.121 -1.0721 -1.8845  1.8783
17664TIP3   OH274406   1.301   6.503   3.736  0.6136 -0.6296 -0.5978
17664TIP3    H174407   1.306   6.555   3.656  0.9247  1.6908  0.8148
17664TIP3    H274408   1.383   6.521   3.782 -0.5254  0.0792  1.3051
17665TIP3   OH274409   6.078   1.485   4.136 -0.2431  0.7515  0.0202
17665TIP3    H174410   6.044   1.465   4.224  2.4759  1.4257  1.3433
17665TIP3    H274411   6.158   1.432   4.129  0.4820  1.9677 -1.3682
17666TIP3   OH274412   2.543   6.359   0.147 -0.2519 -0.3876  0.3662
17666TIP3    H174413   2.592   6.341   0.227  1.1086  0.7030 -0.1786
17666TIP3    H274414   2.559   6.283   0.092 -0.0836 -0.5405  0.6233
17667TIP3   OH274415   1.005   4.650   2.999  0.0257  0.0437  0.1747
17667TIP3    H174416   1.066   4.644   3.073  0.8579  1.7478 -0.3254
17667TIP3    H274417   1.049   4.707   2.936 -1.3579 -0.0906 -0.9731
17668TIP3   OH274418   1.003   6.124  16.057 -0.0126 -0.7008  0.8956
17668TIP3    H174419   1.011   6.090  15.968  0.9096 -0.5850  0.9302
17668TIP3    H274420   0.908   6.135  16.069 -0.1182 -0.1450 -0.2750
17669TIP3   OH274421   1.302   2.252   6.645 -0.7138 -0.2021 -0.5583
17669TIP3    H174422   1.214   2.290   6.640  0.6161  3.1168 -1.5842
17669TIP3    H274423   1.345   2.281   6.564  1.3039 -1.8987 -0.1830
17670TIP3   OH274424   6.047   3.613   2.842  0.3980  0.1430  0.0711
17670TIP3    H174425   5.964   3.660   2.848  0.0602  0.0802 -2.8813
17670TIP3    H274426   6.024   3.521   2.857  0.2866  0.3284  1.1285
17671TIP3   OH274427   5.834   5.953   6.174  0.0035  0.4724 -0.1895
17671TIP3    H174428   5.755   6.005   6.186 -0.0589  0.0496  1.6276
17671TIP3    H274429   5.802   5.863   6.160  0.1246  0.1365  1.4832
17672TIP3   OH274430   2.059   2.578   0.575  0.7024 -0.2894 -0.2077
17672TIP3    H174431   1.973   2.542   0.552  1.0104 -0.7917 -0.6092
17672TIP3    H274432   2.040   2.664   0.613 -0.1490 -1.3849  2.0310
17673TIP3   OH274433   2.242   0.232   2.817 -0.4649 -0.3617 -0.1463
17673TIP3    H174434   2.231   0.151   2.867  0.6066 -1.3056 -1.3886
17673TIP3    H274435   2.159   0.245   2.772 -0.5027 -0.9997 -0.2607
17674TIP3   OH274436   6.708   2.124   5.957  0.2656  0.1276 -0.1426
17674TIP3    H174437   6.635   2.081   6.001  0.0489  1.4697  0.8757
17674TIP3    H274438   6.711   2.084   5.870 -0.6259 -1.1054  0.3692
17675TIP3   OH274439   4.685   6.642  12.322  0.2316 -0.2835 -0.1069
17675TIP3    H174440   4.633   6.722  12.329 -0.9050 -0.7688 -2.1452
17675TIP3    H274441   4.726   6.633  12.407  1.1849  2.9812 -0.0851
17676TIP3   OH274442   1.375   5.623  15.631 -0.0384 -0.6840  0.2995
17676TIP3    H174443   1.337   5.596  15.547  0.5128 -0.2891 -0.0758
17676TIP3    H274444   1.307   5.600  15.695 -1.5267  1.2352 -0.4864
17677TIP3   OH274445   0.810   4.704   5.184  0.1287  0.1077 -0.7833
17677TIP3    H174446   0.721   4.675   5.206  1.1891 -2.2536  0.8136
17677TIP3    H274447   0.845   4.739   5.266  0.9885  0.1394 -1.1479
17678TIP3   OH274448   6.564   1.528   0.663  0.0464  0.0274 -0.2971
17678TIP3    H174449   6.562   1.528   0.759 -0.7617 -1.8023 -0.2820
17678TIP3    H274450   6.511   1.604   0.639 -0.5776 -0.0679  0.6978
17679TIP3   OH274451   5.747   2.980   1.932  0.0455 -0.0260  0.5020
17679TIP3    H174452   5.665   3.028   1.936 -0.9775 -1.5340 -1.0126
17679TIP3    H274453   5.758   2.943   2.020 -0.7191  0.4618  0.8026
17680TIP3   OH274454   4.315   5.638  13.535 -0.0789  0.1605  0.4114
17680TIP3    H174455   4.314   5.616  13.629 -0.7334  1.2398  0.6647
17680TIP3    H274456   4.383   5.582  13.499 -0.6780 -1.2141  1.3009
17681TIP3   OH274457   6.223   3.209   3.740  0.3885  0.1390  0.0047
17681TIP3    H174458   6.163   3.142   3.708  1.1751  1.0163 -3.9831
17681TIP3    H274459   6.170   3.288   3.745  0.4081  0.1384  0.2088
17682TIP3   OH274460   4.370   4.608  17.047  0.0440 -0.0970 -0.2649
17682TIP3    H174461   4.341   4.602  16.956  1.0920 -0.6919 -0.5709
17682TIP3    H274462   4.452   4.559  17.050  1.3578  2.0215  0.4495
17683TIP3   OH274463   2.825   3.451  12.265 -0.0386  0.0899  0.4501
17683TIP3    H174464   2.873   3.396  12.204 -2.9054 -0.4522 -1.5113
17683TIP3    H274465   2.858   3.539  12.249  0.0265 -0.2006 -1.1569
17684TIP3   OH274466   2.548   0.454   0.636  0.1791  0.8541  0.6621
17684TIP3    H174467   2.622   0.428   0.582 -0.9334  1.1156 -1.0714
17684TIP3    H274468   2.480   0.479   0.573 -1.9769 -0.9863  2.1233
17685TIP3   OH274469   1.155   3.988   0.753  0.3185 -0.5977  0.6113
17685TIP3    H174470   1.175   3.961   0.663 -1.2802 -0.5873  0.2236
17685TIP3    H274471   1.144   3.906   0.801 -2.2071 -0.7026 -0.0268
17686TIP3   OH274472   3.203   3.831  12.576 -0.2054 -0.0445 -0.4880
17686TIP3    H174473   3.190   3.888  12.652 -0.6154  0.2907 -0.8038
17686TIP3    H274474   3.290   3.794  12.589  0.2651  1.0119 -0.5076
17687TIP3   OH274475   6.062   4.361  17.151 -0.3165  0.5394 -0.0216
17687TIP3    H174476   6.036   4.275  17.120  0.2399  0.5644 -0.5684
17687TIP3    H274477   6.087   4.409  17.072 -2.1045  1.7429  0.0761
17688TIP3   OH274478   1.452   6.574  12.158 -0.0888  0.3086  0.5036
17688TIP3    H174479   1.361   6.599  12.175 -0.3120  0.1936 -0.4744
17688TIP3    H274480   1.461   6.580  12.063  0.9890  0.5267  0.6050
17689TIP3   OH274481   5.869   5.103  13.093 -0.1047 -0.1491  0.6223
17689TIP3    H174482   5.895   5.176  13.149 -0.3281  0.5309 -0.1357
17689TIP3    H274483   5.932   5.104  13.021  0.1753 -1.0066  0.8444
17690TIP3   OH274484   3.718   3.243   0.227  0.0916 -0.7375  0.5852
17690TIP3    H174485   3.772   3.196   0.291 -1.1092 -1.0565  1.4083
17690TIP3    H274486   3.647   3.182   0.206 -1.0085  0.3573  0.9991
17691TIP3   OH274487   1.918   5.008   5.392 -0.9202  0.3074 -0.0938
17691TIP3    H174488   1.921   4.929   5.445 -0.5770  0.0000 -0.5651
17691TIP3    H274489   1.833   5.006   5.350 -1.3122  0.6994  0.6569
17692TIP3   OH274490   5.178   1.332  11.659  0.1832 -0.6441  0.3451
17692TIP3    H174491   5.100   1.372  11.622  0.7249  0.8847  0.7606
17692TIP3    H274492   5.241   1.330  11.587 -0.1518 -1.6961  0.0628
17693TIP3   OH274493   2.775   1.601   0.190 -0.4477  0.0776  0.3129
17693TIP3    H174494   2.752   1.620   0.099 -0.3601 -1.1629  0.0195
17693TIP3    H274495   2.865   1.634   0.199  0.2911 -1.5665 -0.6480
17694TIP3   OH274496   6.496   2.539   2.365 -0.0991  0.6158 -0.2449
17694TIP3    H174497   6.400   2.540   2.361 -0.2787 -0.6497  1.9717
17694TIP3    H274498   6.523   2.502   2.281 -1.7624 -1.9764  0.2495
17695TIP3   OH274499   3.560   2.712  17.266 -0.1154 -0.1913  0.0564
17695TIP3    H174500   3.479   2.738  17.309 -1.3502 -2.0300 -0.9830
17695TIP3    H274501   3.614   2.677  17.336  0.8257  3.0852  1.1579
17696TIP3   OH274502   4.834   4.994   1.880 -0.4521 -0.3549 -0.2352
17696TIP3    H174503   4.907   5.023   1.934  0.4799  0.8588 -2.0793
17696TIP3    H274504   4.858   5.017   1.790 -2.1755 -1.8234 -1.1551
17697TIP3   OH274505   4.788   3.272   3.288  0.3535 -0.1038  0.3302
17697TIP3    H174506   4.765   3.258   3.380  0.7447  4.0141  1.2463
17697TIP3    H274507   4.714   3.321   3.252  0.6860 -0.7331 -1.2844
17698TIP3   OH274508   1.209   1.892   3.485 -0.3479 -0.1325 -0.2967
17698TIP3    H174509   1.226   1.898   3.391  0.0826  2.5872 -0.1118
17698TIP3    H274510   1.221   1.981   3.518 -0.4253 -1.0105  2.3651
17699TIP3   OH274511   1.815   4.836   4.933  0.2039  0.8083 -0.5214
17699TIP3    H174512   1.882   4.853   4.867  1.0116 -0.2634  0.0163
17699TIP3    H274513   1.741   4.800   4.883  0.8212 -0.0282 -0.8413
17700TIP3   OH274514   4.467   3.868  14.991  0.3565  0.7380  0.1374
17700TIP3    H174515   4.405   3.816  15.043  1.1366  1.3998  1.8249
17700TIP3    H274516   4.418   3.894  14.914 -0.8347 -0.3995  0.4711
17701TIP3   OH274517   3.356   2.246   4.527  0.2499  0.0871 -0.0372
17701TIP3    H174518   3.287   2.299   4.567  1.4697  2.3746 -0.8412
17701TIP3    H274519   3.308   2.182   4.473 -1.2515  1.4184 -0.3452
17702TIP3   OH274520   2.531   3.385  14.126 -0.1032 -0.0060 -0.0796
17702TIP3    H174521   2.438   3.376  14.149 -0.0426  1.6291  0.9546
17702TIP3    H274522   2.534   3.463  14.071  0.8098  0.7376  0.9888
17703TIP3   OH274523   4.354   2.816  11.373  0.2935 -0.3936 -0.7601
17703TIP3    H174524   4.371   2.910  11.371  0.4931 -0.4185 -0.4192
17703TIP3    H274525   4.435   2.776  11.342  0.9750 -0.5202  1.0720
17704TIP3   OH274526   0.792   1.928   5.897 -0.3923 -0.0845  0.9852
17704TIP3    H174527   0.863   1.906   5.837 -0.3154  0.0105  1.0413
17704TIP3    H274528   0.726   1.970   5.841 -0.2251  0.2060  1.0061
17705TIP3   OH274529   4.116   6.205   4.828 -0.6342  0.8714 -0.5081
17705TIP3    H174530   4.153   6.139   4.771 -2.2950  0.1648 -0.8442
17705TIP3    H274531   4.124   6.169   4.916 -1.5985  0.1411 -0.6962
17706TIP3   OH274532   3.054   5.067  11.824 -0.5760  0.2211  0.4483
17706TIP3    H174533   3.020   5.046  11.911 -1.4318  2.0243  0.5803
17706TIP3    H274534   3.006   5.144  11.796  1.0232  0.8302 -0.8262
17707TIP3   OH274535   0.873   0.624   3.329 -1.0740 -0.0198 -0.4162
17707TIP3    H174536   0.815   0.655   3.260 -2.2269  1.7047  1.2495
17707TIP3    H274537   0.815   0.595   3.399  0.0380  0.9040  0.9442
17708TIP3   OH274538   2.999   3.750   3.391 -0.4832 -0.2797  0.1828
17708TIP3    H174539   2.967   3.811   3.324 -0.4663  0.5735  0.9380
17708TIP3    H274540   2.938   3.759   3.464 -1.6448 -2.6135 -0.3847
17709TIP3   OH274541   2.278   0.629  17.268 -0.8361 -1.2836 -0.0889
17709TIP3    H174542   2.295   0.721  17.247  0.6568 -0.7999  2.6410
17709TIP3    H274543   2.315   0.580  17.195 -1.1725  0.2626 -1.3472
17710TIP3   OH274544   3.610   2.181  13.103 -0.6784  0.2891 -0.2005
17710TIP3    H174545   3.652   2.215  13.182  0.4520 -0.7721 -0.3106
17710TIP3    H274546   3.573   2.097  13.130 -2.5927  1.1052 -0.1641
17711TIP3   OH274547   1.177   6.512   5.432  0.0878  0.3348  0.1544
17711TIP3    H174548   1.169   6.448   5.503 -0.7356  0.2400 -0.0172
17711TIP3    H274549   1.174   6.459   5.352  0.0500  0.5362  0.0228
17712TIP3   OH274550   4.654   5.301  12.380 -0.2336  0.5545 -0.4484
17712TIP3    H174551   4.716   5.284  12.309 -1.0225 -0.3639 -0.9468
17712TIP3    H274552   4.678   5.240  12.449  0.4237  1.3275  0.0193
17713TIP3   OH274553   3.533   0.170  15.121 -0.0735  0.3174  0.5165
17713TIP3    H174554   3.614   0.122  15.106 -0.2388  0.0504  0.4765
17713TIP3    H274555   3.484   0.116  15.183 -1.0447 -0.4669 -0.8771
17714TIP3   OH274556   3.081   5.005   4.292 -0.0414  0.0409 -0.1402
17714TIP3    H174557   3.053   5.029   4.380 -0.3245 -0.2660 -0.1461
17714TIP3    H274558   3.076   5.087   4.242 -0.2121  0.1407  0.0413
17715TIP3   OH274559   4.188   1.184   4.018  0.5763 -0.1875 -0.0294
17715TIP3    H174560   4.105   1.202   4.062  0.0090  0.3369 -1.2588
17715TIP3    H274561   4.252   1.239   4.065  0.3614 -1.0081  1.2710
17716TIP3   OH274562   0.781   0.526  10.411  0.3825 -0.0255  0.5667
17716TIP3    H174563   0.746   0.468  10.479 -0.5054 -0.8817 -0.5740
17716TIP3    H274564   0.798   0.468  10.336  0.3614  1.0365 -0.2893
17717TIP3   OH274565   3.622   2.109   1.907  0.1704  0.4443  0.1897
17717TIP3    H174566   3.590   2.168   1.975 -0.1727  0.7071 -0.1933
17717TIP3    H274567   3.545   2.094   1.851  0.1646 -0.6198  0.4656
17718TIP3   OH274568   1.684   4.927   2.706  0.1746 -0.9695  0.1685
17718TIP3    H174569   1.614   4.989   2.685  0.4832 -0.9506 -0.8313
17718TIP3    H274570   1.748   4.938   2.636  1.1432 -1.0608  1.0239
17719TIP3   OH274571   1.782   6.166   3.601 -0.0564 -0.2990 -0.5920
17719TIP3    H174572   1.815   6.079   3.622  1.0487 -0.1578 -1.5887
17719TIP3    H274573   1.695   6.150   3.563 -0.6042 -0.7987  0.8038
17720TIP3   OH274574   3.135   3.824  14.284  0.3129 -0.3477 -0.0843
17720TIP3    H174575   3.081   3.820  14.362  0.8548  0.3167  0.3343
17720TIP3    H274576   3.087   3.773  14.219 -0.2153 -0.7807  0.6324
17721TIP3   OH274577   3.870   5.994  12.719 -0.4405  0.6382 -0.3395
17721TIP3    H174578   3.880   5.922  12.656  2.7112  1.0095 -0.4376
17721TIP3    H274579   3.927   5.970  12.792 -0.9899  2.0611  0.6000
17722TIP3   OH274580   1.694   5.494   1.877 -0.0787 -0.5084 -0.1500
17722TIP3    H174581   1.712   5.431   1.807 -0.1556  0.6933 -1.3127
17722TIP3    H274582   1.779   5.510   1.918 -0.1295 -1.6671  0.4590
17723TIP3   OH274583   1.022   5.397  13.567 -0.6428  0.3407  1.0279
17723TIP3    H174584   1.029   5.338  13.642 -1.1282 -3.2000 -1.4501
17723TIP3    H274585   1.112   5.415  13.542 -0.2923 -2.6706 -0.3703
17724TIP3   OH274586   1.718   6.306   0.254 -0.4787 -0.0744 -0.0935
17724TIP3    H174587   1.787   6.367   0.229 -0.3685  0.1245  0.6675
17724TIP3    H274588   1.699   6.327   0.346 -1.8141  0.1403 -0.3873
17725TIP3   OH274589   5.712   5.443   4.274  0.0965 -0.0828  0.1808
17725TIP3    H174590   5.724   5.520   4.218 -0.5018  0.3506  0.6252
17725TIP3    H274591   5.617   5.438   4.286  0.1306 -0.9006  0.1497
17726TIP3   OH274592   6.268   0.494   1.140  0.6022  0.6253 -0.3536
17726TIP3    H174593   6.360   0.482   1.166  0.3074  0.3998  0.6252
17726TIP3    H274594   6.255   0.588   1.144  0.1615  0.5277  1.8671
17727TIP3   OH274595   1.407   4.497  16.880 -0.3016  0.0575  0.6845
17727TIP3    H174596   1.461   4.575  16.897  0.5771 -0.9252  2.7787
17727TIP3    H274597   1.436   4.465  16.795  2.2170 -0.2384  1.5962
17728TIP3   OH274598   0.497   0.829   1.563  0.3210  0.0778 -0.0531
17728TIP3    H174599   0.483   0.916   1.526  0.1147  1.1774  2.4596
17728TIP3    H274600   0.592   0.815   1.555  0.2478  0.1278 -1.2304
17729TIP3   OH274601   6.555   2.372   1.724 -0.0691  0.1167 -0.4108
17729TIP3    H174602   6.637   2.351   1.681 -1.2512 -2.2494 -1.7092
17729TIP3    H274603   6.563   2.333   1.811  0.8333  1.5078  0.1614
17730TIP3   OH274604   5.737   3.837  16.775 -0.2701 -0.4300 -0.0141
17730TIP3    H174605   5.642   3.827  16.766 -0.4549  1.2855 -0.3778
17730TIP3    H274606   5.759   3.911  16.718  0.9227  0.6963  1.7834
17731TIP3   OH274607   4.180   1.056  16.465  0.2757  0.0563  0.1798
17731TIP3    H174608   4.145   0.997  16.397  0.2308  0.0252  0.2301
17731TIP3    H274609   4.176   1.004  16.545  1.6864 -0.4310 -0.0354
17732TIP3   OH274610   1.560   5.246  13.427  0.1086 -0.3273  0.4645
17732TIP3    H174611   1.472   5.223  13.398 -0.4970  1.3348  0.8444
17732TIP3    H274612   1.617   5.179  13.389 -1.2056 -0.9151 -0.5376
17733TIP3   OH274613   0.115   2.063   0.805 -0.1975  0.1766 -0.0754
17733TIP3    H174614   0.057   1.998   0.845 -1.2832  1.6606  0.8823
17733TIP3    H274615   0.179   2.082   0.873  0.2615 -0.0654 -0.4404
17734TIP3   OH274616   1.843   1.379  13.309  0.2198 -0.0436  0.1767
17734TIP3    H174617   1.877   1.445  13.370 -0.4634  0.6629 -0.1865
17734TIP3    H274618   1.917   1.319  13.295  1.6012  1.8487 -1.1677
17735TIP3   OH274619   6.435   6.660  13.227  0.0908 -0.5847  0.2602
17735TIP3    H174620   6.457   6.589  13.167 -0.9299  0.4343 -1.3879
17735TIP3    H274621   6.348   6.636  13.262 -0.4884  0.0639 -0.6916
17736TIP3   OH274622   4.651   5.207  16.459  0.2265  0.5629  0.1713
17736TIP3    H174623   4.655   5.167  16.546 -0.8898  1.0556  0.4642
17736TIP3    H274624   4.559   5.233  16.449  0.4344  0.8910 -0.9842
17737TIP3   OH274625   0.893   6.234  12.042 -0.0909 -0.4768 -0.0435
17737TIP3    H174626   0.918   6.200  11.957 -0.2355 -0.9125  0.0863
17737TIP3    H274627   0.974   6.234  12.093 -0.0770 -0.5546 -0.0665
17738TIP3   OH274628   5.226   5.492  17.220 -0.4176 -0.5178 -0.4070
17738TIP3    H174629   5.134   5.514  17.237 -0.2470  0.0152 -0.1429
17738TIP3    H274630   5.274   5.537  17.289  0.1064 -0.1707 -0.9876
17739TIP3   OH274631   4.412   2.809   2.877 -0.3396  0.1185 -0.3657
17739TIP3    H174632   4.431   2.772   2.791  1.0148 -0.0226 -0.0387
17739TIP3    H274633   4.433   2.739   2.939 -0.5836  0.4590  0.1134
17740TIP3   OH274634   1.420   2.257   5.766 -0.3876  0.5621  0.8453
17740TIP3    H174635   1.441   2.350   5.769 -0.6445  0.7014 -0.7407
17740TIP3    H274636   1.505   2.213   5.765 -0.2677  0.7581  1.7762
17741TIP3   OH274637   0.814   3.537  12.551 -0.3208  0.0608 -0.0667
17741TIP3    H174638   0.786   3.606  12.610 -0.3373 -0.0540  0.0612
17741TIP3    H274639   0.906   3.524  12.571 -0.4542 -0.3411  0.3036
17742TIP3   OH274640   2.529   6.717  15.455 -0.0525  0.4668  0.2001
17742TIP3    H174641   2.592   6.663  15.503 -1.4150 -1.1378  0.3004
17742TIP3    H274642   2.548   6.698  15.363 -2.8605 -3.3596  0.1610
17743TIP3   OH274643   1.692   1.253  10.836  0.3230 -0.0169 -0.2146
17743TIP3    H174644   1.637   1.287  10.906  0.5826 -0.4796  0.2205
17743TIP3    H274645   1.729   1.172  10.871  2.2507  0.8796 -0.0166
17744TIP3   OH274646   2.387   6.104  13.331 -0.1714 -0.3719  0.4510
17744TIP3    H174647   2.460   6.114  13.393  1.6788  0.1888 -1.6573
17744TIP3    H274648   2.428   6.068  13.253 -1.7809  1.6843 -1.4643
17745TIP3   OH274649   3.007   5.401  11.751 -1.1065 -0.7415  0.4470
17745TIP3    H174650   3.102   5.391  11.745 -0.9614  0.6348  0.1560
17745TIP3    H274651   2.977   5.394  11.660 -1.2016 -0.3869  0.4520
17746TIP3   OH274652   0.043   5.556   6.260  0.4000 -0.6771 -0.0667
17746TIP3    H174653   0.126   5.599   6.237 -0.1399 -0.6067 -2.0240
17746TIP3    H274654   0.069   5.469   6.290  1.2477 -0.2461  0.5060
17747TIP3   OH274655   3.812   1.197  14.697  0.6832 -0.1099 -0.5453
17747TIP3    H174656   3.789   1.288  14.678 -2.0543 -0.5933  0.0795
17747TIP3    H274657   3.810   1.153  14.612  0.6752  0.1496 -0.6807
17748TIP3   OH274658   5.158   2.354   4.028  0.0988  0.0509 -0.0985
17748TIP3    H174659   5.064   2.374   4.027  0.5265  2.5598  1.4616
17748TIP3    H274660   5.197   2.418   3.970  0.8803 -1.1681 -0.9732
17749TIP3   OH274661   0.630   4.893  13.723  0.4348 -0.4711 -0.9884
17749TIP3    H174662   0.608   4.849  13.641  0.5581 -2.2760 -0.1081
17749TIP3    H274663   0.699   4.839  13.762  0.0785  0.0834  0.4984
17750TIP3   OH274664   3.509   0.266  12.994  0.0905 -0.0432 -0.0443
17750TIP3    H174665   3.496   0.208  12.919 -0.6562 -0.0741  0.1044
17750TIP3    H274666   3.500   0.354  12.958  0.0116 -0.0509 -0.0435
17751TIP3   OH274667   1.838   3.002   1.255 -0.0938  0.0449 -0.0967
17751TIP3    H174668   1.786   2.979   1.178  0.4145  0.4277 -0.5636
17751TIP3    H274669   1.873   2.918   1.286  1.5145  0.1224 -1.6157
17752TIP3   OH274670   4.189   4.699   4.251 -0.0672  0.3670  0.4984
17752TIP3    H174671   4.095   4.678   4.252 -0.1246  0.6359  1.1134
17752TIP3    H274672   4.216   4.682   4.161 -0.7338  0.4053  0.2848
17753TIP3   OH274673   6.717   5.431  12.070 -0.2303 -0.2443  0.2931
17753TIP3    H174674   6.780   5.501  12.052 -0.0461 -0.4939 -0.0388
17753TIP3    H274675   6.769   5.351  12.068 -0.0823 -0.2695  2.4554
17754TIP3   OH274676   2.496   1.916   4.210  0.2884  0.0875  0.1215
17754TIP3    H174677   2.532   1.984   4.153  3.2428 -0.1110  1.5464
17754TIP3    H274678   2.401   1.926   4.204  0.6035  3.1125 -1.1379
17755TIP3   OH274679   2.845   2.814   4.333  0.4277  0.2472 -0.3252
17755TIP3    H174680   2.760   2.779   4.361  1.3520 -2.3194 -0.4208
17755TIP3    H274681   2.872   2.870   4.406 -0.6611 -0.1197  0.4056
17756TIP3   OH274682   0.097   2.772   3.861 -0.2623 -0.3958 -0.1324
17756TIP3    H174683   0.135   2.806   3.941  0.8102 -2.7432  0.4419
17756TIP3    H274684   0.022   2.829   3.844  1.6424  2.4677  0.4098
17757TIP3   OH274685   3.583   5.110   5.523 -0.5821 -0.9301 -0.3270
17757TIP3    H174686   3.552   5.048   5.458 -0.5987  1.1369 -2.4166
17757TIP3    H274687   3.618   5.183   5.472 -0.3254  0.6728  1.9909
17758TIP3   OH274688   0.426   2.693  13.961  0.0943 -0.6960 -0.4045
17758TIP3    H174689   0.432   2.785  13.936  0.9945 -0.2544  1.2512
17758TIP3    H274690   0.478   2.687  14.042 -2.4353 -2.0131  1.2477
17759TIP3   OH274691   5.281   6.111   4.161 -0.2776  0.2084  0.3300
17759TIP3    H174692   5.355   6.099   4.219 -1.0675 -0.0452  1.3072
17759TIP3    H274693   5.215   6.050   4.193 -1.2820  1.1629  0.1339
17760TIP3   OH274694   3.684   4.697   1.166  0.2330 -0.1742  0.2946
17760TIP3    H174695   3.730   4.780   1.170  2.0600 -1.1668  0.6508
17760TIP3    H274696   3.605   4.711   1.218 -0.0291  1.6340 -0.5129
17761TIP3   OH274697   3.088   1.426   0.495  0.5751 -0.4211  0.4282
17761TIP3    H174698   3.051   1.452   0.410  3.7157  0.9043 -0.6847
17761TIP3    H274699   3.065   1.333   0.503 -1.1915 -0.1724 -1.0585
17762TIP3   OH274700   5.817   3.486  13.328  0.2770  0.2013  0.4094
17762TIP3    H174701   5.735   3.502  13.281 -0.3735 -1.2153  1.0048
17762TIP3    H274702   5.864   3.570  13.324 -0.3185  0.4931 -1.6176
17763TIP3   OH274703   0.716   6.741   4.520  0.1948  0.2564 -0.1868
17763TIP3    H174704   0.696   6.828   4.554  1.5091  1.2060 -1.7109
17763TIP3    H274705   0.643   6.719   4.463 -1.0843 -0.5236  1.6588
17764TIP3   OH274706   4.444   1.022  14.014  0.2423  0.6412 -1.1693
17764TIP3    H174707   4.395   0.976  14.082  2.9183  0.5638  0.8789
17764TIP3    H274708   4.378   1.072  13.966 -1.9444 -0.3529  0.6427
17765TIP3   OH274709   1.835   3.472  15.669  0.1396  0.1279 -0.2256
17765TIP3    H174710   1.863   3.411  15.737  0.3574  0.3036 -0.1575
17765TIP3    H274711   1.755   3.512  15.705  0.4314  0.4571  0.0695
17766TIP3   OH274712   1.037   5.308   2.652  0.6195  0.1163  0.4497
17766TIP3    H174713   0.963   5.329   2.595  0.3161 -1.9895 -0.0410
17766TIP3    H274714   1.068   5.223   2.621  2.4734  0.3634  1.4450
17767TIP3   OH274715   1.426   0.249   6.518  0.6730 -0.0241 -0.2149
17767TIP3    H174716   1.453   0.327   6.470 -3.2407  1.4752 -0.3207
17767TIP3    H274717   1.369   0.202   6.458  1.0589 -1.7429  0.6959
17768TIP3   OH274718   5.328   4.686  11.564 -0.8229  0.1693  0.6306
17768TIP3    H174719   5.375   4.665  11.484 -0.7952 -0.0349  0.6988
17768TIP3    H274720   5.394   4.720  11.624 -0.8962  0.6036  0.4641
17769TIP3   OH274721   5.049   5.430  12.677  0.1443  0.5804 -0.5428
17769TIP3    H174722   5.090   5.390  12.753 -0.9030  0.6848  0.0983
17769TIP3    H274723   5.104   5.506  12.656  0.8021  0.1674 -0.3036
17770TIP3   OH274724   6.321   6.642  17.234  0.0129 -0.2564 -0.1760
17770TIP3    H174725   6.243   6.625  17.287  2.0732  0.4157  3.4356
17770TIP3    H274726   6.362   6.556  17.225 -0.1295 -0.3112 -0.3015
17771TIP3   OH274727   2.063   4.467   0.700 -0.6821 -0.2721 -0.3141
17771TIP3    H174728   2.115   4.543   0.675 -0.8308 -0.0427  0.0804
17771TIP3    H274729   2.123   4.411   0.748 -0.8326  0.0484  0.2460
17772TIP3   OH274730   0.749   2.591   0.785  0.2296  0.0957  0.8068
17772TIP3    H174731   0.728   2.684   0.784 -0.1525  0.0405  2.2663
17772TIP3    H274732   0.719   2.559   0.700  0.7609  1.3762  0.1100
17773TIP3   OH274733   1.335   1.744  12.972 -0.4084 -0.3714  0.3511
17773TIP3    H174734   1.369   1.818  12.922  1.4983 -0.6620  1.0952
17773TIP3    H274735   1.247   1.730  12.939 -0.6510  1.9344 -0.1097
17774TIP3   OH274736   0.134   4.662   0.428  0.0601 -0.1265  0.3236
17774TIP3    H174737   0.109   4.703   0.345  0.5450 -0.3545  0.0623
17774TIP3    H274738   0.215   4.615   0.408 -0.9186 -1.9391  0.3765
17775TIP3   OH274739   5.029   1.590   3.295  0.1106 -0.5288 -0.2078
17775TIP3    H174740   5.119   1.560   3.282  0.0854 -0.0051 -1.8173
17775TIP3    H274741   5.036   1.685   3.303 -0.3928 -0.3239 -1.7849
17776TIP3   OH274742   6.015   3.905  15.388 -0.2084 -0.2393 -0.0605
17776TIP3    H174743   6.097   3.915  15.437 -0.8269  3.1057  0.5499
17776TIP3    H274744   5.948   3.900  15.456 -0.6713 -1.0805 -0.5669
17777TIP3   OH274745   2.458   5.401  15.379  0.6010  0.5580  0.2859
17777TIP3    H174746   2.550   5.405  15.405  0.2679 -0.0340  1.6638
17777TIP3    H274747   2.447   5.473  15.316  2.0552  0.4535 -0.1223
17778TIP3   OH274748   2.694   5.069  15.787 -0.8723 -0.2591  0.6328
17778TIP3    H174749   2.690   5.076  15.691  1.1314  0.2522  0.5324
17778TIP3    H274750   2.773   5.017  15.803  1.0350  2.7594  2.0238
17779TIP3   OH274751   3.147   4.731  15.815 -0.0220  0.2893 -0.0372
17779TIP3    H174752   3.206   4.783  15.870 -1.0695  0.2460  1.1563
17779TIP3    H274753   3.191   4.728  15.730 -0.0843  3.5252 -0.3293
17780TIP3   OH274754   3.763   2.669   3.663  0.0770  0.6875  0.0872
17780TIP3    H174755   3.817   2.734   3.617  1.2240  0.8793  1.6012
17780TIP3    H274756   3.720   2.719   3.732 -1.5231  0.3868 -0.6544
17781TIP3   OH274757   4.507   2.296  14.459  0.8393 -0.1328 -0.6415
17781TIP3    H174758   4.524   2.365  14.523 -1.2178 -0.6709  0.5953
17781TIP3    H274759   4.464   2.340  14.386  0.4995  0.0420 -0.3340
17782TIP3   OH274760   5.155   4.731   3.551  0.5066 -0.3526  0.1000
17782TIP3    H174761   5.120   4.741   3.462 -2.0425  2.2793  1.1986
17782TIP3    H274762   5.110   4.654   3.586  0.1010 -0.3290 -0.3470
17783TIP3   OH274763   4.334   6.475  13.001  0.0072  0.3385  0.5502
17783TIP3    H174764   4.424   6.469  13.031  0.3344 -1.1281 -0.5874
17783TIP3    H274765   4.336   6.443  12.911 -1.7740 -0.5655  0.7764
17784TIP3   OH274766   1.867   4.302  12.203 -0.3937  0.0518 -0.1066
17784TIP3    H174767   1.954   4.321  12.238  1.2989 -2.5615 -2.4317
17784TIP3    H274768   1.864   4.348  12.119 -2.0250  1.5182  0.7031
17785TIP3   OH274769   3.940   5.563   0.678 -0.6152 -0.1917  0.4087
17785TIP3    H174770   3.865   5.547   0.621  0.4075  0.5562 -1.2101
17785TIP3    H274771   3.927   5.652   0.710  0.4367  0.6505 -1.3404
17786TIP3   OH274772   1.055   3.013   1.496  0.3028 -0.5053  0.3951
17786TIP3    H174773   0.972   3.058   1.480  1.3067  1.5767  0.7826
17786TIP3    H274774   1.095   3.004   1.410  0.4985  0.2036  0.4042
17787TIP3   OH274775   5.252   1.912   6.181 -0.0089 -0.0210 -0.6536
17787TIP3    H174776   5.261   1.949   6.269 -1.8121  0.1318 -0.5130
17787TIP3    H274777   5.271   1.985   6.123 -2.2724  0.8610 -0.3679
17788TIP3   OH274778   0.986   1.008  11.533 -0.4417  0.0815  0.1855
17788TIP3    H174779   0.954   1.068  11.465  1.4822  0.9486 -0.0225
17788TIP3    H274780   1.007   1.065  11.607 -2.4888 -0.8563  1.5638
17789TIP3   OH274781   0.018   3.247  12.969 -0.0143 -0.3980  0.0291
17789TIP3    H174782   0.092   3.293  12.928 -1.0793  0.1944 -1.2939
17789TIP3    H274783  -0.033   3.213  12.895 -1.6669  0.1648  0.8652
17790TIP3   OH274784   1.239   3.697   2.213  0.3855  0.2676 -0.1451
17790TIP3    H174785   1.205   3.680   2.301 -0.0264 -0.5311 -0.4500
17790TIP3    H274786   1.172   3.754   2.173  1.3124  1.9270  0.5561
17791TIP3   OH274787   6.195   2.162   5.347 -0.5869  0.0105  0.4916
17791TIP3    H174788   6.238   2.246   5.342 -0.2439 -0.2466 -1.5026
17791TIP3    H274789   6.102   2.181   5.332 -0.6184  0.1057  0.7985
17792TIP3   OH274790   6.099   4.401  15.694  0.1828  0.4349 -0.3146
17792TIP3    H174791   6.137   4.482  15.658  0.9564  0.9805  1.6276
17792TIP3    H274792   6.110   4.337  15.624  1.2667  1.5412 -1.2142
17793TIP3   OH274793   3.974   0.864  17.213 -0.0810 -0.0789 -0.4722
17793TIP3    H174794   4.016   0.783  17.185 -0.0961  0.2811 -1.5809
17793TIP3    H274795   3.880   0.845  17.206 -0.1233 -0.6770  1.3975
17794TIP3   OH274796   1.804   2.581  12.952  0.8034  0.0364 -0.2351
17794TIP3    H174797   1.893   2.558  12.925  0.4689 -1.5399 -0.0698
17794TIP3    H274798   1.790   2.532  13.033  0.1926  1.2131  0.3970
17795TIP3   OH274799   6.621   1.640  11.618  0.1178 -0.1127 -0.3231
17795TIP3    H174800   6.566   1.700  11.669  0.1704 -0.4464  0.1289
17795TIP3    H274801   6.585   1.553  11.635  0.4061 -0.2712 -0.5127
17796TIP3   OH274802   3.835   5.696   4.997 -0.4277 -0.2325 -0.0170
17796TIP3    H174803   3.776   5.764   5.028  1.5335  1.5578  0.0154
17796TIP3    H274804   3.876   5.661   5.076  0.2326  0.1742 -0.1686
17797TIP3   OH274805   2.696   1.337   0.122 -0.0997  0.0665  0.3207
17797TIP3    H174806   2.624   1.361   0.063  0.4879 -1.4069 -1.0623
17797TIP3    H274807   2.739   1.420   0.142  0.8129  0.4767 -2.8434
17798TIP3   OH274808   2.515   5.296  17.144 -0.2373  0.3723  0.0168
17798TIP3    H174809   2.500   5.207  17.114 -0.4015  0.6558 -0.7759
17798TIP3    H274810   2.444   5.347  17.104 -0.0361  0.8854  0.2995
17799TIP3   OH274811   2.532   1.483  14.759  0.2028  0.4235  0.4416
17799TIP3    H174812   2.623   1.470  14.784  0.6076  0.2022 -1.0418
17799TIP3    H274813   2.482   1.462  14.837  1.4035  0.1088  1.1451
17800TIP3   OH274814   6.144   1.686   3.981  0.4586 -0.5054 -0.6238
17800TIP3    H174815   6.069   1.734   3.943  0.8076 -0.6352 -1.4952
17800TIP3    H274816   6.107   1.642   4.058  0.5382  2.7328  1.4413
17801TIP3   OH274817   5.139   3.871   2.485 -0.2168  0.2376 -0.3237
17801TIP3    H174818   5.120   3.836   2.398 -0.1960 -0.2463 -0.1369
17801TIP3    H274819   5.057   3.860   2.533 -0.8302  2.2245 -0.8239
17802TIP3   OH274820   5.510   1.320   1.172 -0.1344  0.4644 -0.3615
17802TIP3    H174821   5.422   1.354   1.181  0.0353  0.7825  0.0979
17802TIP3    H274822   5.534   1.339   1.081 -1.3207 -1.5083 -1.1417
17803TIP3   OH274823   3.179   4.141  15.667 -0.5081 -0.1410  0.2133
17803TIP3    H174824   3.187   4.137  15.763  0.3640 -0.0790  0.1486
17803TIP3    H274825   3.111   4.077  15.647 -1.0401  0.1881  0.9112
17804TIP3   OH274826   4.370   0.451  17.300  0.9983 -0.0898 -0.3553
17804TIP3    H174827   4.306   0.386  17.329  0.1001  0.7686 -0.3831
17804TIP3    H274828   4.421   0.470  17.379 -0.4994  1.1596  0.3782
17805TIP3   OH274829   6.526   0.996  11.924 -0.2517 -0.2301 -0.2759
17805TIP3    H174830   6.535   0.984  12.018  1.0610 -2.8578 -0.6357
17805TIP3    H274831   6.463   0.929  11.897  1.8950 -1.8778 -1.5967
17806TIP3   OH274832   1.959   0.020  15.861 -0.1707  0.0252  0.0141
17806TIP3    H174833   1.990  -0.037  15.790  0.9982  2.3817 -1.4857
17806TIP3    H274834   2.026   0.012  15.929  1.4949  1.6293 -1.3416
17807TIP3   OH274835   3.036   2.918  15.768 -0.4683 -0.2940  0.2237
17807TIP3    H174836   2.970   2.973  15.724  0.1952  0.3910  0.0531
17807TIP3    H274837   3.110   2.917  15.707 -0.4727 -1.4213  0.2136
17808TIP3   OH274838   5.842   5.034  14.643 -0.4424  0.3420  0.3048
17808TIP3    H174839   5.863   4.991  14.726  2.4748 -0.0607 -0.5245
17808TIP3    H274840   5.882   4.978  14.576 -3.0895  0.3939 -1.5038
17809TIP3   OH274841   5.129   0.820  11.356 -0.0895 -0.7246 -0.3733
17809TIP3    H174842   5.129   0.819  11.260 -0.7605  3.4911 -0.6253
17809TIP3    H274843   5.209   0.866  11.379 -0.5634 -0.5595  1.0100
17810TIP3   OH274844   6.576   6.209  16.873  0.2886 -0.6978  0.0459
17810TIP3    H174845   6.502   6.150  16.888  0.0283 -0.2058  0.7901
17810TIP3    H274846   6.583   6.259  16.954 -0.6868  1.5757 -1.1687
17811TIP3   OH274847   6.326   4.080   0.104 -0.0865 -0.2783 -0.4909
17811TIP3    H174848   6.237   4.114   0.110  0.1101  0.4207 -1.3504
17811TIP3    H274849   6.366   4.129   0.031  1.8314  1.3303  1.4880
17812TIP3   OH274850   6.177   0.253   3.976  0.2156 -0.1899  0.2916
17812TIP3    H174851   6.140   0.328   4.022  0.1404 -0.4485  0.6530
17812TIP3    H274852   6.109   0.186   3.980 -0.6915  0.4947 -2.0962
17813TIP3   OH274853   4.142   4.955   0.881 -0.5132  0.4324  0.1639
17813TIP3    H174854   4.221   4.903   0.893 -2.7145 -2.5396  4.1308
17813TIP3    H274855   4.086   4.903   0.825 -1.1135  0.6122  0.5830
17814TIP3   OH274856   4.648   1.448   2.567 -0.0045  0.4822 -0.0700
17814TIP3    H174857   4.645   1.353   2.575  0.2146  0.5549  0.9345
17814TIP3    H274858   4.651   1.480   2.657  0.9766  1.4040 -0.4113
17815TIP3   OH274859   1.365   0.106  11.420  0.3258  0.3005  0.1995
17815TIP3    H174860   1.417   0.150  11.488  2.8620 -1.7430 -0.2777
17815TIP3    H274861   1.403   0.136  11.337 -0.3475 -0.0184 -0.2333
17816TIP3   OH274862   4.004   5.561  15.515 -0.5626 -0.4367  0.1366
17816TIP3    H174863   4.056   5.639  15.493 -0.4910 -0.3608  0.5672
17816TIP3    H274864   4.068   5.490  15.518 -0.5814 -0.4582  0.0503
17817TIP3   OH274865   3.029   2.324  14.988  0.1031 -0.6848 -0.0835
17817TIP3    H174866   3.081   2.393  15.029  0.3634 -0.7316 -0.3316
17817TIP3    H274867   3.023   2.350  14.896 -0.9245 -0.3049  0.0784
17818TIP3   OH274868   2.164   5.473   1.144  0.0652 -0.3731  0.1626
17818TIP3    H174869   2.145   5.408   1.076  0.9201 -0.9012  0.4150
17818TIP3    H274870   2.187   5.552   1.096 -2.7377  0.3405 -0.1747
17819TIP3   OH274871   3.420   1.466  16.342 -0.0733  0.2155 -0.2236
17819TIP3    H174872   3.399   1.539  16.400 -1.6807 -0.9165  0.7226
17819TIP3    H274873   3.486   1.415  16.389 -0.4219 -0.0014  0.0369
17820TIP3   OH274874   0.526   2.563  11.270 -0.2294 -0.7411  0.0074
17820TIP3    H174875   0.610   2.522  11.292  0.8333  1.8249  1.1352
17820TIP3    H274876   0.516   2.548  11.176  2.8171  0.9555 -0.7285
17821TIP3   OH274877   1.083   4.487  14.830 -0.0585  1.1594 -0.1395
17821TIP3    H174878   1.052   4.470  14.919  0.9449 -1.6209 -0.2362
17821TIP3    H274879   1.163   4.539  14.841  0.5010  0.1521  0.6400
17822TIP3   OH274880   0.528   4.756   1.620  0.3945 -0.1688 -0.0092
17822TIP3    H174881   0.509   4.675   1.667  2.6839 -0.0819  1.2267
17822TIP3    H274882   0.444   4.801   1.612 -0.5226 -1.5459  1.4327
17823TIP3   OH274883   4.347   4.014  16.784  0.4210  0.1332 -0.1004
17823TIP3    H174884   4.353   4.106  16.811 -1.0354 -0.4529  2.5834
17823TIP3    H274885   4.362   3.964  16.865  1.5481 -2.0331 -1.5616
17824TIP3   OH274886   5.194   1.066  16.432  0.5189 -0.9023  0.0013
17824TIP3    H174887   5.208   1.022  16.515 -1.3452  0.7938  1.3157
17824TIP3    H274888   5.099   1.063  16.420  0.7754 -1.6340 -2.4235
17825TIP3   OH274889   1.540   1.113  11.226  0.5200  0.7489 -0.2990
17825TIP3    H174890   1.539   1.158  11.142  0.3600 -2.0598 -1.9319
17825TIP3    H274891   1.630   1.122  11.257  0.6956  1.4226 -0.9844
17826TIP3   OH274892   1.584   5.499   2.193 -0.4609  0.8182 -0.2597
17826TIP3    H174893   1.675   5.503   2.164  0.6363 -0.8155  2.5600
17826TIP3    H274894   1.552   5.415   2.162 -0.3929  0.5727  0.3301
17827TIP3   OH274895   5.908   4.044   0.802  0.2701 -0.0255  0.7324
17827TIP3    H174896   5.964   3.967   0.808  0.2685  0.0662  2.0467
17827TIP3    H274897   5.945   4.107   0.864  0.2950  1.0631 -0.3472
17828TIP3   OH274898   5.121   3.751  15.320  0.1535 -0.5804 -0.5038
17828TIP3    H174899   5.048   3.757  15.259  0.2519 -0.3566 -0.6014
17828TIP3    H274900   5.102   3.673  15.373  0.6871 -1.5165 -1.6374
17829TIP3   OH274901   2.703   5.068   0.748 -0.6214 -0.2743  0.0198
17829TIP3    H174902   2.740   5.088   0.834 -0.9455 -0.1626  0.1356
17829TIP3    H274903   2.708   4.972   0.741  1.6262 -0.1683 -0.8483
17830TIP3   OH274904   1.982   0.701   6.037 -0.2895 -0.2610 -0.4771
17830TIP3    H174905   1.950   0.717   5.948  2.1030 -1.2208 -1.6027
17830TIP3    H274906   1.930   0.628   6.069 -2.2064  1.0460 -0.4414
17831TIP3   OH274907   0.134   4.212   0.684 -0.3359  0.2820 -0.5198
17831TIP3    H174908   0.149   4.177   0.597  3.1226  0.3087 -0.0697
17831TIP3    H274909   0.146   4.138   0.743 -0.8653  0.6285  0.0429
17832TIP3   OH274910   2.958   0.595   4.907  0.0181  0.4419  0.1563
17832TIP3    H174911   2.875   0.583   4.861 -0.0421 -1.0362  0.5783
17832TIP3    H274912   2.958   0.686   4.935 -1.3227  0.5437 -0.1035
17833TIP3   OH274913   5.698   0.953   1.657 -0.0396  0.5246 -0.1217
17833TIP3    H174914   5.615   0.907   1.663  0.5227 -0.6104 -0.7661
17833TIP3    H274915   5.739   0.941   1.742 -1.0191  2.0888  0.6055
17834TIP3   OH274916   4.837   3.301  14.681  0.5745  0.1455 -0.5966
17834TIP3    H174917   4.807   3.386  14.713  2.2604  0.2092  1.0764
17834TIP3    H274918   4.931   3.314  14.666  1.4754 -1.9957  2.2544
17835TIP3   OH274919   4.804   2.181  13.820 -0.1701  0.2597 -0.4901
17835TIP3    H174920   4.878   2.181  13.759 -0.3755  1.1082 -0.7551
17835TIP3    H274921   4.758   2.263  13.802 -1.4821 -0.4909 -0.6952
17836TIP3   OH274922   3.787   1.272  11.180 -0.6887 -0.2737  0.1266
17836TIP3    H174923   3.783   1.298  11.272 -2.3799 -0.5949  0.1737
17836TIP3    H274924   3.828   1.347  11.136 -0.6805  0.2522  1.0127
17837TIP3   OH274925   6.643   3.557   4.159 -0.0593  0.2641 -0.1059
17837TIP3    H174926   6.599   3.580   4.077 -0.4251 -0.3974 -0.1017
17837TIP3    H274927   6.708   3.626   4.171  1.2768 -0.5867 -1.9223
17838TIP3   OH274928   5.101   6.213  16.551  0.1642 -0.4685  0.3636
17838TIP3    H174929   5.188   6.176  16.533  0.0228 -0.7549  0.2735
17838TIP3    H274930   5.045   6.137  16.567 -0.5114 -0.3844 -1.4186
17839TIP3   OH274931   3.758   6.135   1.124 -0.4238  0.0190  0.7092
17839TIP3    H174932   3.752   6.095   1.211  0.5615 -2.0828 -0.1296
17839TIP3    H274933   3.841   6.102   1.088 -0.2613  1.7395 -0.6196
17840TIP3   OH274934   4.195   6.445   5.264  0.2328  0.7658 -0.0036
17840TIP3    H174935   4.233   6.494   5.336 -0.9379  2.3486 -0.4140
17840TIP3    H274936   4.206   6.502   5.188 -0.3600 -0.0021 -0.6822
17841TIP3   OH274937   3.948   4.262   0.262 -0.2136 -0.4040  0.0510
17841TIP3    H174938   3.872   4.205   0.266 -0.0134 -0.6431  0.6725
17841TIP3    H274939   3.931   4.330   0.328 -2.2121  2.5601 -3.1767
17842TIP3   OH274940   6.588   4.688   3.769  0.1088 -0.0627  0.0582
17842TIP3    H174941   6.502   4.656   3.743  0.8824 -0.5332 -2.0513
17842TIP3    H274942   6.593   4.669   3.863 -1.6186 -1.0618 -0.0177
17843TIP3   OH274943   5.959   3.954   5.117  0.5586 -0.2846  0.6681
17843TIP3    H174944   5.974   3.981   5.026  0.9660  1.0962  1.1161
17843TIP3    H274945   6.046   3.932   5.150  0.5561  0.1513  0.9864
17844TIP3   OH274946   4.827   0.701   2.826  0.2865 -0.2288 -0.0774
17844TIP3    H174947   4.893   0.637   2.799 -0.0964 -0.5165 -0.3402
17844TIP3    H274948   4.849   0.722   2.917  0.4434 -0.6985 -0.0067
17845TIP3   OH274949   3.587   0.810  11.134  0.1482 -0.1493  0.2766
17845TIP3    H174950   3.537   0.881  11.174  1.1849 -0.0050  1.3911
17845TIP3    H274951   3.565   0.814  11.041  0.2215  1.6793  0.2948
17846TIP3   OH274952   0.655   0.626  14.165  0.8513  0.3537 -0.1596
17846TIP3    H174953   0.697   0.563  14.225  0.8402  0.0936 -0.4219
17846TIP3    H274954   0.639   0.576  14.085  0.7879  0.6778 -0.3519
17847TIP3   OH274955   4.394   0.872   5.285 -0.2693 -0.1607 -0.0415
17847TIP3    H174956   4.340   0.799   5.257 -0.2248  0.3539 -1.5435
17847TIP3    H274957   4.333   0.945   5.295 -0.1863 -0.1697  0.6166
17848TIP3   OH274958   2.814   4.999   2.403  0.2344 -0.2698 -0.3879
17848TIP3    H174959   2.800   4.947   2.324  1.1315 -0.7442 -0.2461
17848TIP3    H274960   2.791   4.941   2.475 -0.9348  0.2784 -0.2856
17849TIP3   OH274961   1.287   2.390   0.081 -0.1250  0.1966 -0.4008
17849TIP3    H174962   1.260   2.408   0.171  0.6351  0.6891 -0.2685
17849TIP3    H274963   1.362   2.330   0.090 -2.1361 -2.5811 -0.8055
17850TIP3   OH274964   4.711   4.608  13.234  0.3245 -0.0230  0.6975
17850TIP3    H174965   4.783   4.560  13.275  0.1180 -0.2409  0.8085
17850TIP3    H274966   4.690   4.678  13.295  0.8141  0.3834  0.4041
17851TIP3   OH274967   5.002   5.818   3.038 -0.8562 -0.1374 -0.5589
17851TIP3    H174968   5.013   5.765   3.117  0.6279  0.4749 -0.3271
17851TIP3    H274969   4.954   5.761   2.978 -2.4553 -0.4614  0.9175
17852TIP3   OH274970   4.547   3.514  12.337  0.0753  0.0870  0.1328
17852TIP3    H174971   4.498   3.538  12.258  1.1454  0.4331 -0.4532
17852TIP3    H274972   4.634   3.551  12.322  0.2507  0.2837  1.5575
17853TIP3   OH274973   2.865   3.461  13.407 -0.1042  0.1177 -0.2485
17853TIP3    H174974   2.931   3.417  13.353  1.8275  0.0334  1.9752
17853TIP3    H274975   2.821   3.390  13.453  1.8906  0.2323  2.0992
17854TIP3   OH274976   6.638   5.326  12.536  0.0838  0.7820  0.2248
17854TIP3    H174977   6.566   5.380  12.503 -3.4017 -2.9906  0.7523
17854TIP3    H274978   6.683   5.295  12.457 -2.0159 -0.4746 -0.5750
17855TIP3   OH274979   5.234   2.733   4.229 -0.1289 -1.1373 -0.0146
17855TIP3    H174980   5.287   2.782   4.294 -2.2679  1.8796 -0.3239
17855TIP3    H274981   5.246   2.782   4.148 -0.8968 -2.3249 -0.8617
17856TIP3   OH274982   6.534   0.066   2.466  0.1363 -0.5388 -0.2995
17856TIP3    H174983   6.540   0.099   2.376 -0.7131 -0.7674 -0.4512
17856TIP3    H274984   6.464   0.118   2.505  1.4755  0.5774  0.7024
17857TIP3   OH274985   2.709   3.058   3.726  0.4435 -0.1453  0.3272
17857TIP3    H174986   2.698   2.980   3.780 -2.0241  0.2574  0.5546
17857TIP3    H274987   2.649   3.045   3.653  0.6756  1.1173 -0.1121
17858TIP3   OH274988   0.276   1.007   1.779 -0.0941  0.0143 -0.0136
17858TIP3    H174989   0.274   0.914   1.756  1.0058 -0.1411  0.4374
17858TIP3    H274990   0.196   1.021   1.829 -0.3456 -0.6536 -0.2117
17859TIP3   OH274991   2.824   1.780  15.678 -0.0235  0.8995  0.7231
17859TIP3    H174992   2.843   1.699  15.630 -0.1070  0.8300  0.8064
17859TIP3    H274993   2.894   1.840  15.653  0.1409  0.7400  0.8043
17860TIP3   OH274994   0.662   5.168  13.601  0.0282 -0.1745 -0.9379
17860TIP3    H174995   0.637   5.085  13.559  2.3340 -0.7874 -1.2213
17860TIP3    H274996   0.664   5.231  13.529 -1.4247  0.1094 -0.7706
17861TIP3   OH274997   6.450   2.807   6.388 -0.2238  0.6527 -0.3513
17861TIP3    H174998   6.522   2.838   6.443 -0.8926  0.2725  0.7693
17861TIP3    H274999   6.461   2.712   6.387  0.5948  0.7313 -2.0517
17862TIP3   OH275000   1.969   5.160   5.108  0.6563  0.6087  0.0657
17862TIP3    H175001   1.919   5.185   5.030  1.1381 -0.2204 -0.5195
17862TIP3    H275002   1.904   5.122   5.167  0.2787  1.3000  0.1049
17863TIP3   OH275003   1.414   1.305   4.801 -0.5174  0.4214  0.3788
17863TIP3    H175004   1.384   1.214   4.790 -2.8671  1.2876 -1.0606
17863TIP3    H275005   1.507   1.302   4.781 -0.3404 -1.8132  1.2596
17864TIP3   OH275006   2.548   2.022  16.563  0.0091 -0.3996 -0.1426
17864TIP3    H175007   2.608   2.097  16.565 -0.3789 -0.0881  0.0011
17864TIP3    H275008   2.508   2.021  16.650 -1.6784  0.6221 -0.8426
17865TIP3   OH275009   0.684   6.033  17.214  0.2109 -0.5325 -0.5096
17865TIP3    H175010   0.708   5.957  17.266 -0.3716 -1.3502 -1.3852
17865TIP3    H275011   0.726   6.107  17.257  0.9333 -1.3750  0.2595
17866TIP3   OH275012   5.217   3.045  12.236  0.3449 -0.0750 -0.1968
17866TIP3    H175013   5.308   3.070  12.218  0.4723 -0.0746  0.4375
17866TIP3    H275014   5.170   3.128  12.238  0.1111 -0.1457 -1.6598
17867TIP3   OH275015   4.340   2.171   3.117  0.7437  0.1221 -0.3948
17867TIP3    H175016   4.326   2.077   3.105  2.4897 -0.4329  1.3703
17867TIP3    H275017   4.266   2.199   3.171  0.7980 -0.4962  0.0113
17868TIP3   OH275018   5.552   0.100  16.673 -0.0377 -0.1369  0.0761
17868TIP3    H175019   5.642   0.071  16.689  0.1668  1.0461  1.2507
17868TIP3    H275020   5.561   0.182  16.625 -0.5034 -0.2478 -0.2064
17869TIP3   OH275021   0.123   1.682   1.667  0.6089 -0.2618  0.1899
17869TIP3    H175022   0.162   1.748   1.723 -2.5793  0.4234  1.8294
17869TIP3    H275023   0.093   1.730   1.590  0.1569 -0.1366  0.4351
17870TIP3   OH275024   4.322   4.993   5.330 -0.0652  0.0767  0.0190
17870TIP3    H175025   4.288   4.905   5.348 -1.5615  0.2747 -1.5538
17870TIP3    H275026   4.322   5.036   5.415  1.1303 -1.5461  0.9068
17871TIP3   OH275027   3.985   3.841   4.146  0.4401  0.0812  0.1365
17871TIP3    H175028   4.017   3.751   4.145  0.8186  0.2140  0.0063
17871TIP3    H275029   3.964   3.858   4.238  0.2319 -0.1848  0.1387
17872TIP3   OH275030   5.564   4.360   5.824 -0.4400 -0.4878 -0.7564
17872TIP3    H175031   5.493   4.422   5.844 -0.2098 -0.5431  0.2776
17872TIP3    H275032   5.554   4.291   5.889  0.1581 -0.8359 -1.0285
17873TIP3   OH275033   3.485   1.093  12.896 -0.5293 -0.0702 -0.3838
17873TIP3    H175034   3.456   1.180  12.924  0.5291 -0.2212  1.3322
17873TIP3    H275035   3.417   1.034  12.928 -0.7035  0.0168 -0.5890
17874TIP3   OH275036   1.282   4.432   5.197 -0.2824 -0.1641  0.4348
17874TIP3    H175037   1.239   4.348   5.214  0.0869 -0.0999  1.8083
17874TIP3    H275038   1.209   4.495   5.191 -0.4810 -0.3451  0.9136
17875TIP3   OH275039   3.737   4.743  14.643  0.2503 -0.1385  0.2272
17875TIP3    H175040   3.790   4.727  14.721 -0.3343 -0.2072  0.6225
17875TIP3    H275041   3.725   4.838  14.641 -0.7439 -0.2218  0.9291
17876TIP3   OH275042   4.660   3.616   5.297 -0.2725  0.0082  0.2645
17876TIP3    H175043   4.604   3.541   5.279  0.6722 -0.8507  0.8457
17876TIP3    H275044   4.671   3.616   5.392 -2.0326  2.1975  0.5817
17877TIP3   OH275045   3.349   4.140  12.629 -0.4824 -0.0925 -0.1081
17877TIP3    H175046   3.354   4.233  12.650 -1.2513 -0.3720  1.4412
17877TIP3    H275047   3.306   4.137  12.544 -2.0640  0.9288  0.6149
17878TIP3   OH275048   1.445   3.226   2.726  0.1254  0.3375  0.7518
17878TIP3    H175049   1.478   3.309   2.692 -0.4124  0.8187  1.3632
17878TIP3    H275050   1.513   3.196   2.786  0.2787  0.3840  0.6034
17879TIP3   OH275051   3.353   0.726   0.526  0.8873  0.1957 -0.0984
17879TIP3    H175052   3.359   0.640   0.567 -1.3456 -0.6535 -1.3658
17879TIP3    H275053   3.407   0.720   0.447 -2.3147 -1.5707 -2.3921
17880TIP3   OH275054   0.628   6.193   2.256 -0.3400 -0.4101  0.1550
17880TIP3    H175055   0.718   6.223   2.267 -0.2429 -1.0159  1.1308
17880TIP3    H275056   0.584   6.266   2.212  0.4116  0.2502  0.4662
17881TIP3   OH275057   2.786   2.415  14.075 -0.1698  0.7655 -0.2016
17881TIP3    H175058   2.831   2.474  14.015  1.0939 -0.2109 -0.2735
17881TIP3    H275059   2.700   2.454  14.088 -1.2596  0.0980 -4.1286
17882TIP3   OH275060   2.345   0.914  13.489 -0.1218  0.1839 -0.3909
17882TIP3    H175061   2.419   0.871  13.532  1.3744  1.8364 -1.2041
17882TIP3    H275062   2.368   0.915  13.396 -0.7564  1.4943 -0.5548
17883TIP3   OH275063   6.000   5.541   4.857 -0.4933  0.4634 -0.1517
17883TIP3    H175064   6.091   5.544   4.828 -0.3597  1.0736  0.3218
17883TIP3    H275065   5.961   5.470   4.805  0.3522 -0.0983 -0.0439
17884TIP3   OH275066   3.801   1.909  15.920 -0.0144  0.2097 -0.1953
17884TIP3    H175067   3.786   1.986  15.864 -0.3531  1.0126  0.9528
17884TIP3    H275068   3.839   1.844  15.861 -0.8567  0.8260 -1.4801
17885TIP3   OH275069   0.650   4.070  15.863 -0.1286  0.1540  0.3106
17885TIP3    H175070   0.629   4.028  15.946  2.5593 -0.7581  0.6526
17885TIP3    H275071   0.627   4.005  15.796  2.2687 -1.2358  0.7283
17886TIP3   OH275072   3.490   1.223  14.484  0.5125 -0.1389  0.0037
17886TIP3    H175073   3.540   1.164  14.428  0.9781  0.9032 -0.7223
17886TIP3    H275074   3.452   1.167  14.550  0.2411 -1.3699 -1.1531
17887TIP3   OH275075   5.531   0.304   2.828  0.6926  0.1363  0.2284
17887TIP3    H175076   5.570   0.353   2.755 -0.8511 -0.2092 -0.8756
17887TIP3    H275077   5.453   0.353   2.851  0.1593 -0.7737  0.3926
17888TIP3   OH275078   5.449   2.736   3.651  0.5364  0.0148  0.1671
17888TIP3    H175079   5.420   2.724   3.560 -0.7565  2.9760  0.0517
17888TIP3    H275080   5.433   2.652   3.692 -0.1511 -1.0151 -2.0319
17889TIP3   OH275081   4.974   3.151   1.571 -0.6010  0.0908  0.6861
17889TIP3    H175082   5.011   3.188   1.491  0.1692  0.2402  1.0918
17889TIP3    H275083   4.880   3.157   1.559 -0.4984  1.0526  0.2112
17890TIP3   OH275084   0.409   1.100   1.544 -0.2850 -0.4283  0.0849
17890TIP3    H175085   0.325   1.089   1.499 -0.3158 -2.0453  0.4516
17890TIP3    H275086   0.392   1.069   1.633  0.7481 -0.9812  0.1064
17891TIP3   OH275087   2.296   3.743  15.154  0.2988 -0.6277 -0.3339
17891TIP3    H175088   2.374   3.715  15.202 -1.0032 -1.1594  1.5803
17891TIP3    H275089   2.288   3.681  15.081  0.1556 -2.3328  1.0623
17892TIP3   OH275090   2.811   5.805  11.220  0.5272  0.4610 -0.5465
17892TIP3    H175091   2.852   5.783  11.136 -1.0358  0.1639 -1.2563
17892TIP3    H275092   2.883   5.801  11.283  1.1449 -2.8504 -1.2452
17893TIP3   OH275093   6.683   4.860   5.297  0.2274 -0.1460  0.0484
17893TIP3    H175094   6.740   4.862   5.374 -0.0143  3.5773  0.2820
17893TIP3    H275095   6.675   4.951   5.270 -2.9994 -0.8533 -1.9567
17894TIP3   OH275096   5.684   2.112  15.583  0.1799  0.6481 -0.3009
17894TIP3    H175097   5.721   2.160  15.657  0.6455  0.8244 -0.6438
17894TIP3    H275098   5.760   2.087  15.530 -0.1644  0.7556 -0.8550
17895TIP3   OH275099   4.167   0.918   0.104  0.3992  0.1482 -0.2148
17895TIP3    H175100   4.124   0.883   0.027 -0.7156  1.5246 -0.2653
17895TIP3    H275101   4.260   0.905   0.087  0.0788 -2.0700 -0.5126
17896TIP3   OH275102   2.902   3.848  11.196  0.4369 -0.8382  0.2964
17896TIP3    H175103   2.903   3.943  11.202  1.6572 -0.8661  1.0309
17896TIP3    H275104   2.887   3.818  11.286  0.9209 -1.3282  0.2218
17897TIP3   OH275105   2.124   1.899   3.735  0.1591  0.1440  0.2090
17897TIP3    H175106   2.108   1.808   3.709  0.9217 -0.0383  0.3755
17897TIP3    H275107   2.045   1.946   3.705 -0.7095 -0.7380  1.0366
17898TIP3   OH275108   3.140   1.739  16.059 -0.1384  0.5193  0.0564
17898TIP3    H175109   3.071   1.691  16.013 -0.4009  1.4598 -0.5697
17898TIP3    H275110   3.197   1.671  16.094 -1.4303 -0.2933  0.6743
17899TIP3   OH275111   4.212   4.882  14.238  0.8346 -0.6268 -0.6832
17899TIP3    H175112   4.143   4.892  14.171  0.5711 -0.8048 -0.4420
17899TIP3    H275113   4.291   4.917  14.196  0.4175  0.4049 -0.6511
17900TIP3   OH275114   3.298   0.006  13.728  0.0590  0.2413  0.2112
17900TIP3    H175115   3.224   0.030  13.672 -0.3851 -0.0482  0.6634
17900TIP3    H275116   3.276  -0.081  13.761 -0.0667  0.7147  1.4448
17901TIP3   OH275117   0.442   0.122   3.708  0.0273 -0.4097  0.0830
17901TIP3    H175118   0.396   0.129   3.625 -2.3829 -1.0959  1.2703
17901TIP3    H275119   0.505   0.194   3.707  0.3377 -0.6327 -2.4388
17902TIP3   OH275120   5.481   4.502  13.061  0.1527 -0.6574  0.3588
17902TIP3    H175121   5.406   4.444  13.044  0.0879 -0.2635 -0.7155
17902TIP3    H275122   5.541   4.487  12.988 -0.6876  1.9632 -0.9924
17903TIP3   OH275123   5.097   5.942   5.047  0.6773 -0.8099 -0.2314
17903TIP3    H175124   5.077   6.035   5.045  0.4677 -0.7262  2.2891
17903TIP3    H275125   5.191   5.939   5.069  0.8158 -1.1885 -0.8756
17904TIP3   OH275126   1.976   1.004  12.008  0.2997  0.5600 -0.0373
17904TIP3    H175127   1.908   1.025  12.072  0.6360  0.2847  0.4133
17904TIP3    H275128   2.047   1.066  12.027  0.1841  0.8465 -0.5065
17905TIP3   OH275129   4.199   4.441  12.904  0.0449  0.9022 -0.1019
17905TIP3    H175130   4.110   4.434  12.938  0.3750 -0.2393  0.5861
17905TIP3    H275131   4.240   4.509  12.957  0.2605 -0.1903  1.1915
17906TIP3   OH275132   1.241   1.406  12.686  0.0793  0.2171 -0.2387
17906TIP3    H175133   1.198   1.492  12.679 -1.9013 -0.7640 -1.0308
17906TIP3    H275134   1.234   1.369  12.598  0.5898 -0.9058  0.1792
17907TIP3   OH275135   1.082   1.691  12.856 -0.4399 -0.9000 -0.0817
17907TIP3    H175136   1.007   1.640  12.887  0.4080 -2.7853 -0.9669
17907TIP3    H275137   1.091   1.667  12.764  0.8504 -0.1917 -0.1681
17908TIP3   OH275138   1.407   0.694  16.664 -0.0755  0.3095  0.8050
17908TIP3    H175139   1.466   0.714  16.736  0.4477  2.8655 -0.2286
17908TIP3    H275140   1.389   0.601  16.673  0.2231  0.4520  4.0171
17909TIP3   OH275141   5.959   1.807  14.405  0.0933 -0.5239  0.2122
17909TIP3    H175142   6.006   1.759  14.473  2.4625 -0.7402 -1.4367
17909TIP3    H275143   6.019   1.808  14.331 -0.5842  3.3922 -0.5094
17910TIP3   OH275144   5.907   1.436   3.645  0.0758  0.3590  0.1239
17910TIP3    H175145   5.834   1.432   3.706  0.0881 -0.1126  0.1083
17910TIP3    H275146   5.969   1.370   3.677 -0.4103 -0.6941 -1.0351
17911TIP3   OH275147   2.098   1.808  11.958  0.8400  0.2925  0.0944
17911TIP3    H175148   2.060   1.834  12.042 -0.2783  2.7379 -1.0603
17911TIP3    H275149   2.155   1.735  11.979  0.5739  0.7962  2.9736
17912TIP3   OH275150   1.339   1.175  14.854  0.0375  0.1064 -0.1322
17912TIP3    H175151   1.390   1.255  14.843  0.3194 -0.1298 -0.5665
17912TIP3    H275152   1.391   1.122  14.916  1.0763 -0.7369 -1.6422
17913TIP3   OH275153   0.312   3.248  12.880  0.3084  0.1032 -0.5480
17913TIP3    H175154   0.322   3.261  12.786  3.1601 -1.3248 -0.5485
17913TIP3    H275155   0.377   3.305  12.920  1.5023 -1.7128  0.2762
17914TIP3   OH275156   4.120   6.685   4.555  0.4214  0.4898  0.0756
17914TIP3    H175157   4.209   6.719   4.561  1.8947 -2.5015 -1.9549
17914TIP3    H275158   4.109   6.633   4.635  1.3960 -0.7893 -0.5689
17915TIP3   OH275159   1.298   6.300  16.473  0.0586 -0.0819  0.2355
17915TIP3    H175160   1.251   6.240  16.414 -1.5373  0.6831  0.6813
17915TIP3    H275161   1.353   6.243  16.526  0.2008 -0.9487 -0.7981
17916TIP3   OH275162   0.001   4.536  14.297  0.0144  0.2865 -0.0545
17916TIP3    H175163  -0.025   4.444  14.291  0.6410  0.0682  0.4747
17916TIP3    H275164   0.040   4.544  14.384  2.9660  0.2834 -1.2527
17917TIP3   OH275165   6.281   6.468   4.768 -0.1847 -0.2476 -0.4827
17917TIP3    H175166   6.360   6.459   4.821 -1.7133 -2.8917  1.6799
17917TIP3    H275167   6.312   6.484   4.679  2.6575  0.8609  0.6037
17918TIP3   OH275168   3.691   5.527   2.354 -0.0356 -0.0367  0.3912
17918TIP3    H175169   3.657   5.478   2.429 -4.3388  1.3283 -0.3424
17918TIP3    H275170   3.662   5.617   2.370  1.4708  0.8654 -1.5994
17919TIP3   OH275171   6.069   2.302  11.343  0.5061 -0.0116  0.0764
17919TIP3    H175172   6.088   2.268  11.255 -0.7323  1.1416 -0.6670
17919TIP3    H275173   5.974   2.291  11.353  0.5200  0.5918  0.9487
17920TIP3   OH275174   0.678   6.652  17.274 -0.1356 -0.6099 -0.5308
17920TIP3    H175175   0.619   6.710  17.225  1.6325  1.5567 -0.2798
17920TIP3    H275176   0.762   6.661  17.229  0.6140 -1.5835  0.6173
17921TIP3   OH275177   4.745   1.874   3.968 -0.7914  0.2506 -0.0004
17921TIP3    H175178   4.686   1.853   4.040  0.1496 -1.1607  0.4014
17921TIP3    H275179   4.756   1.969   3.973 -1.1083  0.2330  1.4176
17922TIP3   OH275180   2.384   0.942   4.883 -0.4138 -0.2431 -0.1708
17922TIP3    H175181   2.370   1.034   4.905 -0.5457 -0.4968  0.8472
17922TIP3    H275182   2.399   0.942   4.788  0.8075  0.9731 -0.0120
17923TIP3   OH275183   4.367   0.068   2.650 -0.0882  0.4177 -0.5559
17923TIP3    H175184   4.375   0.147   2.597  2.0686 -0.5644 -1.8273
17923TIP3    H275185   4.408  -0.000   2.598 -1.6646 -1.5210  0.6159
17924TIP3   OH275186   3.837   1.778  14.470 -0.1940  0.2430 -0.4970
17924TIP3    H175187   3.839   1.874  14.466 -0.8947  0.3183  0.4719
17924TIP3    H275188   3.743   1.757  14.471 -0.0406 -0.4224 -0.2197
17925TIP3   OH275189   6.712   2.179  16.242 -0.3539  1.2571 -0.0776
17925TIP3    H175190   6.692   2.162  16.150 -0.4915 -2.5932  0.5079
17925TIP3    H275191   6.627   2.200  16.281 -0.2979  2.8984 -0.7357
17926TIP3   OH275192   6.102   3.213  10.829 -0.0787 -0.2542 -0.8807
17926TIP3    H175193   6.048   3.222  10.907 -0.3650  0.0477 -1.1130
17926TIP3    H275194   6.168   3.148  10.853  0.4829  0.5909 -0.0198
17927TIP3   OH275195   3.306   4.028   0.152 -0.0020  0.4039  0.3864
17927TIP3    H175196   3.378   3.994   0.099  0.2842  1.0767  0.3202
17927TIP3    H275197   3.343   4.106   0.194 -1.1634  1.7290 -0.9361
17928TIP3   OH275198   0.317   3.450  11.236 -0.7111  0.2700  0.4351
17928TIP3    H175199   0.284   3.518  11.178 -0.9292  0.1468  0.4149
17928TIP3    H275200   0.323   3.372  11.181 -0.3486  0.2997  0.4268
17929TIP3   OH275201   5.414   0.762  15.904  0.2770 -0.2756 -0.1539
17929TIP3    H175202   5.360   0.691  15.940  2.0689 -1.6433  0.0071
17929TIP3    H275203   5.438   0.814  15.980 -1.6554  1.0253 -0.3613
17930TIP3   OH275204   0.978   0.825   5.157 -0.2387 -0.4491 -0.1841
17930TIP3    H175205   0.901   0.769   5.144 -0.8968  0.7466 -1.7891
17930TIP3    H275206   0.968   0.858   5.247 -0.3433 -2.1041  0.4411
17931TIP3   OH275207   3.694   2.641  16.372  0.2104 -0.1218  0.5524
17931TIP3    H175208   3.697   2.701  16.446  4.7999  0.0540  0.4798
17931TIP3    H275209   3.729   2.691  16.299 -0.6098 -1.4535 -0.8039
17932TIP3   OH275210   1.098   0.481  12.381  0.4606  0.4795  0.2939
17932TIP3    H175211   1.158   0.519  12.445 -0.3556  0.9009  0.8257
17932TIP3    H275212   1.155   0.445  12.313  1.3444  0.0180  1.2541
17933TIP3   OH275213   1.492   3.518  12.410  0.5417  0.3384  0.3302
17933TIP3    H175214   1.460   3.496  12.497 -0.6602  0.6408 -0.0198
17933TIP3    H275215   1.468   3.610  12.398  2.4284  0.8763  0.4233
17934TIP3   OH275216   5.618   0.420  14.522  0.3835  0.1370  0.2136
17934TIP3    H175217   5.604   0.427  14.616 -1.1546  1.0121 -0.0483
17934TIP3    H275218   5.537   0.382  14.488  0.7876  0.1329 -0.7915
17935TIP3   OH275219   1.219   1.906  13.224 -0.6176  0.0791 -0.2299
17935TIP3    H175220   1.188   1.824  13.186 -0.2870  0.0272 -0.3896
17935TIP3    H275221   1.294   1.931  13.171 -0.0441 -0.0796  0.4931
17936TIP3   OH275222   6.144   0.390   5.636 -0.0983  0.3376 -0.0337
17936TIP3    H175223   6.091   0.409   5.713  2.8430 -0.2163  2.3060
17936TIP3    H275224   6.088   0.334   5.582 -1.9696 -0.0889  2.1665
17937TIP3   OH275225   3.027   6.411   4.873 -0.8929  0.1541 -0.3381
17937TIP3    H175226   2.988   6.497   4.890  0.7981  0.6592  1.3133
17937TIP3    H275227   3.104   6.408   4.930 -0.0710 -1.8786 -1.4638
17938TIP3   OH275228   6.439   0.050  11.182 -0.1972  0.4164 -0.2633
17938TIP3    H175229   6.471  -0.038  11.201  0.1679  0.8889  1.4107
17938TIP3    H275230   6.344   0.044  11.194 -0.3052  0.0282 -1.1743
17939TIP3   OH275231   4.470   1.120   0.109  0.1097  0.0342 -0.1373
17939TIP3    H175232   4.558   1.096   0.080  0.6786  1.6256  0.1585
17939TIP3    H275233   4.413   1.099   0.035  0.6152 -1.5821 -0.1111
17940TIP3   OH275234   2.409   6.333   5.816  0.0958 -0.4394  0.4090
17940TIP3    H175235   2.464   6.411   5.826 -0.3585  0.3905 -2.6980
17940TIP3    H275236   2.429   6.300   5.729 -2.7576 -1.3647 -0.0057
17941TIP3   OH275237   0.953   1.970  17.303 -0.5842  0.4009 -0.4210
17941TIP3    H175238   0.940   1.936  17.215  0.5652  0.2680 -0.5595
17941TIP3    H275239   0.938   2.064  17.296  2.6025  0.9573 -1.5271
17942TIP3   OH275240   0.246   4.053   1.593 -0.0615 -1.1849 -0.5170
17942TIP3    H175241   0.297   3.987   1.545 -0.3196 -1.1115 -0.8943
17942TIP3    H275242   0.173   4.004   1.630 -0.0490 -1.1802 -0.4869
17943TIP3   OH275243   1.696   5.335   6.721  0.0946 -0.3622  0.3463
17943TIP3    H175244   1.781   5.293   6.709 -0.3185 -0.7757 -1.4135
17943TIP3    H275245   1.640   5.265   6.757 -0.1693 -0.8769 -1.0243
17944TIP3   OH275246   1.305   0.153   3.661  0.2382 -0.1597 -0.3752
17944TIP3    H175247   1.320   0.183   3.751 -0.4115 -1.7676  0.3015
17944TIP3    H275248   1.392   0.136   3.626  0.4188 -2.3283  0.9771
17945TIP3   OH275249   4.787   3.544  15.703 -0.4307 -0.3569  0.0187
17945TIP3    H175250   4.693   3.539  15.721 -0.4719 -0.4707 -0.2112
17945TIP3    H275251   4.800   3.485  15.628  0.2463 -2.3759  1.6423
17946TIP3   OH275252   2.123   5.188   1.782  0.2611  0.5913 -0.5069
17946TIP3    H175253   2.057   5.198   1.713 -0.5291 -0.3791  0.0783
17946TIP3    H275254   2.117   5.096   1.808  3.1253 -0.0344 -1.6750
17947TIP3   OH275255   0.387   0.225   1.216  0.3485 -0.5400 -0.0254
17947TIP3    H175256   0.433   0.281   1.153 -0.0658  1.2295  1.1723
17947TIP3    H275257   0.414   0.136   1.193  3.2220  0.3074 -0.3089
17948TIP3   OH275258   1.538   5.440  12.789  0.1450  0.0220  0.1427
17948TIP3    H175259   1.516   5.352  12.758  3.9244 -1.1460  0.2537
17948TIP3    H275260   1.515   5.497  12.716 -0.3871 -1.3557 -0.8272
17949TIP3   OH275261   2.945   3.864  11.811 -0.2875 -0.0452  0.3597
17949TIP3    H175262   2.881   3.838  11.877  1.3809  1.4994  2.7585
17949TIP3    H275263   2.934   3.959  11.803  1.8730  0.3042  1.0830
17950TIP3   OH275264   0.847   0.186   0.609  0.7970 -0.0354 -0.1959
17950TIP3    H175265   0.937   0.154   0.605  0.7790 -0.0549 -0.4519
17950TIP3    H275266   0.820   0.196   0.517  0.6560  0.3000 -0.1230
17951TIP3   OH275267   5.690   1.485  17.228 -1.0926  0.1584  0.2753
17951TIP3    H175268   5.604   1.487  17.186  0.5211  0.0286 -3.4211
17951TIP3    H275269   5.744   1.542  17.173  0.7173  2.2117  3.8573
17952TIP3   OH275270   4.984   2.170   2.308 -0.0920  0.3304  0.3133
17952TIP3    H175271   5.009   2.089   2.353  1.8426  0.5559 -0.2662
17952TIP3    H275272   5.045   2.177   2.235  0.0777  2.5339  0.5934
17953TIP3   OH275273   2.297   0.153  12.420 -0.1876 -0.1793 -0.7216
17953TIP3    H175274   2.353   0.076  12.414 -1.3426 -1.1308  0.1060
17953TIP3    H275275   2.226   0.135  12.358 -0.5618  0.1201 -0.3829
17954TIP3   OH275276   5.292   3.895   0.630 -0.3026 -0.1922 -0.0013
17954TIP3    H175277   5.273   3.938   0.713 -0.8510 -0.9915  0.2971
17954TIP3    H275278   5.206   3.885   0.588 -0.3978 -2.2400  0.5671
17955TIP3   OH275279   2.267   3.585  15.432 -0.3602 -0.2936  0.1076
17955TIP3    H175280   2.270   3.645  15.507 -1.0045  0.5553 -0.5291
17955TIP3    H275281   2.357   3.584  15.399 -0.2596  0.0073  0.3634
17956TIP3   OH275282   0.900   2.013  14.846  0.1607 -0.3606 -0.4066
17956TIP3    H175283   0.927   1.985  14.933 -0.9529 -2.0724 -0.5648
17956TIP3    H275284   0.827   1.956  14.824  1.3072 -0.9606 -3.0294
17957TIP3   OH275285   3.048   6.395  17.113  0.2394 -0.2247  0.4625
17957TIP3    H175286   2.955   6.371  17.119  0.0753  0.3605  0.3276
17957TIP3    H275287   3.091   6.340  17.179 -0.3882  0.3977  1.4128
17958TIP3   OH275288   3.370   4.537  16.989  0.3244  0.2507  0.5231
17958TIP3    H175289   3.306   4.505  17.053 -0.3766  0.8408  0.1311
17958TIP3    H275290   3.434   4.466  16.983 -0.9057 -0.8805  0.0694
17959TIP3   OH275291   2.138   2.170   4.085  0.6374  0.4235 -0.2604
17959TIP3    H175292   2.176   2.246   4.129  1.3667 -0.0651 -0.0379
17959TIP3    H275293   2.059   2.204   4.043  1.9750  1.7315 -1.8065
17960TIP3   OH275294   5.351   1.187   0.062  0.2642 -0.0679 -0.0892
17960TIP3    H175295   5.263   1.150   0.056  0.2465 -0.0505  0.0462
17960TIP3    H275296   5.377   1.172   0.153 -0.3270  1.5568  0.3842
17961TIP3   OH275297   1.835   1.920   3.079  0.2639  0.1819 -0.6896
17961TIP3    H175298   1.794   1.887   3.160 -1.6849  0.6445 -1.4408
17961TIP3    H275299   1.769   1.905   3.011  0.8053  2.2070 -1.7297
17962TIP3   OH275300   6.342   3.543   1.259 -0.0906  0.4543  0.0372
17962TIP3    H175301   6.361   3.637   1.264  1.4929  0.1112  1.8392
17962TIP3    H275302   6.248   3.536   1.270 -0.1262  1.7976  0.7258
17963TIP3   OH275303   6.654   5.463  15.646 -0.1612 -0.1991 -0.5215
17963TIP3    H175304   6.730   5.405  15.642 -0.6035 -1.1660  2.5272
17963TIP3    H275305   6.680   5.540  15.595  2.1759 -1.1796 -0.9601
17964TIP3   OH275306   4.182   1.217   1.663 -0.2019  0.1996 -0.2788
17964TIP3    H175307   4.267   1.175   1.672 -0.8504 -1.2706 -0.7654
17964TIP3    H275308   4.187   1.263   1.579 -1.1815 -3.2152 -2.3893
17965TIP3   OH275309   2.221   3.263  13.027  0.5348 -0.9304 -0.4065
17965TIP3    H175310   2.231   3.215  13.109 -1.3342  0.3104  0.6356
17965TIP3    H275311   2.137   3.233  12.992 -0.1745  0.7589 -0.2435
17966TIP3   OH275312   3.024   1.338   2.837 -0.1020  0.7292  0.2382
17966TIP3    H175313   3.115   1.343   2.809 -0.4540  0.4672 -0.9915
17966TIP3    H275314   2.992   1.428   2.832  0.0993  0.8360  0.7572
17967TIP3   OH275315   4.191   4.117   0.269 -0.0794  0.3065 -0.3589
17967TIP3    H175316   4.141   4.149   0.194 -1.3736  1.6995  1.0399
17967TIP3    H275317   4.210   4.195   0.321  0.8043 -0.6195  0.7716
17968TIP3   OH275318   5.969   2.497  15.577 -0.6523  0.3028 -0.2516
17968TIP3    H175319   5.984   2.402  15.576 -0.8752  0.2619 -1.0794
17968TIP3    H275320   6.056   2.535  15.562 -0.6694  0.2014 -0.6268
17969TIP3   OH275321   6.371   0.920  15.997  0.4313 -0.4042  0.0277
17969TIP3    H175322   6.462   0.893  16.011 -0.1272 -1.9883  0.7819
17969TIP3    H275323   6.363   0.930  15.902  1.4007 -0.1354 -0.0366
17970TIP3   OH275324   3.777   4.137  14.580 -0.4384  0.7367 -0.5297
17970TIP3    H175325   3.845   4.073  14.602 -0.9192  0.1527 -0.7355
17970TIP3    H275326   3.826   4.215  14.553  0.1513  0.7003  0.4045
17971TIP3   OH275327   5.164   2.472  13.811 -0.7103 -0.0351 -0.0817
17971TIP3    H175328   5.104   2.498  13.741 -0.4136 -0.0584 -0.3461
17971TIP3    H275329   5.251   2.488  13.775 -0.5415  2.7249  1.2886
17972TIP3   OH275330   3.956   4.370  15.352 -0.8495 -0.0896 -0.0771
17972TIP3    H175331   3.895   4.311  15.309 -1.7460  1.5345 -1.1100
17972TIP3    H275332   3.901   4.434  15.396  0.1025  0.6907  0.0048
17973TIP3   OH275333   4.653   6.208   5.398  0.0763  0.1593 -0.6482
17973TIP3    H175334   4.635   6.278   5.334 -2.1342 -0.1762 -0.4572
17973TIP3    H275335   4.577   6.209   5.457  0.7845 -1.3417  0.3372
17974TIP3   OH275336   2.593   1.085  11.876 -0.4215  0.7850 -0.6899
17974TIP3    H175337   2.502   1.116  11.877 -0.5952  0.2754  0.2020
17974TIP3    H275338   2.602   1.035  11.957  1.2667  2.5828  0.3053
17975TIP3   OH275339   3.193   3.358  11.051 -0.2715  0.8829  0.3932
17975TIP3    H175340   3.185   3.428  10.987 -0.0313  0.1343 -0.4745
17975TIP3    H275341   3.284   3.363  11.080 -0.0980  0.5894 -0.0837
17976TIP3   OH275342   6.745   0.768   4.896 -0.8129  0.1232  0.3487
17976TIP3    H175343   6.672   0.759   4.834 -0.0204 -0.0776 -0.5801
17976TIP3    H275344   6.786   0.851   4.872  0.3306 -0.6155 -0.3157
17977TIP3   OH275345   4.536   3.424   2.436 -0.1115 -0.6376 -0.2350
17977TIP3    H175346   4.495   3.449   2.353  0.6808  3.6097  0.4172
17977TIP3    H275347   4.612   3.372   2.410 -0.2175  0.0722 -2.1657
17978TIP3   OH275348   1.202   1.590  14.414 -0.2863  0.3133  0.2067
17978TIP3    H175349   1.110   1.602  14.390 -0.0995 -0.9954 -1.3866
17978TIP3    H275350   1.200   1.523  14.482 -0.5168  0.2986  0.1865
17979TIP3   OH275351   2.976   0.105  16.771 -0.1793  0.5355  0.1081
17979TIP3    H175352   2.986   0.108  16.866 -1.7016 -1.1305  0.3723
17979TIP3    H275353   3.014   0.021  16.745  0.8881  1.2843 -0.8974
17980TIP3   OH275354   0.888   1.928   4.157 -0.2252  1.4904  0.6002
17980TIP3    H175355   0.942   1.926   4.078  1.2712 -1.2463  1.5579
17980TIP3    H275356   0.798   1.928   4.124  0.3670  0.3700 -1.1548
17981TIP3   OH275357   0.411   3.668   1.587  0.2713  0.2221 -0.1785
17981TIP3    H175358   0.433   3.721   1.663 -0.5328 -0.4392  0.5327
17981TIP3    H275359   0.358   3.725   1.531 -2.5683 -0.4257  1.6436
17982TIP3   OH275360   6.442   1.796   2.812  0.1151 -0.2219  0.6104
17982TIP3    H175361   6.412   1.866   2.871 -0.7859 -0.1364  0.0800
17982TIP3    H275362   6.406   1.716   2.849  0.8022 -0.3623  0.9900
17983TIP3   OH275363   5.216   5.760  11.943  0.2558  0.0584  0.7004
17983TIP3    H175364   5.218   5.724  12.031 -1.6553  3.1813  2.2087
17983TIP3    H275365   5.301   5.804  11.934  0.1822  0.3319  1.2870
17984TIP3   OH275366   6.578   6.089   0.222 -0.7101  0.3970  0.3010
17984TIP3    H175367   6.564   6.176   0.184  0.6969 -0.1919 -1.7486
17984TIP3    H275368   6.623   6.106   0.305 -0.6148  1.6451  0.0177
17985TIP3   OH275369   1.210   1.059   5.507 -0.3911  0.1492  0.1660
17985TIP3    H175370   1.142   1.017   5.454 -2.0913  1.4691  1.1822
17985TIP3    H275371   1.292   1.019   5.477 -1.5142 -0.9460 -1.6689
17986TIP3   OH275372   3.468   3.585   2.936  0.9337  0.0705  0.1447
17986TIP3    H175373   3.438   3.582   2.846 -0.0340  0.7601  0.4304
17986TIP3    H275374   3.456   3.677   2.962  2.4933  0.1912  0.5516
17987TIP3   OH275375   5.604   5.117   0.106  0.1215 -0.1062  0.3975
17987TIP3    H175376   5.651   5.116   0.190 -0.8002  0.0443  0.9314
17987TIP3    H275377   5.521   5.161   0.125 -2.5783 -4.6873  0.8335
17988TIP3   OH275378   3.831   4.012   1.258 -0.5348  0.5291  0.1819
17988TIP3    H175379   3.762   3.968   1.307  1.4588 -0.2354  2.5145
17988TIP3    H275380   3.911   3.965   1.282  1.1733  3.0237 -0.2543
17989TIP3   OH275381   0.098   3.300   1.933  0.9074 -0.1572 -0.3105
17989TIP3    H175382   0.148   3.371   1.895  0.8683  0.9245  1.5442
17989TIP3    H275383   0.136   3.287   2.020 -1.0524 -0.2798  0.5894
17990TIP3   OH275384   0.759   0.505  13.822 -0.3223 -0.4220  0.1760
17990TIP3    H175385   0.817   0.529  13.894 -0.7431  1.5510 -0.0876
17990TIP3    H275386   0.816   0.497  13.746 -0.1334 -0.5167  0.3292
17991TIP3   OH275387   5.265   6.427   1.078 -0.3336  0.5246  0.1143
17991TIP3    H175388   5.176   6.462   1.075 -0.7852 -0.6279 -0.4437
17991TIP3    H275389   5.317   6.490   1.028 -1.2192  0.1853 -1.3057
17992TIP3   OH275390   5.608   0.845   4.405 -0.6879 -0.2640  0.1725
17992TIP3    H175391   5.626   0.837   4.311 -0.1548 -3.2816  0.4192
17992TIP3    H275392   5.689   0.881   4.442  0.5753 -2.5552 -0.1608
17993TIP3   OH275393   1.130   4.136   2.816 -0.5389  0.3124 -0.1457
17993TIP3    H175394   1.143   4.230   2.827  2.0749 -0.2101  2.6531
17993TIP3    H275395   1.218   4.101   2.806 -1.4140 -1.9085 -0.5576
17994TIP3   OH275396   0.562   0.849   0.270 -0.6318  0.4597  0.1460
17994TIP3    H175397   0.654   0.875   0.275 -0.7645  0.9467  0.1161
17994TIP3    H275398   0.561   0.777   0.208 -0.0218 -0.7203  1.4388
17995TIP3   OH275399   2.207   1.429  12.598  0.0975 -0.3607  0.6823
17995TIP3    H175400   2.215   1.351  12.653 -0.0985 -0.3629  0.7085
17995TIP3    H275401   2.290   1.433  12.550 -0.7463 -1.9485 -1.0897
17996TIP3   OH275402   6.353   6.008  13.221  0.1897  0.7846 -0.8699
17996TIP3    H175403   6.330   5.942  13.156 -0.5594 -0.0154  0.1725
17996TIP3    H275404   6.283   6.003  13.286 -0.5822  3.4750 -1.3579
17997TIP3   OH275405   2.028   6.355   2.961 -0.2263  0.6711 -0.0321
17997TIP3    H175406   2.096   6.389   2.903  0.8528  0.4994  1.0866
17997TIP3    H275407   1.990   6.282   2.913  2.4524 -1.2064  0.4314
17998TIP3   OH275408   2.169   3.436   1.810  0.3270  0.3157 -0.2581
17998TIP3    H175409   2.177   3.367   1.877 -0.9727  0.1803 -0.2209
17998TIP3    H275410   2.148   3.389   1.730 -1.0485  0.6855 -0.1333
17999TIP3   OH275411   3.384   0.148  12.776  0.4387 -0.3731 -0.1882
17999TIP3    H175412   3.313   0.110  12.725  0.7851 -1.8037  0.3337
17999TIP3    H275413   3.449   0.175  12.711 -0.1199 -0.0318 -0.6089
18000TIP3   OH275414   4.825   4.983   5.954 -0.5480 -0.7542 -0.1037
18000TIP3    H175415   4.752   5.045   5.959 -0.0186 -0.0947 -0.3840
18000TIP3    H275416   4.785   4.901   5.928 -1.5189 -0.9789  1.8507
18001TIP3   OH275417   1.001   5.317  12.580 -0.3640 -0.3590 -0.1094
18001TIP3    H175418   0.963   5.241  12.537  1.3861 -1.1024 -0.4119
18001TIP3    H275419   0.957   5.392  12.539 -0.6039 -1.1339 -1.2994
18002TIP3   OH275420   5.059   0.384  16.326  0.8387  0.3198  0.2227
18002TIP3    H175421   5.018   0.392  16.412  0.5584  1.0827  0.0217
18002TIP3    H275422   5.010   0.444  16.270  0.2180 -1.0796 -0.7837
18003TIP3   OH275423   6.526   5.009  14.334 -0.0367  0.3741 -0.6169
18003TIP3    H175424   6.488   4.996  14.248 -0.9258 -1.1521 -0.0261
18003TIP3    H275425   6.606   4.955  14.334  0.2652  0.8136 -0.6667
18004TIP3   OH275426   5.429   6.537  12.074 -0.4411  0.0077 -0.2723
18004TIP3    H175427   5.337   6.561  12.061 -0.4608  0.3165  0.4213
18004TIP3    H275428   5.475   6.576  12.000 -0.9305 -0.5317 -0.8726
18005TIP3   OH275429   5.719   5.983   1.047 -1.1639  0.5745  0.0656
18005TIP3    H175430   5.669   6.053   1.089 -1.8989  0.0192  0.1577
18005TIP3    H275431   5.653   5.932   1.000 -0.4125  0.9046 -1.3790
18006TIP3   OH275432   4.722   4.106  12.160  0.7157 -0.3909 -0.2273
18006TIP3    H175433   4.705   4.186  12.110 -0.7549 -0.1447  0.5884
18006TIP3    H275434   4.749   4.042  12.094  0.9423  0.5040 -1.0311
18007TIP3   OH275435   1.866   5.189   2.289 -0.5942 -0.3682  0.4982
18007TIP3    H175436   1.944   5.241   2.269 -0.8531  0.3779  1.3824
18007TIP3    H275437   1.813   5.193   2.210 -0.7161  0.9079  0.6345
18008TIP3   OH275438   3.707   0.506  14.735 -0.1802 -0.1439  0.3195
18008TIP3    H175439   3.750   0.428  14.769  0.9180 -0.0001 -0.6506
18008TIP3    H275440   3.733   0.576  14.794 -1.7401 -0.6037  1.6014
18009TIP3   OH275441   4.909   5.574   2.906 -0.4360  0.4610  0.1042
18009TIP3    H175442   4.924   5.565   2.812  0.2898  0.1615  0.2342
18009TIP3    H275443   4.965   5.506   2.945 -2.2136 -0.7494  0.6665
18010TIP3   OH275444   5.577   1.611  12.719  1.0344 -0.3944  0.1401
18010TIP3    H175445   5.517   1.628  12.791 -0.0265  1.0935 -1.0338
18010TIP3    H275446   5.596   1.698  12.683  1.2095 -1.1310 -1.6334
18011TIP3   OH275447   6.526   2.590  12.045 -0.2008 -0.4033  0.6895
18011TIP3    H175448   6.555   2.640  12.121  0.9125  0.4660 -0.2806
18011TIP3    H275449   6.534   2.650  11.971 -2.4829 -0.8119  0.0270
18012TIP3   OH275450   4.706   5.944   1.956 -0.5399  0.2528 -0.0339
18012TIP3    H175451   4.766   5.918   1.886 -1.7941  0.1866 -1.0964
18012TIP3    H275452   4.743   5.903   2.035  1.4139  1.1007 -0.4384
18013TIP3   OH275453   1.044   6.227  13.251  0.4753 -0.7121  0.2877
18013TIP3    H175454   1.039   6.138  13.286 -2.2208 -1.3698 -1.4618
18013TIP3    H275455   0.961   6.239  13.205  0.5502  2.8904  0.8081
18014TIP3   OH275456   2.010   6.758  11.950 -0.2102  0.5782  0.2928
18014TIP3    H175457   1.930   6.739  11.901 -1.3241 -0.4888  2.3592
18014TIP3    H275458   2.013   6.853  11.956 -1.7872  0.6304  0.8122
18015TIP3   OH275459   0.524   4.167  15.322  0.3795  0.4677 -0.0904
18015TIP3    H175460   0.531   4.181  15.417 -0.5941 -0.0766  0.0724
18015TIP3    H275461   0.470   4.240  15.291 -0.8888 -0.3707  0.0754
18016TIP3   OH275462   0.358   6.035  15.011  0.2199  0.2701 -0.1531
18016TIP3    H175463   0.418   6.093  15.058 -0.4626  2.2252 -1.5501
18016TIP3    H275464   0.411   5.997  14.941  0.0357  1.5424 -1.0268
18017TIP3   OH275465   0.893   6.330   0.274  0.2064 -0.0260  0.3328
18017TIP3    H175466   0.830   6.356   0.341  0.6348  0.6430  0.4764
18017TIP3    H275467   0.952   6.404   0.265 -0.1601  0.1253 -1.1868
18018TIP3   OH275468   2.702   5.731  12.647 -0.1327 -0.5418 -0.2710
18018TIP3    H175469   2.728   5.819  12.674  0.7774 -0.7850 -0.3250
18018TIP3    H275470   2.733   5.674  12.718  0.4126 -0.9573 -0.8384
18019TIP3   OH275471   5.369   1.427   5.138  0.3673 -0.5468 -0.5434
18019TIP3    H175472   5.423   1.451   5.213  0.4881  0.7759 -1.0412
18019TIP3    H275473   5.336   1.340   5.160  0.1212 -0.0448  1.2063
18020TIP3   OH275474   0.031   5.909  14.311 -0.4941 -0.3925  0.3391
18020TIP3    H175475   0.079   5.915  14.229 -0.5258 -0.1765  0.3364
18020TIP3    H275476  -0.057   5.940  14.290  0.1238  1.9874  0.9872
18021TIP3   OH275477   3.610   1.130  13.993 -0.0139 -0.0619 -0.2375
18021TIP3    H175478   3.643   1.193  13.928  0.4179 -0.0205  0.0144
18021TIP3    H275479   3.517   1.150  14.001  0.0240  0.2328 -0.5091
18022TIP3   OH275480   4.740   5.315   0.171  0.1145  0.0567  0.2255
18022TIP3    H175481   4.799   5.306   0.245  0.6249  0.0041 -0.1820
18022TIP3    H275482   4.798   5.327   0.095 -0.3386 -1.4719 -0.3959
18023TIP3   OH275483   4.205   5.358   2.227  0.0986 -0.8570 -0.6853
18023TIP3    H175484   4.132   5.393   2.279  0.5473  1.0118 -1.2101
18023TIP3    H275485   4.176   5.365   2.136  1.0163  0.2866 -0.9300
18024TIP3   OH275486   3.582   1.926  11.774  0.6550  0.4040 -0.1167
18024TIP3    H175487   3.577   1.904  11.681  0.8412 -1.1553  0.2174
18024TIP3    H275488   3.660   1.881  11.805  1.2333  1.8283  0.5856
18025TIP3   OH275489   2.897   3.698  12.519 -0.0552 -0.2706  0.4502
18025TIP3    H175490   2.968   3.743  12.472 -0.7126 -0.5307 -0.8249
18025TIP3    H275491   2.927   3.608  12.525 -0.4918 -0.4992 -0.5754
18026TIP3   OH275492   2.407   0.974   3.659 -0.7304 -0.5645  0.4587
18026TIP3    H175493   2.354   1.048   3.688 -2.0615 -0.9967 -0.7585
18026TIP3    H275494   2.454   1.005   3.582  0.5347 -0.3053  1.3031
18027TIP3   OH275495   0.341   4.622   1.079 -0.2088 -0.2747  0.0499
18027TIP3    H175496   0.384   4.552   1.126 -0.4827 -0.3485  0.1945
18027TIP3    H275497   0.282   4.661   1.143  1.5389  1.5457  0.6377
18028TIP3   OH275498   0.609   3.936  15.629 -0.2807  0.0729 -0.2785
18028TIP3    H175499   0.662   3.886  15.568  1.9372 -1.2897  2.5573
18028TIP3    H275500   0.627   4.028  15.607  1.2157 -0.3864 -1.0853
18029TIP3   OH275501   0.460   6.596  12.874 -0.0464  0.0491  0.0015
18029TIP3    H175502   0.404   6.543  12.817 -1.0603  0.7026  0.3740
18029TIP3    H275503   0.532   6.537  12.898 -1.1342 -1.1484  0.3938
18030TIP3   OH275504   0.676   1.433  16.666  0.4538 -0.3043  1.0634
18030TIP3    H175505   0.725   1.351  16.675  0.2829 -0.5260  0.0055
18030TIP3    H275506   0.666   1.445  16.572 -1.7221 -0.3862  1.2358
18031TIP3   OH275507   0.896   5.507  14.617  0.5469 -0.7778 -0.5917
18031TIP3    H175508   0.896   5.492  14.522  1.0134  0.6008 -0.8325
18031TIP3    H275509   0.989   5.508  14.641  0.4788  0.2116 -0.3551
18032TIP3   OH275510   1.761   2.252  15.968  0.5257  0.0268  0.1973
18032TIP3    H175511   1.840   2.219  15.924  0.3403 -2.6741  1.6882
18032TIP3    H275512   1.763   2.210  16.055 -3.1937 -1.2578 -0.1710
18033TIP3   OH275513   6.133   0.222   1.755 -0.6555  0.1213 -0.5811
18033TIP3    H175514   6.176   0.193   1.836  0.2455  2.5736 -0.0874
18033TIP3    H275515   6.125   0.142   1.702  1.5965 -1.0272  0.6420
18034TIP3   OH275516   2.282   3.339   0.459 -0.5391  0.3484 -0.0704
18034TIP3    H175517   2.229   3.357   0.381  0.9784 -0.2223 -1.2853
18034TIP3    H275518   2.361   3.297   0.425  1.2946  2.2783  1.4902
18035TIP3   OH275519   2.554   4.830   5.661  0.2090  0.6147 -0.4334
18035TIP3    H175520   2.525   4.825   5.570 -1.0428 -1.9134 -0.0035
18035TIP3    H275521   2.630   4.772   5.665  1.3802  2.0994 -0.1817
18036TIP3   OH275522   5.254   4.555   0.696  0.3115  0.0275 -0.3583
18036TIP3    H175523   5.309   4.507   0.633  0.5416  0.0540 -0.1815
18036TIP3    H275524   5.175   4.502   0.705 -0.3354  0.7044 -1.7066
18037TIP3   OH275525   5.705   2.287  16.412  0.0349  0.3512 -0.3335
18037TIP3    H175526   5.778   2.281  16.474 -0.2406  0.7943  0.0347
18037TIP3    H275527   5.668   2.199  16.412  0.9499 -0.0559 -1.0063
18038TIP3   OH275528   1.125   4.958   0.151  0.3847  0.5485 -0.1529
18038TIP3    H175529   1.156   4.966   0.060 -1.3401  1.7708 -0.6744
18038TIP3    H275530   1.191   4.903   0.193  1.3076  0.0568 -2.1061
18039TIP3   OH275531   4.666   4.295  14.493 -0.1815  0.3871 -0.4119
18039TIP3    H175532   4.681   4.222  14.553 -1.8268  0.1815 -0.2102
18039TIP3    H275533   4.737   4.288  14.429  0.3566 -0.6805  0.2650
18040TIP3   OH275534   2.436   1.928  12.047  0.5405 -0.0649 -1.3668
18040TIP3    H175535   2.504   1.991  12.022 -0.6298  0.9320 -2.1309
18040TIP3    H275536   2.399   1.899  11.964 -0.4572 -0.0485 -0.9337
18041TIP3   OH275537   2.291   2.834   1.302  0.3813  0.2476 -0.0433
18041TIP3    H175538   2.335   2.781   1.368 -0.0581  0.4492  0.4207
18041TIP3    H275539   2.277   2.774   1.229  0.1326 -0.2081  0.3689
18042TIP3   OH275540   0.856   3.644  11.705 -0.3565  0.1310 -0.8513
18042TIP3    H175541   0.906   3.650  11.623  0.9193 -0.5587 -0.1422
18042TIP3    H275542   0.836   3.551  11.714  0.0325  0.1143 -0.0900
18043TIP3   OH275543   6.170   2.591   0.171  0.0785  0.0544  0.1480
18043TIP3    H175544   6.257   2.570   0.136  0.1800  0.5988  0.0616
18043TIP3    H275545   6.110   2.536   0.120  0.1796  1.1816 -1.2382
18044TIP3   OH275546   5.003   4.263   2.588  0.3980  0.0650 -0.2161
18044TIP3    H175547   4.976   4.219   2.507  0.9978 -0.0417 -0.3590
18044TIP3    H275548   4.971   4.205   2.658 -1.2657  0.7870 -0.3184
18045TIP3   OH275549   6.017   6.460  14.160 -0.1488 -0.2109  0.1056
18045TIP3    H175550   5.950   6.408  14.205  1.4482 -1.5707  1.0425
18045TIP3    H275551   6.015   6.545  14.204 -0.7494 -0.4738  0.6045
18046TIP3   OH275552   4.835   1.531   5.084  0.5185  0.2015  0.9710
18046TIP3    H175553   4.835   1.625   5.100 -0.6941  0.1125  1.6255
18046TIP3    H275554   4.911   1.515   5.029  0.4698  1.6277  0.4700
18047TIP3   OH275555   1.046   2.325   6.622 -0.3425 -0.0055  0.3627
18047TIP3    H175556   1.008   2.267   6.688 -0.8402 -0.5103 -0.3484
18047TIP3    H275557   0.971   2.370   6.584  0.0573  1.2428  1.0133
18048TIP3   OH275558   6.020   2.230   0.108 -0.1916  0.2085 -0.0740
18048TIP3    H175559   6.029   2.142   0.146  0.9118  0.0804 -0.5808
18048TIP3    H275560   6.000   2.287   0.183  0.4566 -0.2659  0.4752
18049TIP3   OH275561   0.692   1.313   1.784 -0.1903 -0.0917  0.4159
18049TIP3    H175562   0.758   1.254   1.748  0.1106  0.6474 -0.2871
18049TIP3    H275563   0.729   1.344   1.867  0.3391  0.2970  0.0377
18050TIP3   OH275564   6.161   3.218  13.135 -0.1659  0.1095  0.6411
18050TIP3    H175565   6.200   3.132  13.119  0.7031  0.7148 -0.6203
18050TIP3    H275566   6.081   3.218  13.081  0.6135  0.6238 -0.5457
18051TIP3   OH275567   6.634   3.990   3.126  0.0844  0.0809 -0.4378
18051TIP3    H175568   6.699   4.040   3.174 -0.2077  0.2614 -0.2247
18051TIP3    H275569   6.583   4.056   3.079 -1.4160  0.1814  1.1989
18052TIP3   OH275570   0.186   6.225   5.585 -0.4334 -0.4403 -0.4890
18052TIP3    H175571   0.241   6.288   5.538 -0.2959  0.0631  0.3332
18052TIP3    H275572   0.113   6.277   5.618 -0.5262 -0.7903 -0.1462
18053TIP3   OH275573   3.401   6.668  17.257 -0.1467 -0.2481 -0.1176
18053TIP3    H175574   3.401   6.688  17.163 -0.1396 -1.3529 -0.3693
18053TIP3    H275575   3.309   6.672  17.282 -0.5837 -3.0558 -0.9168
18054TIP3   OH275576   3.383   6.743  13.071  0.7492  0.0089  0.1493
18054TIP3    H175577   3.300   6.753  13.024  0.4037  2.0544  1.0650
18054TIP3    H275578   3.449   6.750  13.003  0.2002 -1.2903 -0.5492
18055TIP3   OH275579   0.922   2.279  17.316 -0.4403 -0.0981  0.3572
18055TIP3    H175580   0.835   2.314  17.296 -0.1864 -0.3506 -1.4246
18055TIP3    H275581   0.945   2.317  17.401 -1.5273  1.4446  0.0042
18056TIP3   OH275582   0.191   3.885   5.091  0.0586  0.0887 -0.0108
18056TIP3    H175583   0.196   3.930   5.176  0.7765 -0.8471  0.4686
18056TIP3    H275584   0.249   3.934   5.034 -1.2519  1.3749 -0.2980
18057TIP3   OH275585   3.606   5.814   3.452  0.0566 -0.1510 -0.0834
18057TIP3    H175586   3.563   5.898   3.468 -0.6102 -0.6184  0.6765
18057TIP3    H275587   3.690   5.821   3.498  0.8653  0.7899 -1.6268
18058TIP3   OH275588   4.604   1.617   4.354 -0.5419 -0.3695  0.1427
18058TIP3    H175589   4.598   1.698   4.405 -0.9580  0.3345 -0.9908
18058TIP3    H275590   4.672   1.635   4.290 -1.0596 -0.7019 -0.5035
18059TIP3   OH275591   0.149   0.808  12.429  0.1167  0.6432  0.0238
18059TIP3    H175592   0.195   0.854  12.498 -0.3568  0.3236  0.5614
18059TIP3    H275593   0.136   0.719  12.463 -2.1774  1.1000  0.5211
18060TIP3   OH275594   1.908   4.036  14.373 -0.3108 -0.4608  0.3474
18060TIP3    H175595   1.942   3.997  14.293 -1.0801 -0.0920 -0.1789
18060TIP3    H275596   1.823   4.073  14.348  0.1078  1.0203  0.9534
18061TIP3   OH275597   3.140   4.493   0.819  0.0536  0.3615 -0.2589
18061TIP3    H175598   3.058   4.476   0.773  0.8682  0.8618 -2.0037
18061TIP3    H275599   3.124   4.573   0.869 -0.5717  0.3660 -0.4570
18062TIP3   OH275600   5.541   4.370  13.471 -0.1754  0.2703 -0.0573
18062TIP3    H175601   5.448   4.350  13.483 -0.6334  2.4889  0.5563
18062TIP3    H275602   5.579   4.358  13.558 -0.1654  0.6753 -0.0056
18063TIP3   OH275603   0.192   0.226   4.418 -0.4909 -0.0623 -0.4309
18063TIP3    H175604   0.110   0.190   4.452  0.1555 -1.2951 -0.1127
18063TIP3    H275605   0.167   0.268   4.335 -1.3910 -0.6921 -0.5003
18064TIP3   OH275606   5.010   0.975   5.172 -0.1519  0.1641 -0.3822
18064TIP3    H175607   4.928   1.022   5.180 -0.3172 -0.0730 -0.6731
18064TIP3    H275608   5.019   0.928   5.255 -0.4829 -0.0853 -0.4868
18065TIP3   OH275609   1.756   0.266   5.499 -0.0931 -0.5370 -1.0020
18065TIP3    H175610   1.788   0.299   5.583 -0.5749  1.8721 -1.6886
18065TIP3    H275611   1.835   0.251   5.448  0.1489  0.6173 -1.0017
18066TIP3   OH275612   1.691   3.147   1.925 -0.4837  0.3933  0.4773
18066TIP3    H175613   1.675   3.201   1.848 -0.8024  1.0997  1.0371
18066TIP3    H275614   1.607   3.142   1.969  0.0472  1.3673  1.6579
18067TIP3   OH275615   2.535   1.858   3.877 -0.4696  0.0377 -0.5882
18067TIP3    H175616   2.558   1.900   3.794  1.4647 -1.7521 -1.0446
18067TIP3    H275617   2.597   1.896   3.941  0.4421 -1.1537 -0.7429
18068TIP3   OH275618   2.040   5.641  12.607  0.2603  0.2731  0.4982
18068TIP3    H175619   1.970   5.636  12.673  0.1983 -0.3646  0.3951
18068TIP3    H275620   2.028   5.561  12.555  0.6484  0.5017  0.0563
18069TIP3   OH275621   2.983   2.644  13.128  0.0696  0.0208  0.4649
18069TIP3    H175622   2.906   2.700  13.140  0.3842  0.1745  1.8778
18069TIP3    H275623   2.951   2.555  13.144  0.2541  0.1197  1.4127
18070TIP3   OH275624   3.664   6.127   4.906 -0.7252  0.0673 -0.2424
18070TIP3    H175625   3.638   6.060   4.969  1.3760 -0.2242  0.4185
18070TIP3    H275626   3.677   6.206   4.960 -1.9454  0.6780 -0.8164
18071TIP3   OH275627   5.463   0.848  12.742  0.4702  0.1391  0.4223
18071TIP3    H175628   5.502   0.903  12.810  3.5024 -0.6064 -0.5715
18071TIP3    H275629   5.473   0.759  12.774 -0.6970 -0.0949  0.2034
18072TIP3   OH275630   3.420   2.311  12.519  0.2848 -0.4733  0.1302
18072TIP3    H175631   3.384   2.398  12.500 -0.0519 -0.2261  1.7629
18072TIP3    H275632   3.377   2.253  12.456  0.4999  0.5299 -0.9653
18073TIP3   OH275633   0.247   4.557  16.423  0.2500 -0.0222 -0.0604
18073TIP3    H175634   0.197   4.619  16.370  1.5056  0.3343 -0.8758
18073TIP3    H275635   0.226   4.472  16.385 -1.7172 -0.1813  1.2549
18074TIP3   OH275636   3.203   4.797  12.868  0.2002  0.0870  0.1156
18074TIP3    H175637   3.212   4.763  12.779  0.9708 -0.0074  0.2199
18074TIP3    H275638   3.166   4.885  12.857 -1.6108 -0.6808 -0.1643
18075TIP3   OH275639   0.725   4.869  17.078  0.2019 -0.3518  0.5611
18075TIP3    H175640   0.778   4.925  17.135 -0.7395  2.0734 -0.8285
18075TIP3    H275641   0.661   4.928  17.039 -0.1102 -2.1838 -1.9276
18076TIP3   OH275642   0.999   4.110   3.226  0.1678  0.3649  0.8537
18076TIP3    H175643   1.092   4.128   3.212 -0.0037 -0.5713 -2.2214
18076TIP3    H275644   0.954   4.188   3.195 -0.1163  0.0080  0.3460
18077TIP3   OH275645   5.284   3.058   2.112 -0.0785  0.4065  0.1766
18077TIP3    H175646   5.254   3.147   2.128  0.7671  0.6550  0.3943
18077TIP3    H275647   5.212   3.017   2.062 -0.6531  1.0669  0.4541
18078TIP3   OH275648   2.111   1.038   6.125 -0.1134  0.1502 -0.3298
18078TIP3    H175649   2.103   1.101   6.197 -0.7211  0.0035 -0.2599
18078TIP3    H275650   2.074   0.957   6.161  1.0325 -0.3730 -0.2773
18079TIP3   OH275651   0.033   3.648   1.419  0.3351 -0.0019  0.2471
18079TIP3    H175652  -0.008   3.716   1.364  0.6625 -0.1338 -0.1636
18079TIP3    H275653   0.044   3.574   1.360  0.4309 -0.2455  0.5712
18080TIP3   OH275654   1.311   3.740   3.070 -0.1173  0.0786 -0.7761
18080TIP3    H175655   1.289   3.647   3.072 -1.6407  0.3653  2.6486
18080TIP3    H275656   1.259   3.776   2.998  0.3005 -1.5842 -1.9863
18081TIP3   OH275657   0.653   6.221   0.174  0.3404  0.6435  0.0045
18081TIP3    H175658   0.726   6.265   0.219 -0.1947 -0.2243  1.7968
18081TIP3    H275659   0.689   6.135   0.150  0.2182  0.5884  0.0207
18082TIP3   OH275660   3.797   0.752   4.279  0.1872  0.4241 -0.3367
18082TIP3    H175661   3.802   0.833   4.229  0.8995 -0.7745 -2.3732
18082TIP3    H275662   3.816   0.683   4.214 -1.2878 -1.4373  1.0688
18083TIP3   OH275663   1.610   5.966   3.275 -0.0179  0.1759  0.2084
18083TIP3    H175664   1.552   5.980   3.201 -0.1137  1.2097  0.4629
18083TIP3    H275665   1.698   5.981   3.241  0.0567 -0.7637 -0.0272
18084TIP3   OH275666   5.600   5.945  15.934  0.1525 -0.2282  0.6509
18084TIP3    H175667   5.510   5.978  15.930  0.0056 -0.7081 -0.4107
18084TIP3    H275668   5.654   6.024  15.935 -0.2437  0.0669 -0.1750
18085TIP3   OH275669   2.350   1.521   0.459 -0.4301  0.4546  0.4534
18085TIP3    H175670   2.403   1.456   0.505  0.6223 -0.3769 -1.7816
18085TIP3    H275671   2.305   1.569   0.529 -0.6055 -2.0880  2.2180
18086TIP3   OH275672   3.095   5.818  16.352 -0.3712  0.2647 -0.0492
18086TIP3    H175673   3.044   5.791  16.276 -1.3894 -0.5072  0.8593
18086TIP3    H275674   3.073   5.910  16.366 -1.0529  0.0997 -0.0299
18087TIP3   OH275675   0.291   5.827  12.859  0.7950 -0.2053  0.0952
18087TIP3    H175676   0.358   5.762  12.880  0.7002 -0.3337  0.0011
18087TIP3    H275677   0.289   5.884  12.936  1.1654 -0.0694  0.0070
18088TIP3   OH275678   0.238   1.039  10.697  0.8958 -0.0898 -0.0682
18088TIP3    H175679   0.153   1.083  10.708  1.0577  0.2087 -0.0018
18088TIP3    H275680   0.246   1.026  10.603  1.4438  1.2311 -0.2253
18089TIP3   OH275681   4.075   6.499  11.251 -0.2359  0.2609 -0.3714
18089TIP3    H175682   4.122   6.480  11.332  0.9666  0.9241 -0.9009
18089TIP3    H275683   4.028   6.417  11.232 -0.4113  0.0383  0.8810
18090TIP3   OH275684   2.464   5.437  11.661  0.5497 -0.4268  0.4927
18090TIP3    H175685   2.397   5.421  11.595  0.0583  0.3973  0.7797
18090TIP3    H275686   2.547   5.433  11.613  0.2160 -0.1987 -0.1097
18091TIP3   OH275687   1.696   2.399  11.811  0.2873  0.0766 -0.2611
18091TIP3    H175688   1.782   2.441  11.816  0.0435  0.4796  1.9162
18091TIP3    H275689   1.696   2.336  11.883 -0.8076 -0.8223 -1.0037
18092TIP3   OH275690   2.798   4.531  13.117 -0.0425  0.4032 -0.4073
18092TIP3    H175691   2.886   4.569  13.114  0.5380 -0.4398  2.6641
18092TIP3    H275692   2.741   4.600  13.084  1.4824  2.1021  0.3415
18093TIP3   OH275693   2.391   6.687  12.145  0.6279 -0.5123 -0.1732
18093TIP3    H175694   2.388   6.776  12.111 -0.2806 -0.3102  0.4064
18093TIP3    H275695   2.408   6.698  12.239  0.2320 -0.9303 -0.0466
18094TIP3   OH275696   5.374   1.269  14.264 -0.5534  0.5838 -0.2361
18094TIP3    H175697   5.452   1.309  14.303 -0.6053 -0.1566  0.6568
18094TIP3    H275698   5.407   1.213  14.194 -0.1931 -0.3592  0.6634
18095TIP3   OH275699   0.954   0.624  14.917 -0.2982 -0.1728  0.0901
18095TIP3    H175700   1.039   0.581  14.923 -1.1276 -1.7747  1.3835
18095TIP3    H275701   0.943   0.668  15.001 -1.3861 -1.3594  0.6146
18096TIP3   OH275702   2.206   0.743   3.092  0.6090 -0.2908  0.4317
18096TIP3    H175703   2.213   0.798   3.015  0.0956  1.8605  1.8342
18096TIP3    H275704   2.244   0.659   3.065 -0.4452  0.0345 -2.4135
18097TIP3   OH275705   4.725   4.825   5.278 -1.0034  0.5917  0.2214
18097TIP3    H175706   4.660   4.813   5.209 -0.6285 -0.3387  0.0198
18097TIP3    H275707   4.673   4.838   5.358 -1.4320  1.2529 -0.1561
18098TIP3   OH275708   4.840   3.784   1.817  0.2129  0.4305  0.0206
18098TIP3    H175709   4.921   3.736   1.795  0.0106 -0.4153  1.0182
18098TIP3    H275710   4.833   3.851   1.749  0.5206 -0.9478 -1.4388
18099TIP3   OH275711   0.567   2.508  15.212  0.2174  0.5626  0.8796
18099TIP3    H175712   0.563   2.574  15.281 -0.3049  2.8347 -1.1671
18099TIP3    H275713   0.482   2.514  15.168  0.2790 -1.2942  0.4137
18100TIP3   OH275714   3.586   0.776  11.492 -0.1165  1.1595 -0.2585
18100TIP3    H175715   3.608   0.738  11.576  0.7132 -0.7874 -1.2990
18100TIP3    H275716   3.520   0.843  11.512 -0.7125  0.0252  1.8011
18101TIP3   OH275717   3.920   4.613  16.936 -0.0692  0.4359 -0.0094
18101TIP3    H175718   3.971   4.642  16.861  0.8622 -1.4672 -0.1782
18101TIP3    H275719   3.830   4.640  16.917  0.4326  1.4253 -1.0150
18102TIP3   OH275720   2.338   0.348  16.220  0.1055  0.0513 -0.2568
18102TIP3    H175721   2.397   0.353  16.295  0.9845 -1.3098 -0.8329
18102TIP3    H275722   2.288   0.430  16.224 -0.5286 -0.3784  2.3386
18103TIP3   OH275723   6.390   1.739   5.963 -0.1274  0.6197 -0.3436
18103TIP3    H175724   6.406   1.690   5.883 -0.1462  2.2627 -1.3920
18103TIP3    H275725   6.325   1.804   5.939 -0.9607  0.4465  1.3050
18104TIP3   OH275726   2.324   3.130   0.977 -0.3131  0.4772 -0.2516
18104TIP3    H175727   2.282   3.050   0.945 -1.5404  0.9149  0.2062
18104TIP3    H275728   2.293   3.198   0.918  2.8801  0.2955 -2.4025
18105TIP3   OH275729   3.186   4.534  13.874  0.1024  0.2197  0.3488
18105TIP3    H175730   3.174   4.570  13.786  0.9174  0.1987  0.2252
18105TIP3    H275731   3.098   4.508  13.901  0.0541 -1.4420 -1.1711
18106TIP3   OH275732   2.339   4.125   4.425  0.6353 -0.1848  0.2703
18106TIP3    H175733   2.332   4.209   4.471  1.4533 -0.4788  0.9746
18106TIP3    H275734   2.261   4.120   4.370  0.0144  0.5396  1.0601
18107TIP3   OH275735   4.616   4.983  12.098  0.5528  0.0668  0.5114
18107TIP3    H175736   4.595   5.051  12.162 -0.8193  0.5132 -0.3710
18107TIP3    H275737   4.656   5.031  12.025  0.3532 -0.1733  0.2409
18108TIP3   OH275738   3.547   6.004   4.592 -0.2082  0.3574 -0.3465
18108TIP3    H175739   3.517   6.014   4.682  2.9975 -0.5416  0.9440
18108TIP3    H275740   3.598   6.083   4.575 -0.9574  0.6170 -1.5025
18109TIP3   OH275741   0.269   6.520  15.125  0.0821 -0.1892  0.4672
18109TIP3    H175742   0.182   6.483  15.111  0.1956  0.3347 -2.1769
18109TIP3    H275743   0.254   6.611  15.149 -0.0899 -0.5819  1.9556
18110TIP3   OH275744   0.873   3.547  10.996 -0.0029  0.1049  0.2056
18110TIP3    H175745   0.816   3.486  10.950 -0.8989  1.4680 -0.5666
18110TIP3    H275746   0.960   3.508  10.990 -0.3760 -0.5816 -1.1869
18111TIP3   OH275747   6.195   0.910  15.479  0.3974  0.1179 -1.3126
18111TIP3    H175748   6.217   0.824  15.444 -1.7614 -1.2266  0.3528
18111TIP3    H275749   6.205   0.900  15.574 -0.0670  1.6437 -1.0807
18112TIP3   OH275750   4.785   5.969   4.073 -0.4214  0.1181  0.0348
18112TIP3    H175751   4.868   5.983   4.119 -0.8203  0.3444  0.7051
18112TIP3    H275752   4.757   6.056   4.045  1.7106 -0.3112 -4.1373
18113TIP3   OH275753   4.670   6.204   3.991  0.1593  0.3532  0.1007
18113TIP3    H175754   4.643   6.296   3.991 -1.1308  0.0209  1.6741
18113TIP3    H275755   4.596   6.157   3.953  1.4120  0.0384 -2.1633
18114TIP3   OH275756   5.208   2.781  17.090  0.2685  0.3917  0.1172
18114TIP3    H175757   5.221   2.755  17.181  0.1919  0.7497  0.2300
18114TIP3    H275758   5.139   2.723  17.058  0.4636  0.1038  0.2143
18115TIP3   OH275759   0.424   1.400  13.389 -0.0774 -0.3031 -0.1155
18115TIP3    H175760   0.363   1.426  13.458  1.3079  1.1487  0.6495
18115TIP3    H275761   0.416   1.469  13.323  1.8364  0.8490  0.7591
18116TIP3   OH275762   4.227   5.574   0.081 -0.0688 -0.3037  0.8647
18116TIP3    H175763   4.303   5.515   0.079 -0.7007 -1.1357 -0.8270
18116TIP3    H275764   4.186   5.557   0.166  2.5792  1.4998  2.6545
18117TIP3   OH275765   2.137   2.083   6.407  0.0807  0.0176 -0.0755
18117TIP3    H175766   2.107   2.155   6.463  2.4576  0.7458  0.3740
18117TIP3    H275767   2.112   2.004   6.454 -3.1930  0.4187 -0.8949
18118TIP3   OH275768   6.405   5.321  11.308  0.0188  0.2008  0.2986
18118TIP3    H175769   6.389   5.325  11.402 -0.6060  1.2689  0.1657
18118TIP3    H275770   6.367   5.402  11.273  0.1062 -0.2416 -0.8916
18119TIP3   OH275771   0.152   5.927   1.701 -0.6524  0.2020  0.2772
18119TIP3    H175772   0.078   5.881   1.662 -1.6769  1.5019  0.6346
18119TIP3    H275773   0.124   5.948   1.790  1.3070 -1.9164  1.4875
18120TIP3   OH275774   3.649   3.939  11.376  0.6682  0.5277 -0.0523
18120TIP3    H175775   3.615   3.959  11.289  0.4882 -0.6740 -0.2808
18120TIP3    H275776   3.744   3.946  11.367  0.5875  2.3528  0.1846
18121TIP3   OH275777   5.819   0.680   5.575 -0.2573 -0.0154 -0.4157
18121TIP3    H175778   5.867   0.743   5.629  0.7705 -2.3308  1.5706
18121TIP3    H275779   5.768   0.628   5.638 -2.1134 -0.3724 -2.0937
18122TIP3   OH275780   2.365   5.652  13.947  0.1021 -0.4168  0.4033
18122TIP3    H175781   2.392   5.591  14.016  1.1392  1.0035  1.3035
18122TIP3    H275782   2.408   5.621  13.868  0.7934 -0.7351  0.8997
18123TIP3   OH275783   5.137   3.875   5.849  0.2529  0.4492 -0.4753
18123TIP3    H175784   5.207   3.911   5.904 -0.2598  1.2260 -0.3212
18123TIP3    H275785   5.180   3.807   5.797  0.8424 -0.0015  0.5665
18124TIP3   OH275786   0.954   0.545  11.806  0.3019 -0.4887 -0.4906
18124TIP3    H175787   0.885   0.491  11.846 -0.7924 -0.0851 -1.7388
18124TIP3    H275788   1.011   0.568  11.879 -0.6448 -1.1971  0.5229
18125TIP3   OH275789   0.900   5.515  12.393  0.2310 -0.5080 -0.0020
18125TIP3    H175790   0.951   5.461  12.332  0.5621  0.3429 -0.5006
18125TIP3    H275791   0.893   5.600  12.349  0.4456  0.1139  1.1236
18126TIP3   OH275792   5.113   0.422  13.625  0.8062 -0.1146 -0.0798
18126TIP3    H175793   5.183   0.451  13.566  1.8606  0.0991  1.2050
18126TIP3    H275794   5.041   0.398  13.568  1.7948  0.0512 -1.4416
18127TIP3   OH275795   4.009   0.575  15.093 -0.4220  0.3785 -0.0098
18127TIP3    H175796   4.077   0.515  15.123  0.1260  0.0265 -1.8194
18127TIP3    H275797   3.931   0.550  15.143  0.1504 -0.9047  0.2823
18128TIP3   OH275798   3.103   4.537  11.853 -0.0359  0.6132  0.1444
18128TIP3    H175799   3.127   4.447  11.829  0.4105  0.8545 -0.3368
18128TIP3    H275800   3.024   4.554  11.802  2.1307  1.9249 -3.1719
18129TIP3   OH275801   6.207   0.997   1.888 -0.2878 -0.2590  1.1658
18129TIP3    H175802   6.130   0.985   1.944  0.3745 -0.2257  2.0984
18129TIP3    H275803   6.215   0.914   1.841 -1.9454  0.3490 -0.3198
18130TIP3   OH275804   0.121   6.660   2.034 -0.4844 -0.2699 -0.1059
18130TIP3    H175805   0.043   6.668   2.088 -0.1166  0.7771  0.2939
18130TIP3    H275806   0.109   6.578   1.985 -2.0904  0.1795 -0.4974
18131TIP3   OH275807   0.787   2.156   0.416 -0.3445 -0.0473  0.1422
18131TIP3    H175808   0.715   2.129   0.358  0.7447 -2.5685 -0.1555
18131TIP3    H275809   0.791   2.087   0.483  2.4370 -0.6168 -0.4780
18132TIP3   OH275810   1.049   0.255   0.410 -0.5450 -0.3249 -0.4549
18132TIP3    H175811   1.141   0.259   0.384 -0.1191 -0.6418  0.8804
18132TIP3    H275812   1.019   0.345   0.405 -0.6451 -0.4308 -2.4397
18133TIP3   OH275813   3.035   4.070  14.732  0.0961  0.2805  0.1992
18133TIP3    H175814   3.083   4.009  14.676 -1.2167 -1.1640  0.5869
18133TIP3    H275815   3.086   4.073  14.813  0.4858  0.2014 -0.0358
18134TIP3   OH275816   2.424   0.349   2.644  0.5043  0.0172  0.0839
18134TIP3    H175817   2.344   0.331   2.694 -1.3062 -0.5359 -2.7912
18134TIP3    H275818   2.470   0.265   2.642  0.6396  0.0625  0.8167
18135TIP3   OH275819   6.692   1.814   0.090  0.2213 -0.5733  0.3205
18135TIP3    H175820   6.788   1.814   0.091  0.3261  0.8982 -2.3050
18135TIP3    H275821   6.669   1.901   0.056 -1.9854 -1.5663 -0.8607
18136TIP3   OH275822   1.332   0.729  13.340  0.3055  0.0264 -0.3602
18136TIP3    H175823   1.261   0.675  13.373  0.3376  1.2857  2.0021
18136TIP3    H275824   1.326   0.721  13.245 -0.3263 -3.2069 -0.1626
18137TIP3   OH275825   0.330   2.177   0.932 -0.3604  1.0628 -0.4698
18137TIP3    H175826   0.345   2.271   0.939  1.0968  0.9030 -1.1816
18137TIP3    H275827   0.310   2.149   1.022  0.7211  1.8132  0.0171
18138TIP3   OH275828   0.980   0.793  16.436 -0.3369 -0.3113 -0.1256
18138TIP3    H175829   0.963   0.722  16.374 -2.1213 -0.1912  0.1735
18138TIP3    H275830   1.070   0.778  16.466  0.6827 -0.2417 -2.8551
18139TIP3   OH275831   3.191   2.742  17.077  0.2153  0.0893  0.1905
18139TIP3    H175832   3.201   2.806  17.147 -0.1664 -0.0899  0.4104
18139TIP3    H275833   3.096   2.726  17.072  0.3602 -1.0209  0.6501
18140TIP3   OH275834   6.206   5.215  16.922 -0.1080 -0.1228  0.3520
18140TIP3    H175835   6.260   5.237  16.846 -0.0184 -1.6238 -0.0569
18140TIP3    H275836   6.118   5.244  16.898  0.1754  0.7079  0.2808
18141TIP3   OH275837   5.126   2.337  15.067  0.3456 -0.3152 -0.1443
18141TIP3    H175838   5.102   2.419  15.110  2.3470 -0.6071  1.7112
18141TIP3    H275839   5.107   2.269  15.132  0.5296 -1.1217 -0.9119
18142TIP3   OH275840   5.103   3.720   1.781 -0.3456 -0.3660  0.4371
18142TIP3    H175841   5.123   3.763   1.698 -0.0281  1.3442  1.3586
18142TIP3    H275842   5.170   3.653   1.790 -0.7380 -0.9988 -0.9444
18143TIP3   OH275843   5.135   3.493   4.283  0.2450 -0.2157  0.4563
18143TIP3    H175844   5.101   3.476   4.371  1.4529 -0.0780  0.9747
18143TIP3    H275845   5.158   3.586   4.284  0.3731 -0.2423  0.0377
18144TIP3   OH275846   3.517   6.622  16.373 -0.0262 -0.0361 -0.0392
18144TIP3    H175847   3.607   6.650  16.357 -0.1032 -0.5666 -1.5444
18144TIP3    H275848   3.475   6.625  16.287 -1.0939 -1.0229  0.4184
18145TIP3   OH275849   0.868   0.914   0.021  0.4193  0.4112 -0.1836
18145TIP3    H175850   0.844   0.985  -0.039  1.4404  0.7668 -0.1926
18145TIP3    H275851   0.880   0.838  -0.035  1.0980  0.6761 -0.4176
18146TIP3   OH275852   1.226   0.907  15.814  0.4201  0.3009  0.7301
18146TIP3    H175853   1.238   0.997  15.844  2.7697  0.1739  0.4147
18146TIP3    H275854   1.248   0.853  15.891 -1.2650 -0.0295  1.0083
18147TIP3   OH275855   5.917   4.678   1.678  0.1747  0.3901  0.7087
18147TIP3    H175856   5.971   4.616   1.629  1.7682  0.4855  2.2507
18147TIP3    H275857   5.974   4.754   1.691 -1.2719  1.6326  0.0760
18148TIP3   OH275858   0.094   1.927   3.048  0.1451 -0.1827 -0.0736
18148TIP3    H175859   0.072   1.843   3.008  0.1816 -0.0478 -0.3794
18148TIP3    H275860   0.108   1.907   3.141  0.9581 -0.6550 -0.2910
18149TIP3   OH275861   5.728   1.915   5.073  0.6497  0.2441  0.1653
18149TIP3    H175862   5.806   1.954   5.112  1.5711 -1.2330 -0.1065
18149TIP3    H275863   5.742   1.820   5.081  0.1884 -0.1096 -2.3306
18150TIP3   OH275864   6.150   2.481  15.829  0.5000  0.1652  0.9155
18150TIP3    H175865   6.155   2.387  15.845  2.7862  0.2600  1.1018
18150TIP3    H275866   6.115   2.488  15.740 -1.8413 -0.7248  1.6982
18151TIP3   OH275867   4.070   5.295   0.326  0.1327  0.1229  0.0151
18151TIP3    H175868   3.982   5.296   0.361  0.2158 -0.3353  0.2405
18151TIP3    H275869   4.060   5.264   0.236  0.0369  0.3200 -0.0425
18152TIP3   OH275870   4.434   1.460  14.660 -0.3957  0.3706 -0.0891
18152TIP3    H175871   4.342   1.436  14.664 -1.4271  3.6077 -1.0461
18152TIP3    H275872   4.453   1.501  14.745 -0.4992  1.5443 -0.6042
18153TIP3   OH275873   5.433   3.722   5.958 -0.2088  0.4531 -0.6209
18153TIP3    H175874   5.352   3.710   6.009  0.1582  1.0464  0.1351
18153TIP3    H275875   5.408   3.703   5.868 -1.2039  0.6589 -0.3996
18154TIP3   OH275876   0.791   6.001  15.839  0.3927  0.1750  0.0553
18154TIP3    H175877   0.792   6.052  15.921 -1.7261 -0.6027  0.6310
18154TIP3    H275878   0.750   6.060  15.776 -1.1728 -0.4170  0.4773
18155TIP3   OH275879   2.844   2.707   4.878  0.0117  0.7972  0.5287
18155TIP3    H175880   2.798   2.680   4.957  0.1972 -0.5239  0.2092
18155TIP3    H275881   2.783   2.767   4.834 -1.9933 -1.7678 -0.4646
18156TIP3   OH275882   1.480   2.541   3.259  0.0629  0.2260 -0.5482
18156TIP3    H175883   1.484   2.592   3.178 -2.4616 -1.7253 -2.0645
18156TIP3    H275884   1.541   2.469   3.245  0.5616  0.5585 -0.1402
18157TIP3   OH275885   4.964   0.879  17.322 -0.2649 -0.0189  0.3048
18157TIP3    H175886   4.961   0.886  17.226  1.0703  2.2064  0.3494
18157TIP3    H275887   4.982   0.787  17.339  1.4817 -0.1243 -1.6721
18158TIP3   OH275888   2.635   1.833  15.865 -0.2015  0.3475  0.0017
18158TIP3    H175889   2.690   1.889  15.920  0.9509 -0.3119 -0.4370
18158TIP3    H275890   2.695   1.801  15.797 -0.6400 -1.9117  0.6146
18159TIP3   OH275891   1.204   1.572  15.996 -0.2333  0.2696  0.7979
18159TIP3    H175892   1.128   1.596  16.049 -0.4734  0.8186  0.2104
18159TIP3    H275893   1.258   1.520  16.056 -1.9022 -1.6941  0.7002
18160TIP3   OH275894   5.842   0.787   1.509  0.2369 -0.0460  0.2182
18160TIP3    H175895   5.797   0.864   1.543  1.1355  0.8400 -0.5186
18160TIP3    H275896   5.804   0.714   1.557 -0.4551  0.8762  1.1290
18161TIP3   OH275897   6.679   1.424  12.555 -0.0655 -0.3792 -0.2192
18161TIP3    H175898   6.747   1.371  12.515  0.9348  0.0099  0.9154
18161TIP3    H275899   6.638   1.367  12.619  1.1959  0.2270  1.2015
18162TIP3   OH275900   6.558   2.941  15.715 -0.5116  0.3422 -0.3478
18162TIP3    H175901   6.633   2.965  15.771 -0.3882  0.1907 -0.4469
18162TIP3    H275902   6.568   2.996  15.637 -0.0503 -0.2554 -0.7146
18163TIP3   OH275903   3.513   2.486   1.940 -0.6788 -0.3191  0.1973
18163TIP3    H175904   3.460   2.413   1.970 -1.2370  0.3334  0.8318
18163TIP3    H275905   3.457   2.563   1.953  0.7965  0.5246  1.9055
18164TIP3   OH275906   0.241   3.113   6.509 -0.5008 -0.0114  0.1603
18164TIP3    H175907   0.212   3.024   6.528 -0.7069  0.2322  1.0384
18164TIP3    H275908   0.197   3.135   6.427  0.6805 -1.2189 -0.8550
18165TIP3   OH275909   4.639   4.274   5.954 -0.1106  0.1843 -0.1905
18165TIP3    H175910   4.714   4.302   5.902 -0.8018 -1.3188 -2.0978
18165TIP3    H275911   4.637   4.334   6.028  2.7434  0.4879 -0.2705
18166TIP3   OH275912   0.714   1.502   2.403  0.6037  0.0098 -0.1096
18166TIP3    H175913   0.770   1.442   2.353  0.2793 -1.1194  0.8439
18166TIP3    H275914   0.628   1.460   2.403  0.4931  0.2119  1.0112
18167TIP3   OH275915   0.875   3.312  12.991 -0.1778 -0.3053 -0.2531
18167TIP3    H175916   0.812   3.258  12.944 -1.1103  0.0769  0.4975
18167TIP3    H275917   0.820   3.375  13.039  0.8006  0.2737  0.1365
18168TIP3   OH275918   0.240   4.840   1.598 -1.0996 -0.0398 -0.0378
18168TIP3    H175919   0.166   4.874   1.649  1.3458  1.4863  2.8729
18168TIP3    H275920   0.252   4.904   1.528 -1.0022  1.1707  1.0436
18169TIP3   OH275921   3.713   6.193  15.080  0.5010  0.1441  0.2303
18169TIP3    H175922   3.770   6.202  15.003  0.2925  1.7207  0.2269
18169TIP3    H275923   3.662   6.274  15.082 -1.4957 -1.0540  0.4690
18170TIP3   OH275924   5.853   0.557  16.927 -0.0628  0.0209 -0.1892
18170TIP3    H175925   5.883   0.648  16.930 -0.5279  0.2354 -1.4461
18170TIP3    H275926   5.851   0.536  16.833 -0.0765 -1.2463  0.0838
18171TIP3   OH275927   2.666   4.525   0.086  0.5567 -0.3625 -0.4790
18171TIP3    H175928   2.696   4.589   0.021 -2.0743  0.5834 -0.8774
18171TIP3    H275929   2.656   4.444   0.036 -0.3518  0.0766 -1.0424
18172TIP3   OH275930   4.764   2.571  12.970 -0.5239  0.4049 -0.0975
18172TIP3    H175931   4.833   2.613  12.919 -1.1199 -0.3921 -1.6436
18172TIP3    H275932   4.684   2.617  12.944 -1.1419 -1.3666 -1.5783
18173TIP3   OH275933   2.742   1.901  14.017 -0.2357 -0.2856  0.4322
18173TIP3    H175934   2.785   1.980  13.984 -0.0378  0.0266  1.4098
18173TIP3    H275935   2.813   1.840  14.033 -0.3472 -0.4960  0.1344
18174TIP3   OH275936   1.552   0.380   3.780  0.1602  0.3648 -0.1513
18174TIP3    H175937   1.513   0.388   3.867  3.0707 -0.2168  1.3383
18174TIP3    H275938   1.633   0.431   3.785  1.2927 -1.1154 -1.8894
18175TIP3   OH275939   2.069   6.122  12.287 -0.0247 -0.3467 -0.3458
18175TIP3    H175940   1.981   6.113  12.324 -0.0627  1.4204  0.0741
18175TIP3    H275941   2.076   6.215  12.266  2.1639 -0.2322  0.6905
18176TIP3   OH275942   0.853   2.188  13.221  0.0243 -0.0204  0.0447
18176TIP3    H175943   0.890   2.271  13.251  1.1021 -0.2429 -0.6139
18176TIP3    H275944   0.762   2.210  13.197  0.1332  0.8478  0.3794
18177TIP3   OH275945   5.353   2.485   5.215  0.1842 -0.4785  0.4951
18177TIP3    H175946   5.398   2.570   5.213 -0.7403  0.0229  0.2857
18177TIP3    H275947   5.344   2.464   5.308 -2.4366  1.2562  0.7605
18178TIP3   OH275948   1.465   5.725  13.955  0.1691 -0.0390 -0.0569
18178TIP3    H175949   1.469   5.634  13.982 -1.9337  0.8413  3.9539
18178TIP3    H275950   1.372   5.747  13.956  0.6071  2.1191 -1.1206
18179TIP3   OH275951   0.008   0.240  10.571  0.6250  0.2739  0.6121
18179TIP3    H175952   0.004   0.145  10.565 -0.5093  0.3006  0.7107
18179TIP3    H275953  -0.081   0.267  10.596  0.9433  1.3504  0.6623
18180TIP3   OH275954   1.794   4.375  15.818  0.9552 -0.3577 -0.1927
18180TIP3    H175955   1.700   4.382  15.833  0.5271 -1.0028 -2.2435
18180TIP3    H275956   1.805   4.290  15.776  2.2797  0.2952 -1.2217
18181TIP3   OH275957   1.657   1.983   1.051 -0.5960  0.0575  0.4060
18181TIP3    H175958   1.580   2.019   1.095 -0.3518  1.6313 -0.3811
18181TIP3    H275959   1.728   2.044   1.073  0.3691 -1.1914  0.8556
18182TIP3   OH275960   5.268   4.522  11.079  0.5038  0.0777  0.3788
18182TIP3    H175961   5.275   4.428  11.092  0.7700  0.1284  0.6291
18182TIP3    H275962   5.223   4.532  10.995  1.3020 -0.2835 -0.1081
18183TIP3   OH275963   1.696   4.653   6.424  0.6308 -0.3510 -0.2776
18183TIP3    H175964   1.741   4.584   6.375  0.0531 -0.6290 -0.4262
18183TIP3    H275965   1.618   4.672   6.372 -0.9144 -1.8805  1.3924
18184TIP3   OH275966   4.516   4.608   3.908  0.3235 -0.0989 -0.2522
18184TIP3    H175967   4.584   4.552   3.871  0.1753  0.3473 -1.2334
18184TIP3    H275968   4.506   4.577   3.998  1.3335 -0.6222 -0.3002
18185TIP3   OH275969   2.919   1.588  11.404  0.2800 -0.2356 -0.4129
18185TIP3    H175970   2.837   1.601  11.357  0.7804  0.3512 -1.1442
18185TIP3    H275971   2.901   1.515  11.463 -0.1633 -1.4218 -1.9665
18186TIP3   OH275972   1.432   4.599   3.254  0.5951  0.1535 -0.1465
18186TIP3    H175973   1.444   4.555   3.170  3.0005  0.3192  0.0234
18186TIP3    H275974   1.433   4.529   3.319 -2.0158 -0.0467 -0.2430
18187TIP3   OH275975   5.050   5.076   0.298  0.3142 -0.0095  0.1490
18187TIP3    H175976   5.143   5.094   0.309  0.6269 -0.9600 -0.7679
18187TIP3    H275977   5.029   5.014   0.367  0.8540 -1.3255 -0.8241
18188TIP3   OH275978   0.717   4.792   5.988 -0.1129  0.9646 -0.1829
18188TIP3    H175979   0.642   4.817   6.042  1.0063  0.3620  1.7629
18188TIP3    H275980   0.782   4.760   6.051  0.6973 -1.2800 -2.0099
18189TIP3   OH275981   5.870   0.177  15.558 -0.3337  0.2039 -0.4307
18189TIP3    H175982   5.909   0.240  15.620 -0.2981 -0.5405  0.3140
18189TIP3    H275983   5.779   0.206  15.548  0.2751  1.7855 -1.9590
18190TIP3   OH275984   0.602   0.283   0.972  0.6830  0.1984  0.5388
18190TIP3    H175985   0.630   0.361   0.925  0.8437  0.4758  1.0892
18190TIP3    H275986   0.653   0.283   1.053  1.3879 -0.9926  0.1192
18191TIP3   OH275987   4.979   2.991   4.886  0.5599  0.0867  0.4254
18191TIP3    H175988   4.917   2.918   4.890  1.0462 -0.3495  0.1253
18191TIP3    H275989   4.926   3.068   4.908 -0.2223 -0.2007 -0.3843
18192TIP3   OH275990   2.622   3.762  14.224 -0.1612  0.0060 -0.3553
18192TIP3    H175991   2.628   3.786  14.317 -0.4296 -0.4503 -0.2164
18192TIP3    H275992   2.665   3.676  14.219 -0.8588 -0.3375 -0.5056
18193TIP3   OH275993   1.682   3.085   5.838 -0.5715  0.1132  0.3820
18193TIP3    H175994   1.765   3.042   5.858  0.3428  2.2559  1.5476
18193TIP3    H275995   1.622   3.053   5.905  0.0003  0.3445  1.0256
18194TIP3   OH275996   2.911   4.165  13.152  0.5422 -0.7262  0.5098
18194TIP3    H175997   2.910   4.085  13.099  0.0971 -0.0538 -0.5329
18194TIP3    H275998   2.818   4.186  13.165  0.6502 -0.6989  1.2964
18195TIP3   OH275999   5.054   0.545   2.535 -0.4153 -0.6096  0.2818
18195TIP3    H176000   5.015   0.557   2.622 -0.1795  0.8359  0.2163
18195TIP3    H276001   5.050   0.632   2.495  1.2030 -0.8240 -0.4287
18196TIP3   OH276002   5.972   2.238   4.640 -0.0202  0.4499  0.5520
18196TIP3    H176003   5.921   2.317   4.624 -0.0641  0.3646  0.2676
18196TIP3    H276004   5.963   2.187   4.560  1.6314  1.0572 -0.0771
18197TIP3   OH276005   1.882   1.899  11.762  0.2092  0.2843 -0.1494
18197TIP3    H176006   1.942   1.851  11.819  0.8927  1.7803  0.4442
18197TIP3    H276007   1.833   1.831  11.716  0.4924 -0.9707  1.3248
18198TIP3   OH276008   3.097   5.582  14.425  0.0007  0.2073  0.3497
18198TIP3    H176009   3.067   5.541  14.506 -0.9973  1.0702  0.4396
18198TIP3    H276010   3.108   5.509  14.364 -2.5695 -0.1958  0.2328
18199TIP3   OH276011   1.233   1.788  16.436  0.0954 -0.0541 -0.4268
18199TIP3    H176012   1.264   1.699  16.419  1.5287  0.5580 -1.2599
18199TIP3    H276013   1.229   1.829  16.350  1.2830  1.2171  0.0701
18200TIP3   OH276014   5.196   2.671  17.343 -0.2372 -0.3686  0.0039
18200TIP3    H176015   5.205   2.576  17.332  1.1202 -0.2661  0.0399
18200TIP3    H276016   5.174   2.682  17.436 -0.6109 -0.6605 -0.0504
18201TIP3   OH276017   3.617   4.623   0.680 -0.3042 -0.2830  0.0756
18201TIP3    H176018   3.532   4.666   0.690  0.2501  0.7775  0.3720
18201TIP3    H276019   3.646   4.648   0.593  0.3913  0.6435  0.5621
18202TIP3   OH276020   3.986   0.910   5.135  0.1258 -0.5905  0.1308
18202TIP3    H176021   4.014   0.951   5.053  4.2245 -1.4575  0.8395
18202TIP3    H276022   3.987   0.816   5.116  3.2951 -0.9810  1.4840
18203TIP3   OH276023   5.697   1.501  13.921 -1.1086 -0.0680 -0.0366
18203TIP3    H176024   5.671   1.439  13.854 -0.8292 -0.5154  0.2605
18203TIP3    H276025   5.689   1.587  13.880 -1.3029 -0.3161 -0.5144
18204TIP3   OH276026   3.827   2.459   2.721  0.4814 -0.3322  0.3478
18204TIP3    H176027   3.879   2.491   2.795  2.1864  1.3920 -1.4531
18204TIP3    H276028   3.879   2.386   2.686  1.0792  0.5460 -0.6633
18205TIP3   OH276029   3.344   6.606  15.830  0.4030  0.4400  0.0017
18205TIP3    H176030   3.269   6.664  15.817  0.9232  1.5810  1.8203
18205TIP3    H276031   3.306   6.524  15.862 -0.0046  1.6209  2.7404
18206TIP3   OH276032   2.582   1.167   4.340  0.1958  0.1560  0.3155
18206TIP3    H176033   2.553   1.133   4.255  0.9583 -1.2177  0.5750
18206TIP3    H276034   2.562   1.097   4.402  1.9654  0.0729  0.8474
18207TIP3   OH276035   3.311   1.749   3.404 -0.2231  0.1948 -0.7188
18207TIP3    H176036   3.246   1.678   3.402 -0.1733  0.0866  0.3914
18207TIP3    H276037   3.341   1.750   3.495 -0.1633  1.5988 -0.7354
18208TIP3   OH276038   0.919   2.468  14.088 -0.1533 -0.0216  0.3957
18208TIP3    H176039   0.999   2.474  14.141 -0.0598 -0.1235  0.2642
18208TIP3    H276040   0.944   2.416  14.012 -0.6652 -1.0966  0.9457
18209TIP3   OH276041   1.146   6.234   4.548  0.3825 -0.0580  0.0145
18209TIP3    H176042   1.101   6.272   4.472 -0.8601  0.5595  1.0227
18209TIP3    H276043   1.236   6.223   4.519 -0.0350  0.2492 -1.5228
18210TIP3   OH276044   1.988   2.138  11.950 -0.3568  0.6046 -0.1489
18210TIP3    H176045   2.075   2.177  11.946 -0.3289  0.4809 -1.0589
18210TIP3    H276046   1.982   2.085  11.870 -0.3563 -1.3277  1.0759
18211TIP3   OH276047   0.632   1.250   6.153  0.1359  0.4517 -0.3398
18211TIP3    H176048   0.590   1.306   6.219  1.3681 -0.7284  1.5587
18211TIP3    H276049   0.725   1.250   6.178  0.6865  0.1360 -2.2466
18212TIP3   OH276050   2.907   4.476  12.200 -0.3414  0.2013  0.4039
18212TIP3    H176051   2.978   4.414  12.182  0.3913  1.0226  0.3673
18212TIP3    H276052   2.943   4.561  12.173 -2.8065  0.1906 -3.6592
18213TIP3   OH276053   0.459   6.063  14.061 -0.1429 -0.0725  0.1363
18213TIP3    H176054   0.550   6.046  14.036  0.4318  1.5619  0.9168
18213TIP3    H276055   0.407   6.001  14.010  1.4632 -1.6002  0.2875
18214TIP3   OH276056   5.369   0.215   4.290 -0.2040  0.2819  0.0278
18214TIP3    H176057   5.415   0.221   4.206 -2.1321  2.4200 -0.9676
18214TIP3    H276058   5.359   0.305   4.319  0.6195 -0.3874  2.7691
18215TIP3   OH276059   6.388   5.921  16.141 -0.5102 -0.5692  0.2881
18215TIP3    H176060   6.362   5.865  16.214 -1.9650 -1.6342 -1.0025
18215TIP3    H276061   6.407   6.006  16.182 -1.2600 -1.1391  1.9076
18216TIP3   OH276062   2.917   5.574  15.142  0.9316 -0.1377  0.3828
18216TIP3    H176063   2.930   5.660  15.102  1.7006 -0.0178  0.8564
18216TIP3    H276064   2.823   5.557  15.134  0.9670  0.1238 -0.9544
18217TIP3   OH276065   3.310   3.894   2.701  0.1134 -0.7286  0.4520
18217TIP3    H176066   3.346   3.807   2.719  2.4290 -0.4430 -2.1367
18217TIP3    H276067   3.386   3.953   2.703 -0.0987  0.0814 -4.3526
18218TIP3   OH276068   5.675   3.614  13.128 -0.2830 -0.3508  0.4122
18218TIP3    H176069   5.703   3.680  13.192 -2.0072  0.0637  0.7745
18218TIP3    H276070   5.645   3.665  13.053  0.9816 -0.8247 -0.4515
18219TIP3   OH276071   4.680   4.542  12.630  0.3835  0.3095  0.0368
18219TIP3    H176072   4.643   4.605  12.567  1.0611  0.2212 -0.4580
18219TIP3    H276073   4.709   4.595  12.704  2.5216  0.8179 -1.0988
18220TIP3   OH276074   4.624   2.165   4.300  0.1464 -0.3335  0.0442
18220TIP3    H176075   4.659   2.217   4.372 -0.9509  0.2592  0.1807
18220TIP3    H276076   4.679   2.187   4.225  2.3909 -2.2375  1.0150
18221TIP3   OH276077   6.338   5.479  14.877  0.0883  0.1016 -0.3919
18221TIP3    H176078   6.332   5.387  14.905  0.1497  0.3244  0.3570
18221TIP3    H276079   6.250   5.513  14.891 -0.3043 -0.1736 -1.9059
18222TIP3   OH276080   4.848   2.804   5.129 -0.6087 -0.5516 -0.3278
18222TIP3    H176081   4.853   2.893   5.164  1.2259 -0.9634  0.5911
18222TIP3    H276082   4.827   2.816   5.037 -1.5894  0.7631  0.0267
18223TIP3   OH276083   6.148   6.645  15.705  0.6079 -0.7422 -0.1509
18223TIP3    H176084   6.090   6.670  15.776 -1.1654 -2.9107 -0.7360
18223TIP3    H276085   6.090   6.627  15.631  2.2915  0.2372 -1.8200
18224TIP3   OH276086   6.386   6.295   1.533 -0.1453  0.3601  0.2927
18224TIP3    H176087   6.351   6.268   1.447  1.1561  0.6141 -0.3465
18224TIP3    H276088   6.314   6.280   1.594 -0.3085 -2.2621 -0.4229
18225TIP3   OH276089   4.156   1.364  12.418  0.1458  0.2201  0.5163
18225TIP3    H176090   4.134   1.367  12.511  0.0004 -0.4389  0.5117
18225TIP3    H276091   4.080   1.401  12.373  1.1531  2.8166  0.7559
18226TIP3   OH276092   3.370   6.192  14.677 -0.2762 -0.2298  0.1019
18226TIP3    H176093   3.347   6.234  14.594 -0.0926 -1.8537 -0.8133
18226TIP3    H276094   3.462   6.215  14.691  0.4104 -1.7830 -1.3814
18227TIP3   OH276095   5.496   0.231   1.182  0.2411  0.7466  0.4404
18227TIP3    H176096   5.433   0.282   1.131 -0.4161  0.0540  0.5575
18227TIP3    H276097   5.572   0.222   1.124 -0.2545  0.5002 -0.1751
18228TIP3   OH276098   0.396   5.829  13.925 -0.0477 -0.5946 -0.2076
18228TIP3    H176099   0.483   5.816  13.887 -0.3707 -1.1717 -0.7832
18228TIP3    H276100   0.382   5.751  13.979  0.5207  0.3552  1.3587
18229TIP3   OH276101   2.805   2.373  12.183  0.4540 -0.1874 -0.1955
18229TIP3    H176102   2.859   2.296  12.165 -0.8066 -1.2680  0.4073
18229TIP3    H276103   2.715   2.340  12.179 -0.0793  0.6689  2.4841
18230TIP3   OH276104   1.968   5.491   3.623 -0.3995  0.6212  0.2663
18230TIP3    H176105   2.015   5.516   3.702  0.6294  1.4361 -0.5909
18230TIP3    H276106   2.030   5.438   3.573 -1.9620 -2.4522  1.2576
18231TIP3   OH276107   1.813   5.833  12.337 -0.0167  0.9939  0.3794
18231TIP3    H176108   1.843   5.924  12.331  0.9235  0.6060 -1.5085
18231TIP3    H276109   1.730   5.839  12.385 -0.0687  2.8822  0.1457
18232TIP3   OH276110   2.630   6.521  11.462 -0.5842 -0.1907 -0.0873
18232TIP3    H176111   2.585   6.548  11.542 -1.3138  0.4367 -0.7063
18232TIP3    H276112   2.723   6.529  11.484 -0.7791  0.6686  0.4677
18233TIP3   OH276113   4.084   4.763   2.854  0.0370 -0.2023  0.1238
18233TIP3    H176114   4.171   4.786   2.885  0.4285  0.5401 -1.4128
18233TIP3    H276115   4.099   4.712   2.774 -0.9285 -0.7740  0.2851
18234TIP3   OH276116   3.764   3.193  11.864  0.6704 -0.4884  0.2632
18234TIP3    H176117   3.733   3.281  11.882 -0.2444 -0.9790  1.1859
18234TIP3    H276118   3.719   3.167  11.784  1.3739  0.0744 -0.3296
18235TIP3   OH276119   2.093   4.953   1.928  0.7268  0.1446 -0.4978
18235TIP3    H176120   2.055   4.874   1.887  0.5207  0.6326 -1.2698
18235TIP3    H276121   2.135   4.920   2.007 -2.6312 -0.2507  1.3197
18236TIP3   OH276122   2.814   2.506   2.856 -0.3361  0.1490 -0.4970
18236TIP3    H176123   2.847   2.585   2.814  1.3208 -1.4949 -2.4380
18236TIP3    H276124   2.869   2.494   2.933 -0.8093  1.0170 -0.0084
18237TIP3   OH276125   5.961   1.456  12.026 -0.3527  0.5065  0.4345
18237TIP3    H176126   5.873   1.494  12.027  0.0623  1.5503 -0.6209
18237TIP3    H276127   6.004   1.494  12.102 -0.5147  0.7238  0.4182
18238TIP3   OH276128   3.536   6.158  11.983 -0.7291 -0.0784  0.2861
18238TIP3    H176129   3.541   6.112  12.066  1.1844  1.0240  0.8367
18238TIP3    H276130   3.617   6.135  11.937 -1.6843 -0.5642 -1.2428
18239TIP3   OH276131   6.316   5.603  15.454 -0.1086  0.0658 -0.1014
18239TIP3    H176132   6.370   5.525  15.470 -0.5432 -0.5522 -1.4331
18239TIP3    H276133   6.329   5.622  15.361 -0.7457  1.0153 -0.0077
18240TIP3   OH276134   0.057   2.077  15.621 -0.1070 -0.5622  0.4639
18240TIP3    H176135   0.137   2.027  15.636  0.5663  0.7311  1.3343
18240TIP3    H276136  -0.013   2.021  15.655  0.5661 -1.1491  0.9034
18241TIP3   OH276137   5.468   0.514  12.140 -0.2045 -0.2581  0.0568
18241TIP3    H176138   5.412   0.539  12.213 -0.7304  2.1432 -1.0668
18241TIP3    H276139   5.474   0.593  12.086 -0.2226 -2.0418 -2.7698
18242TIP3   OH276140   0.945   0.152  16.277 -0.2149 -0.1071  0.0380
18242TIP3    H176141   0.851   0.148  16.293  0.0800 -0.5377  2.0209
18242TIP3    H276142   0.954   0.177  16.185 -2.2422  1.5419  0.2332
18243TIP3   OH276143   3.595   5.661   4.584  0.4766 -0.1699 -0.3068
18243TIP3    H176144   3.654   5.662   4.659  0.9400 -0.0665 -0.6672
18243TIP3    H276145   3.605   5.748   4.545  1.5245 -0.7760 -1.4723
18244TIP3   OH276146   2.526   2.163   3.303 -0.5073 -0.5102 -0.1488
18244TIP3    H176147   2.602   2.136   3.252  0.7127  0.8638  0.8997
18244TIP3    H276148   2.562   2.201   3.383 -2.0000  4.0429 -1.3482
18245TIP3   OH276149   5.493   4.624   3.576  0.3221 -0.4415 -0.4025
18245TIP3    H176150   5.500   4.530   3.558 -0.8197 -0.6450  0.1365
18245TIP3    H276151   5.427   4.630   3.645  2.4971  0.5166  1.7198
18246TIP3   OH276152   6.014   4.534   0.668  0.3203 -0.6076 -0.6528
18246TIP3    H176153   5.986   4.443   0.671 -0.0543 -0.4809 -0.1898
18246TIP3    H276154   6.102   4.531   0.631  1.1580 -1.3607  1.2719
18247TIP3   OH276155   6.283   4.349  11.957 -0.0252  0.2220  0.6589
18247TIP3    H176156   6.257   4.425  12.009 -0.4125  0.3895  0.2278
18247TIP3    H276157   6.327   4.291  12.020 -1.1965  0.0536  1.3435
18248TIP3   OH276158   1.873   5.548   6.256  0.8142 -0.0417 -0.0080
18248TIP3    H176159   1.823   5.466   6.261  2.0159 -0.7442  0.9718
18248TIP3    H276160   1.884   5.575   6.347  1.5771  0.4842 -0.2459
18249TIP3   OH276161   1.087   0.313  11.592  0.2127 -0.2615 -0.0222
18249TIP3    H176162   1.063   0.222  11.610  2.9978 -1.3939 -1.3832
18249TIP3    H276163   1.005   0.355  11.566 -1.3583 -2.0219  1.7805
18250TIP3   OH276164   3.463   6.585  11.704 -0.1118 -0.3225  0.2815
18250TIP3    H176165   3.443   6.511  11.761 -0.0514  1.2665  2.5091
18250TIP3    H276166   3.451   6.662  11.759 -2.1682  1.5318 -2.4678
18251TIP3   OH276167   1.977   4.275   4.609 -0.5240 -0.1812 -0.1604
18251TIP3    H176168   1.911   4.227   4.660  0.6031 -1.7555 -0.1275
18251TIP3    H276169   1.957   4.254   4.518 -0.9174  0.5068 -0.2448
18252TIP3   OH276170   0.555   3.947   0.220  0.4876  0.2305 -0.1294
18252TIP3    H176171   0.639   3.937   0.175 -0.2252  0.7998 -1.6451
18252TIP3    H276172   0.561   4.032   0.265  1.6348 -0.8430  1.9186
18253TIP3   OH276173   6.178   3.695   5.077  0.6188 -0.2987  0.4806
18253TIP3    H176174   6.125   3.736   5.009  1.0236  0.1467  0.4296
18253TIP3    H276175   6.124   3.624   5.110 -0.6314  1.0354  1.4403
18254TIP3   OH276176   0.219   2.983   1.257  0.1200 -0.3198  0.0247
18254TIP3    H176177   0.310   2.959   1.277  0.8009  2.1909  0.2554
18254TIP3    H276178   0.199   3.055   1.317 -1.5339  0.1370 -0.9960
18255TIP3   OH276179   3.359   4.240   0.343  0.6488 -0.6765 -0.6585
18255TIP3    H176180   3.298   4.268   0.274  1.7871  1.5922 -0.8530
18255TIP3    H276181   3.350   4.307   0.411  1.2965 -1.5559  0.3228
18256TIP3   OH276182   3.420   1.024  16.295  0.1044  1.0686  0.1574
18256TIP3    H176183   3.383   1.031  16.207  0.5170  2.1045  0.0575
18256TIP3    H276184   3.496   0.967  16.284 -0.9110 -0.3747  0.2107
18257TIP3   OH276185   6.106   3.094   0.395 -0.2565  0.0016 -0.0957
18257TIP3    H176186   6.167   3.022   0.381  2.5111  2.4729 -1.8410
18257TIP3    H276187   6.066   3.109   0.309 -0.9223  0.4687  0.2855
18258TIP3   OH276188   2.902   1.334  16.364  0.5891  0.7220 -0.0724
18258TIP3    H176189   2.870   1.333  16.274  1.1640 -0.2725 -0.2762
18258TIP3    H276190   2.997   1.329  16.357  0.6451  0.6946  0.5809
18259TIP3   OH276191   1.648   1.929   4.885  0.1914 -0.0416 -0.1317
18259TIP3    H176192   1.646   1.865   4.957  1.0242 -0.9543 -0.8819
18259TIP3    H276193   1.738   1.961   4.885  1.0618 -2.1592 -2.4899
18260TIP3   OH276194   2.733   4.413  14.317 -0.1031 -0.2965  0.1714
18260TIP3    H176195   2.744   4.461  14.236  0.0940 -0.2472  0.2279
18260TIP3    H276196   2.639   4.396  14.323 -0.1835  0.1639  0.1994
18261TIP3   OH276197   5.552   4.805  12.901 -0.7243  0.4325 -0.0980
18261TIP3    H176198   5.501   4.759  12.834 -2.1406 -0.1191  1.2920
18261TIP3    H276199   5.508   4.782  12.984  1.1617  0.8208  1.0548
18262TIP3   OH276200   6.596   3.511  12.274  0.3255  0.2077 -0.4238
18262TIP3    H176201   6.600   3.426  12.318  1.2964 -0.0812 -1.0338
18262TIP3    H276202   6.660   3.565  12.321 -1.2170  1.0619  0.8239
18263TIP3   OH276203   6.114   4.773   3.736  0.2993  0.0134 -0.1406
18263TIP3    H176204   6.205   4.747   3.722  0.7188  1.5015 -0.2932
18263TIP3    H276205   6.118   4.865   3.760 -1.3271  0.8820 -2.7061
18264TIP3   OH276206   2.953   5.654   2.130  0.4857 -0.2647  0.3143
18264TIP3    H176207   2.998   5.723   2.080  0.1342  0.7680  1.3718
18264TIP3    H276208   2.861   5.677   2.125  0.1633 -1.6671 -0.7811
18265TIP3   OH276209   2.152   1.134   0.352  0.7287  0.1851  0.5398
18265TIP3    H176210   2.216   1.122   0.282  0.8026  0.6159  0.5290
18265TIP3    H276211   2.068   1.143   0.306  0.9675  2.0657  0.3757
18266TIP3   OH276212   3.701   6.333  12.433  0.3002 -0.3462 -0.3276
18266TIP3    H176213   3.609   6.308  12.443  0.0157  0.4569 -0.8405
18266TIP3    H276214   3.744   6.299  12.512  0.1016 -3.0275 -1.2668
18267TIP3   OH276215   3.718   0.473   2.503 -0.7162  0.1137  0.3427
18267TIP3    H176216   3.709   0.443   2.594 -0.6648  1.2473  0.7413
18267TIP3    H276217   3.734   0.393   2.453  3.2818 -0.2890  1.8404
18268TIP3   OH276218   3.805   1.116  10.065 -0.6214 -0.0582 -0.1384
18268TIP3    H176219   3.733   1.125  10.127  0.3969 -1.3327  1.2920
18268TIP3    H276220   3.875   1.075  10.115  0.3658 -0.8252 -2.0475
18269TIP3   OH276221   1.705   2.933  16.056  0.1920  0.5432 -0.2215
18269TIP3    H176222   1.689   2.935  15.962  0.5282  0.0325 -0.2913
18269TIP3    H276223   1.622   2.905  16.094 -0.0271  1.0144 -0.3385
18270TIP3   OH276224   2.084   5.821  14.465 -0.0745 -0.9020 -0.5410
18270TIP3    H176225   2.032   5.868  14.400 -1.9382  1.4248  2.3924
18270TIP3    H276226   2.155   5.881  14.487  0.2791 -1.4718 -0.1008
18271TIP3   OH276227   6.558   2.087   6.348 -0.5002 -0.3311  0.0320
18271TIP3    H176228   6.524   2.024   6.411 -2.8953  0.2165 -0.6048
18271TIP3    H276229   6.526   2.172   6.380  0.7317  0.3139 -0.3715
18272TIP3   OH276230   3.223   6.374  15.874  0.1885 -0.4097  0.1789
18272TIP3    H176231   3.204   6.290  15.833 -2.3888  1.6158 -3.2392
18272TIP3    H276232   3.159   6.381  15.946 -1.1282 -0.4979 -0.9466
18273TIP3   OH276233   0.381   1.042  11.815 -0.2830 -0.2597  0.3098
18273TIP3    H176234   0.450   1.033  11.749  2.0608 -0.2697  2.5923
18273TIP3    H276235   0.327   0.964  11.804  0.4686 -0.6093 -1.1257
18274TIP3   OH276236   1.122   2.932   4.540  0.1420 -0.0941 -0.2850
18274TIP3    H176237   1.183   2.999   4.569 -0.2923 -0.3028  1.1733
18274TIP3    H276238   1.036   2.963   4.568 -0.6215  0.6485 -3.1313
18275TIP3   OH276239   6.319   3.627  16.054  0.1885  0.1192 -0.1650
18275TIP3    H176240   6.245   3.688  16.064  1.2338  1.3536  0.3399
18275TIP3    H276241   6.357   3.622  16.141  2.5855  2.0262 -0.9969
18276TIP3   OH276242   1.573   2.520   0.296  0.0002  0.3608  0.6033
18276TIP3    H176243   1.575   2.503   0.201 -0.3469  1.2325  0.4298
18276TIP3    H276244   1.480   2.526   0.317  0.0860  0.9724  0.8430
18277TIP3   OH276245   2.215   2.861   5.883 -0.1046  0.8020  0.1292
18277TIP3    H176246   2.235   2.916   5.959  1.5901  0.7074 -0.2102
18277TIP3    H276247   2.195   2.775   5.920 -0.7298  1.1051  0.5277
18278TIP3   OH276248   5.057   1.784  11.726 -0.5521  0.0254 -0.6895
18278TIP3    H176249   5.088   1.824  11.645  0.2199  0.1999 -0.3180
18278TIP3    H276250   5.110   1.704  11.735 -0.2750  0.2703 -0.1053
18279TIP3   OH276251   0.770   1.745   2.600  0.1236 -0.3372  0.2998
18279TIP3    H176252   0.686   1.789   2.591 -0.5656 -1.6076  0.4131
18279TIP3    H276253   0.786   1.705   2.515  2.4633  2.9358 -1.0585
18280TIP3   OH276254   3.068   5.100  14.254 -0.2891 -0.3674 -0.6094
18280TIP3    H176255   3.005   5.045  14.300  0.2780 -0.9588 -0.5164
18280TIP3    H276256   3.100   5.044  14.183  1.6450 -0.8567  0.5710
18281TIP3   OH276257   5.593   1.425   4.176  0.6475 -0.5799 -0.4359
18281TIP3    H176258   5.507   1.415   4.217  0.5788  1.4474 -0.0079
18281TIP3    H276259   5.654   1.383   4.237  0.3000  0.6196  0.7676
18282TIP3   OH276260   3.343   2.141   1.477 -0.2321  0.4432  0.0249
18282TIP3    H176261   3.298   2.059   1.497  0.0011  0.5622  1.1606
18282TIP3    H276262   3.276   2.198   1.441 -0.8761  0.4272  1.1518
18283TIP3   OH276263   1.249   4.085   6.049 -0.5441 -0.2596 -0.0362
18283TIP3    H176264   1.313   4.013   6.048 -1.6161 -1.3218  1.7148
18283TIP3    H276265   1.200   4.071   6.130 -3.2547  0.2656 -1.4863
18284TIP3   OH276266   0.766   3.911  11.392 -0.1220  0.6146 -0.1629
18284TIP3    H176267   0.755   3.822  11.359  0.1247  0.4850  0.0975
18284TIP3    H276268   0.707   3.916  11.467  0.5008  0.3871  0.3496
18285TIP3   OH276269   2.191   5.375   6.801 -0.0723  0.2630  0.3058
18285TIP3    H176270   2.259   5.336   6.855  0.6993 -0.0209 -0.8370
18285TIP3    H276271   2.224   5.462   6.780  0.9592 -0.5820 -1.9283
18286TIP3   OH276272   2.148   1.634   5.717 -0.1776  0.2696 -0.6031
18286TIP3    H176273   2.084   1.563   5.709 -2.5743  2.0782  1.1412
18286TIP3    H276274   2.096   1.714   5.713  2.2548  1.9317 -1.0240
18287TIP3   OH276275   0.029   0.636   5.495  0.2066  0.0718 -0.4534
18287TIP3    H176276   0.044   0.720   5.540  2.8150 -0.1737 -0.6880
18287TIP3    H276277  -0.055   0.647   5.451  0.2394  2.3928 -0.0746
18288TIP3   OH276278   4.227   2.508   5.699  0.3473 -0.1098  0.2413
18288TIP3    H176279   4.166   2.566   5.654  0.5985  0.4458  0.6062
18288TIP3    H276280   4.313   2.545   5.682  0.4472  0.1174  1.1707
18289TIP3   OH276281   3.285   6.493   2.578  0.2469 -0.5031  0.0148
18289TIP3    H176282   3.344   6.522   2.648  0.9791 -1.5807 -0.1370
18289TIP3    H276283   3.218   6.562   2.573  1.1117  0.4053  0.6413
18290TIP3   OH276284   3.463   5.244  11.160  0.0232 -0.0197  0.1816
18290TIP3    H176285   3.411   5.260  11.081  0.3175  0.8219  0.1491
18290TIP3    H276286   3.548   5.215  11.128  0.0530  0.0546  0.1919
18291TIP3   OH276287   6.574   5.102   2.809  0.0986 -0.0491  0.1922
18291TIP3    H176288   6.544   5.085   2.898 -0.6527 -0.4212 -0.1229
18291TIP3    H276289   6.658   5.146   2.820  0.2393 -0.5171  1.0757
18292TIP3   OH276290   1.931   0.769  13.320  0.0351 -0.4370 -0.0190
18292TIP3    H176291   1.853   0.762  13.265  0.5525 -0.0636 -0.8352
18292TIP3    H276292   1.988   0.698  13.290 -0.6953 -1.8709  1.8158
18293TIP3   OH276293   0.717   4.467  13.434  0.3866 -0.6636  0.0294
18293TIP3    H176294   0.646   4.500  13.488  0.1492 -1.0516 -0.0409
18293TIP3    H276295   0.795   4.472  13.490  0.0757 -1.4074  0.5367
18294TIP3   OH276296   5.525   1.719   3.364  0.0521 -0.3638 -0.4377
18294TIP3    H176297   5.450   1.779   3.364  0.3037 -0.0463 -0.3317
18294TIP3    H276298   5.532   1.690   3.273  0.9589  1.0886 -0.8710
18295TIP3   OH276299   1.383   3.562   2.021 -0.3394  0.2721  0.8583
18295TIP3    H176300   1.329   3.596   2.092 -2.0828  0.2754 -0.4080
18295TIP3    H276301   1.324   3.504   1.971  0.9021  0.0548 -0.4278
18296TIP3   OH276302   5.240   0.549  17.220  0.0470  0.0781  0.3792
18296TIP3    H176303   5.321   0.524  17.264  0.2530  0.5320  0.2638
18296TIP3    H276304   5.228   0.483  17.152  1.0230  0.7412 -0.4623
18297TIP3   OH276305   3.464   6.397  12.760 -0.4376 -0.0074 -0.1874
18297TIP3    H176306   3.440   6.381  12.669  0.8564 -3.4527 -0.0671
18297TIP3    H276307   3.385   6.374  12.810 -0.6625  0.4068 -0.3479
18298TIP3   OH276308   1.737   5.276  15.410  0.3667 -0.2399 -0.1899
18298TIP3    H176309   1.711   5.267  15.318 -0.6674 -0.4734  0.1140
18298TIP3    H276310   1.710   5.364  15.434  0.5540 -0.2116 -0.0810
18299TIP3   OH276311   0.063   0.956   5.308 -0.9459 -0.1997 -0.3245
18299TIP3    H176312   0.042   0.883   5.250  1.5285 -0.0379 -1.5586
18299TIP3    H276313   0.039   0.925   5.395  0.5892 -2.7920 -0.7176
18300TIP3   OH276314   4.112   2.623  11.178 -0.5853 -0.5231 -0.0796
18300TIP3    H176315   4.093   2.530  11.181 -0.2943 -0.6813 -1.7811
18300TIP3    H276316   4.198   2.629  11.137  0.3103  0.4309  1.8217
18301TIP3   OH276317   6.655   2.235  16.550  0.1435  0.4723  0.0237
18301TIP3    H176318   6.672   2.153  16.504  0.2036  0.0989  0.7032
18301TIP3    H276319   6.566   2.258  16.526 -1.9007 -2.4827  3.7722
18302TIP3   OH276320   3.271   3.864   6.642  0.3544  0.4501  0.0552
18302TIP3    H176321   3.218   3.939   6.615  0.2549  0.1565 -0.5744
18302TIP3    H276322   3.348   3.902   6.682  0.4861  0.8952 -0.6134
18303TIP3   OH276323   6.631   2.575   5.665 -0.1456  0.5456  0.1774
18303TIP3    H176324   6.589   2.502   5.711  0.8312  0.2930  0.7054
18303TIP3    H276325   6.576   2.651   5.685 -0.5107  0.1739  0.6094
18304TIP3   OH276326   4.011   6.025  13.561  0.5676  0.2250  0.5483
18304TIP3    H176327   4.106   6.017  13.554  0.4460 -1.3280  0.4009
18304TIP3    H276328   3.977   5.975  13.487 -0.3889 -0.8650  1.6789
18305TIP3   OH276329   0.071   1.282  16.387  0.3332 -0.1556 -0.2598
18305TIP3    H176330  -0.007   1.310  16.338 -0.2912 -3.4322 -1.4046
18305TIP3    H276331   0.144   1.302  16.328  0.0188 -0.0679 -0.6286
18306TIP3   OH276332   3.678   5.941   0.577  0.3984 -0.2679  0.3468
18306TIP3    H176333   3.595   5.947   0.624  1.6838  0.8923  2.6681
18306TIP3    H276334   3.669   6.002   0.504 -1.3787 -1.4947 -0.5100
18307TIP3   OH276335   3.487   0.065   6.229  0.0596 -0.4368 -0.1093
18307TIP3    H176336   3.477  -0.027   6.256  0.0579 -0.5686 -0.5497
18307TIP3    H276337   3.424   0.113   6.283 -0.5530 -0.8119 -0.4660
18308TIP3   OH276338   1.266   4.656   0.079  0.6324  0.3405 -0.5797
18308TIP3    H176339   1.291   4.566   0.100  0.0040 -0.0922 -1.6050
18308TIP3    H276340   1.182   4.669   0.125  0.2299  0.0575 -1.2234
18309TIP3   OH276341   3.955   0.316   3.538  0.1754  0.3125 -0.3333
18309TIP3    H176342   3.860   0.310   3.542  0.1697  0.2429 -0.5557
18309TIP3    H276343   3.978   0.383   3.602 -0.0902  1.0015 -0.9557
18310TIP3   OH276344   1.296   1.973  13.901  0.0523  0.5830  0.2856
18310TIP3    H176345   1.339   1.895  13.865  1.8720  1.9762 -0.7630
18310TIP3    H276346   1.209   1.942  13.928  1.0831 -2.0169  0.9432
18311TIP3   OH276347   0.824   3.896   3.176  0.1162  0.8710  0.1534
18311TIP3    H176348   0.849   3.850   3.096 -2.0899  1.2564 -0.8456
18311TIP3    H276349   0.895   3.958   3.192  1.9023 -1.0495  0.0706
18312TIP3   OH276350   3.445   4.227   1.416  0.1473  0.3863 -0.0655
18312TIP3    H176351   3.371   4.253   1.471  0.4572 -0.7838  0.9489
18312TIP3    H276352   3.477   4.309   1.378 -1.6096  0.9119 -0.4659
18313TIP3   OH276353   4.946   6.547   1.647 -0.0044 -0.5221  0.4591
18313TIP3    H176354   4.868   6.532   1.700 -0.1514  1.7743  0.9948
18313TIP3    H276355   5.019   6.534   1.708 -0.0046 -1.3997  0.2844
18314TIP3   OH276356   1.388   5.203  13.695  0.1127  0.1993  0.1870
18314TIP3    H176357   1.384   5.158  13.610  0.7073 -2.7537  1.5654
18314TIP3    H276358   1.475   5.180  13.729 -0.4616  0.5299  1.9678
18315TIP3   OH276359   6.375   0.068   5.695 -0.1999 -0.6053  0.1750
18315TIP3    H176360   6.468   0.079   5.715 -0.0692 -0.9394 -0.2291
18315TIP3    H276361   6.351   0.149   5.649 -0.1712 -0.4107  0.5004
18316TIP3   OH276362   4.230   2.242   2.873  0.5482  0.3260 -0.2450
18316TIP3    H176363   4.271   2.250   2.959 -0.0476 -1.7656  0.2877
18316TIP3    H276364   4.257   2.321   2.826 -2.3355  3.6560  3.0865
18317TIP3   OH276365   0.967   6.114  16.984  0.2171  0.5447  0.5238
18317TIP3    H176366   0.872   6.106  16.982  0.3524 -1.9008  0.3481
18317TIP3    H276367   0.984   6.206  16.965 -2.1098  1.1826  1.2281
18318TIP3   OH276368   2.202   1.898  16.890  0.0599 -0.2748 -0.4801
18318TIP3    H176369   2.265   1.966  16.912  1.7531 -1.6591 -0.7484
18318TIP3    H276370   2.118   1.930  16.922  0.8308  1.8107 -0.4346
18319TIP3   OH276371   5.969   3.416  16.100 -0.3774 -0.4676  0.2775
18319TIP3    H176372   6.008   3.355  16.037  2.8500 -0.0823  1.6758
18319TIP3    H276373   5.970   3.368  16.183  3.8249  1.6792  1.8066
18320TIP3   OH276374   2.113   1.161   3.085 -0.3082  0.2778 -0.4419
18320TIP3    H176375   2.043   1.102   3.113  1.2721 -1.3190  0.3526
18320TIP3    H276376   2.172   1.105   3.034  1.8041  0.8638  1.2474
18321TIP3   OH276377   5.192   4.996  12.687 -0.6163 -0.0673 -0.0881
18321TIP3    H176378   5.120   5.019  12.745 -0.4869 -1.4030  0.6531
18321TIP3    H276379   5.155   5.000  12.599 -0.7632  2.1802  0.0121
18322TIP3   OH276380   0.596   3.180   0.572  0.4208 -1.1696 -0.2354
18322TIP3    H176381   0.612   3.132   0.654  0.4430 -0.5136  0.1452
18322TIP3    H276382   0.513   3.146   0.540  0.9974 -2.3133 -0.5777
18323TIP3   OH276383   2.352   6.197  11.008 -0.0115 -0.0602  0.5842
18323TIP3    H176384   2.434   6.246  11.003  0.4273 -0.8555 -0.2973
18323TIP3    H276385   2.284   6.262  10.989  0.5808  0.1542 -0.9782
18324TIP3   OH276386   2.670   0.151  13.556 -0.2719  0.5667 -0.2182
18324TIP3    H176387   2.678   0.185  13.645 -1.0145 -1.2563  0.5881
18324TIP3    H276388   2.625   0.221  13.508  1.3359  2.1346  0.4401
18325TIP3   OH276389   2.513   6.178  14.107  0.3993 -0.2613  0.0934
18325TIP3    H176390   2.494   6.100  14.158 -3.4409 -0.4314 -1.2891
18325TIP3    H276391   2.559   6.145  14.030 -0.3802 -1.0645 -0.0477
18326TIP3   OH276392   3.235   0.082  14.393  0.8951 -0.4046  0.2679
18326TIP3    H176393   3.216   0.125  14.309  0.9359  0.5361  0.7341
18326TIP3    H276394   3.312   0.128  14.426  0.6463 -0.5149  1.0122
18327TIP3   OH276395   0.305   3.459   2.748  0.3369 -0.2636 -0.4223
18327TIP3    H176396   0.227   3.506   2.719  0.7794  0.8633  0.1382
18327TIP3    H276397   0.317   3.389   2.683  0.0198  0.7903 -1.6617
18328TIP3   OH276398   5.600   4.378   6.914 -0.1993  0.1394 -0.0797
18328TIP3    H176399   5.600   4.302   6.856 -0.1007  1.4183 -1.8307
18328TIP3    H276400   5.562   4.346   6.996 -0.7034 -1.6343 -0.9691
18329TIP3   OH276401   1.260   5.603   1.624  0.3736  0.2810 -0.1468
18329TIP3    H176402   1.301   5.552   1.693 -0.6577  0.5556  0.6897
18329TIP3    H276403   1.166   5.587   1.633  0.2603 -0.6466 -2.2647
18330TIP3   OH276404   6.003   3.559   0.984 -0.8203  0.8394  0.2551
18330TIP3    H176405   6.000   3.565   1.080 -0.4694 -0.8831  0.4194
18330TIP3    H276406   5.925   3.509   0.961 -0.1522 -0.0327 -0.1921
18331TIP3   OH276407   4.068   3.703  15.771 -0.2889 -0.4131  0.1711
18331TIP3    H176408   4.041   3.712  15.862  1.7010 -0.7101  0.8141
18331TIP3    H276409   4.011   3.764  15.723 -1.8219 -0.7463  1.4731
18332TIP3   OH276410   2.295   3.376  15.195  0.3295 -0.0020 -0.4483
18332TIP3    H176411   2.310   3.443  15.262 -1.1186 -1.8585  1.9036
18332TIP3    H276412   2.359   3.396  15.127  1.3847  2.4702  1.1088
18333TIP3   OH276413   6.044   5.188   3.165 -0.1394 -0.3988 -0.2048
18333TIP3    H176414   6.048   5.103   3.208 -1.4554 -0.1182  0.5422
18333TIP3    H276415   5.962   5.186   3.115 -0.6455  0.7224  0.5276
18334TIP3   OH276416   0.924   0.114  13.195 -0.0976  0.4905 -0.0573
18334TIP3    H176417   0.912   0.122  13.290  2.8372  2.8578  0.2891
18334TIP3    H276418   0.835   0.113  13.159 -1.2883  0.1460  2.6708
18335TIP3   OH276419   4.999   2.114   6.848 -0.0282 -0.2290  0.0070
18335TIP3    H176420   4.935   2.154   6.789  0.1704 -1.1425 -0.8605
18335TIP3    H276421   5.049   2.055   6.792  0.3418 -0.9293  1.0503
18336TIP3   OH276422   2.198   1.779   3.289  0.2692  0.1106 -0.2614
18336TIP3    H176423   2.167   1.782   3.198  1.2095  1.5059 -0.5613
18336TIP3    H276424   2.285   1.819   3.286 -0.0413  0.9743  1.4061
18337TIP3   OH276425   0.840   5.295  14.958 -0.2770  0.3234 -0.1034
18337TIP3    H176426   0.835   5.389  14.944  2.0981  0.3920 -0.8902
18337TIP3    H276427   0.768   5.259  14.906  0.5751  1.5287 -2.2387
18338TIP3   OH276428   1.767   4.642  14.718  0.0683 -0.2172 -0.1879
18338TIP3    H176429   1.674   4.658  14.705 -0.1568 -1.6694 -0.5826
18338TIP3    H276430   1.775   4.546  14.722  1.3836 -0.0890  1.0914
18339TIP3   OH276431   1.336   2.609   4.593  0.1384 -0.1903  0.2756
18339TIP3    H176432   1.398   2.668   4.635 -1.1822  1.4186  0.0857
18339TIP3    H276433   1.305   2.552   4.663 -0.1943  0.8174  0.9705
18340TIP3   OH276434   3.868   2.928   0.880  0.7105  0.3879  0.3239
18340TIP3    H176435   3.859   2.885   0.795  2.8910 -1.1287  0.7743
18340TIP3    H276436   3.937   2.993   0.867  0.4391  0.7536  0.7034
18341TIP3   OH276437   5.269   5.703  15.427  0.1129  0.8117  0.0142
18341TIP3    H176438   5.231   5.684  15.513  0.7291 -0.1536  0.0884
18341TIP3    H276439   5.356   5.664  15.430  0.0450  0.5310 -1.1489
18342TIP3   OH276440   4.180   0.448  12.632 -0.4153 -0.0014  0.0749
18342TIP3    H176441   4.246   0.485  12.573  1.4602 -1.1020  1.3841
18342TIP3    H276442   4.101   0.442  12.578  1.3491 -1.5507 -2.5741
18343TIP3   OH276443   4.968   0.006  12.484 -0.2049  0.3846 -0.7979
18343TIP3    H176444   4.899  -0.055  12.509  0.5595  0.1378  0.9199
18343TIP3    H276445   4.983   0.058  12.564  2.2505 -0.2553 -0.7618
18344TIP3   OH276446   5.038   0.629   0.025 -0.1510 -0.7058  0.3163
18344TIP3    H176447   5.103   0.599  -0.038 -0.5153  1.3082 -1.0990
18344TIP3    H276448   5.070   0.596   0.109  3.3219  1.0205 -0.1207
18345TIP3   OH276449   2.368   0.072   4.596  0.0310 -0.0821  0.0233
18345TIP3    H176450   2.380  -0.009   4.645  0.4662  0.4907  0.8859
18345TIP3    H276451   2.447   0.080   4.543  0.5563  0.4008  0.8654
18346TIP3   OH276452   1.309   4.651  15.444 -0.1391  0.1693  0.1931
18346TIP3    H176453   1.377   4.645  15.512  0.6390 -3.1093 -0.6954
18346TIP3    H276454   1.269   4.564  15.444 -0.8649  0.4293 -2.7909
18347TIP3   OH276455   5.076   1.802  12.344 -0.0134  0.4818 -0.5969
18347TIP3    H176456   5.037   1.747  12.412  0.0922  0.2563 -0.7202
18347TIP3    H276457   5.033   1.776  12.263 -0.4273  1.0300 -0.5587
18348TIP3   OH276458   0.529   3.072   5.333  0.3643 -0.3926 -0.0367
18348TIP3    H176459   0.481   3.076   5.250  0.2332 -1.1345  0.0020
18348TIP3    H276460   0.613   3.113   5.314  0.6806 -1.3672 -0.7826
18349TIP3   OH276461   4.951   5.092   4.219  0.1865 -0.6357 -0.2067
18349TIP3    H176462   5.011   5.067   4.289 -0.3817  0.4179  0.7011
18349TIP3    H276463   4.968   5.029   4.149  2.0169 -0.6547  0.1900
18350TIP3   OH276464   0.329   3.126   0.937  0.0715 -0.1271 -0.5051
18350TIP3    H176465   0.386   3.059   0.901 -0.0462 -0.5408  0.0594
18350TIP3    H276466   0.270   3.078   0.995  0.6374  0.5780  0.6947
18351TIP3   OH276467   3.481   0.805   4.605 -1.1693  0.0407  0.0648
18351TIP3    H176468   3.527   0.724   4.626 -0.8856 -0.0991 -1.0431
18351TIP3    H276469   3.389   0.780   4.602 -0.9780 -0.6221 -1.7676
18352TIP3   OH276470   2.180   3.326  16.787 -0.2248  0.2874  0.0172
18352TIP3    H176471   2.177   3.358  16.697 -0.2203 -0.9292 -0.4329
18352TIP3    H276472   2.234   3.389  16.833 -0.7306  1.2559 -0.6897
18353TIP3   OH276473   0.527   4.336  16.587  0.1695 -0.3181 -0.0817
18353TIP3    H176474   0.484   4.404  16.639 -1.3229 -0.1022 -1.5368
18353TIP3    H276475   0.574   4.383  16.519  0.0018 -0.7037 -0.4648
18354TIP3   OH276476   5.379   4.858   1.797  0.3900  0.0490  0.1172
18354TIP3    H176477   5.322   4.795   1.753  0.3748  0.3795 -0.3433
18354TIP3    H276478   5.468   4.832   1.770  0.4955 -0.7105  1.1505
18355TIP3   OH276479   6.707   4.040   0.389 -0.2269 -0.2299 -0.1130
18355TIP3    H176480   6.794   4.071   0.411 -0.9058  2.1893 -0.5453
18355TIP3    H276481   6.721   3.976   0.319  1.2878 -1.3675  1.1706
18356TIP3   OH276482   0.625   5.224  14.409  0.3576 -0.9126 -0.0128
18356TIP3    H176483   0.583   5.140  14.391  1.9482 -1.9084  0.8107
18356TIP3    H276484   0.628   5.230  14.504 -0.2837  0.3863 -0.0492
18357TIP3   OH276485   1.607   2.833   1.877  0.3133  0.4739 -0.1962
18357TIP3    H176486   1.633   2.832   1.969  0.9782  0.9763 -0.3640
18357TIP3    H276487   1.615   2.925   1.851  0.0622  0.3478 -0.7378
18358TIP3   OH276488   4.831   2.486  15.181  0.3014 -0.3382 -0.2966
18358TIP3    H176489   4.904   2.542  15.209 -0.4745  1.0403 -0.8943
18358TIP3    H276490   4.802   2.443  15.260  1.6107 -0.7341 -0.0016
18359TIP3   OH276491   1.305   3.185   1.154  0.2984  0.1864 -0.0329
18359TIP3    H176492   1.381   3.191   1.212  1.7811 -0.1883 -1.8045
18359TIP3    H276493   1.282   3.092   1.154  1.5792 -0.1779 -1.4845
18360TIP3   OH276494   5.091   2.072  11.738 -0.1080  0.0031  0.1850
18360TIP3    H176495   5.067   1.980  11.745 -1.7473  0.2114 -1.7833
18360TIP3    H276496   5.177   2.071  11.696  0.1114 -0.6292  0.6354
18361TIP3   OH276497   1.299   5.793   1.403  0.2127  0.7812 -0.6612
18361TIP3    H176498   1.294   5.729   1.474 -1.9222  0.7700 -0.7768
18361TIP3    H276499   1.291   5.741   1.323  0.6266  0.9927 -0.8436
18362TIP3   OH276500   5.956   6.207  11.923 -0.3257  0.1495 -0.0578
18362TIP3    H176501   5.944   6.216  11.828 -2.2904  1.8759  0.2780
18362TIP3    H276502   5.902   6.276  11.960 -0.5894 -1.2793  2.3941
18363TIP3   OH276503   3.850   2.876   1.184  0.4207 -0.4538 -0.0777
18363TIP3    H176504   3.822   2.933   1.256  0.7946  0.2174 -0.4590
18363TIP3    H276505   3.938   2.848   1.208  0.9812  0.6527 -0.7854
18364TIP3   OH276506   2.581   5.823   5.076 -0.2677  0.1921  0.1759
18364TIP3    H176507   2.505   5.804   5.021 -1.4970 -2.7711  2.6004
18364TIP3    H276508   2.654   5.776   5.034 -0.4126  0.6195 -0.5776
18365TIP3   OH276509   5.464   1.629   3.121 -0.0122  0.4303 -0.3378
18365TIP3    H176510   5.427   1.710   3.084 -0.7519  0.2759  0.0475
18365TIP3    H276511   5.403   1.561   3.094  1.5451 -0.3170 -2.2027
18366TIP3   OH276512   1.418   3.728   1.083 -0.3563 -0.1254 -0.2005
18366TIP3    H176513   1.375   3.685   1.008  0.3299 -1.0143 -0.1039
18366TIP3    H276514   1.501   3.681   1.093  0.0063  0.6446  0.4978
18367TIP3   OH276515   4.741   1.088  13.988 -0.1914 -0.5064  0.0830
18367TIP3    H176516   4.781   1.129  14.064 -1.9387  0.0955  0.7003
18367TIP3    H276517   4.677   1.027  14.023  0.0896 -1.3979 -0.8892
18368TIP3   OH276518   3.361   1.583  11.886 -0.0183  0.5080 -0.9019
18368TIP3    H176519   3.338   1.667  11.845  0.7630  0.3998 -1.5855
18368TIP3    H276520   3.329   1.517  11.824 -1.2817  0.2592 -0.0309
18369TIP3   OH276521   1.855   3.481   4.393  0.3760  0.3840  0.6733
18369TIP3    H176522   1.775   3.449   4.434 -1.0303  1.5264 -1.0253
18369TIP3    H276523   1.881   3.411   4.333 -0.0741  0.5196  0.3146
18370TIP3   OH276524   2.890   1.491  12.280  0.4788  0.1024 -0.3482
18370TIP3    H176525   2.940   1.505  12.360  1.4344 -0.9570 -0.7350
18370TIP3    H276526   2.867   1.579  12.250  1.2998  0.5596  0.3423
18371TIP3   OH276527   2.301   2.197  12.687  0.0987 -0.0372  0.3636
18371TIP3    H176528   2.273   2.111  12.719  1.1889 -1.4770 -2.2432
18371TIP3    H276529   2.253   2.208  12.604  0.6837  1.4359  0.1934
18372TIP3   OH276530   1.573   4.833  13.289 -0.2624 -0.2719  0.4594
18372TIP3    H176531   1.669   4.838  13.286 -0.0709 -2.8577 -0.7413
18372TIP3    H276532   1.544   4.900  13.228  0.9664 -1.4592 -1.5447
18373TIP3   OH276533   1.707   0.340   3.234 -0.3033  0.0838 -0.5684
18373TIP3    H176534   1.742   0.428   3.249  0.0040 -0.3851  1.8708
18373TIP3    H276535   1.653   0.349   3.155 -0.0540  2.3804 -0.5499
18374TIP3   OH276536   4.513   0.667   5.471  0.5602 -0.1734 -0.2328
18374TIP3    H176537   4.466   0.678   5.554  1.1631 -0.9481  0.2313
18374TIP3    H276538   4.498   0.749   5.423 -0.3637  0.0101  0.3502
18375TIP3   OH276539   1.842   4.327   1.722 -0.0116  0.2455  0.1668
18375TIP3    H176540   1.861   4.251   1.668 -1.7519 -0.0639 -0.0814
18375TIP3    H276541   1.812   4.394   1.659 -0.4258  0.4462  0.5725
18376TIP3   OH276542   6.278   6.313   5.536 -0.0770 -0.3346  0.0031
18376TIP3    H176543   6.224   6.375   5.585  1.1149  0.8613 -0.1332
18376TIP3    H276544   6.233   6.303   5.452 -0.0189  0.7786 -0.1796
18377TIP3   OH276545   3.893   2.076   0.481  0.1912 -0.5416 -0.4438
18377TIP3    H176546   3.979   2.114   0.464 -0.3097  0.8334 -0.0116
18377TIP3    H276547   3.857   2.057   0.394  0.3467  0.2342 -0.6807
18378TIP3   OH276548   3.978   3.117   4.099  0.5818  0.2785 -0.2598
18378TIP3    H176549   3.923   3.097   4.023  2.5545 -0.2065 -1.6274
18378TIP3    H276550   4.050   3.169   4.064  0.4009  2.0004  1.7016
18379TIP3   OH276551   1.275   0.728   2.239  0.2007  0.1734 -0.8565
18379TIP3    H176552   1.273   0.794   2.309  0.0777 -0.5982 -0.1077
18379TIP3    H276553   1.346   0.756   2.182  0.0355  1.0501 -0.6596
18380TIP3   OH276554   0.079   0.776   3.937 -0.4550  0.2385 -0.1031
18380TIP3    H176555   0.153   0.789   3.996  0.2682  1.0797 -1.1566
18380TIP3    H276556   0.105   0.702   3.882  0.4736  1.6787 -1.7069
18381TIP3   OH276557   2.667   0.764  15.878  0.0862 -0.4681 -0.7314
18381TIP3    H176558   2.736   0.782  15.814  0.1880  0.8045 -0.2836
18381TIP3    H276559   2.676   0.833  15.943 -1.0944 -0.7627 -0.2330
18382TIP3   OH276560   0.020   5.641  15.483  0.4420 -0.0472  0.2610
18382TIP3    H176561   0.063   5.726  15.477 -0.3724  0.2446 -3.0756
18382TIP3    H276562   0.079   5.581  15.437 -0.3304 -0.7117  0.1252
18383TIP3   OH276563   4.114   3.774  17.218  0.5066  0.2058  0.1708
18383TIP3    H176564   4.099   3.697  17.273 -1.4135 -1.1281 -2.0578
18383TIP3    H276565   4.040   3.831  17.236 -0.2619 -0.3469 -1.1347
18384TIP3   OH276566   2.764   3.142   5.543 -0.0259 -0.3096 -0.1942
18384TIP3    H176567   2.795   3.231   5.528  0.3471 -0.4779 -0.4400
18384TIP3    H276568   2.821   3.108   5.611  0.8812 -0.8971 -1.2173
18385TIP3   OH276569   1.248   4.256  16.817  0.2862 -0.0233 -0.1175
18385TIP3    H176570   1.180   4.214  16.870  0.3416 -0.4335 -0.3646
18385TIP3    H276571   1.214   4.343  16.799 -0.4802 -0.4535 -0.8082
18386TIP3   OH276572   4.541   1.980  13.961 -0.0662 -0.3502 -0.5632
18386TIP3    H176573   4.534   1.933  13.878  0.0256  0.4738 -1.0438
18386TIP3    H276574   4.464   2.037  13.963  0.8342  0.9118 -0.8977
18387TIP3   OH276575   6.669   6.582  17.205  0.9229 -0.3693 -0.3562
18387TIP3    H176576   6.651   6.489  17.193 -1.9624  0.1359 -0.5359
18387TIP3    H276577   6.648   6.598  17.297 -0.9492  0.5082 -0.8889
18388TIP3   OH276578   5.496   5.706   3.295 -0.2525 -0.0913  0.6353
18388TIP3    H176579   5.468   5.647   3.225 -0.8807  1.0171 -0.0725
18388TIP3    H276580   5.579   5.668   3.326 -1.9548 -2.9191  2.1508
18389TIP3   OH276581   4.565   2.020   3.607 -0.3159 -0.2877  0.3615
18389TIP3    H176582   4.574   2.104   3.561 -1.0454 -1.6281 -2.4622
18389TIP3    H276583   4.655   1.988   3.615 -0.1699 -0.0623 -0.2695
18390TIP3   OH276584   2.567   3.511   5.164 -0.2073 -0.2035  0.2336
18390TIP3    H176585   2.565   3.450   5.238  0.3918 -1.5270 -0.7831
18390TIP3    H276586   2.655   3.501   5.128 -0.5175  0.3357 -0.7017
18391TIP3   OH276587   5.775   4.418   4.320 -0.0434  0.0357 -0.1007
18391TIP3    H176588   5.752   4.391   4.409  1.1848 -1.8079 -0.2844
18391TIP3    H276589   5.729   4.356   4.263 -1.2496  1.5255 -0.8147
18392TIP3   OH276590   2.035   4.623   4.281 -0.2542  0.1779 -0.2876
18392TIP3    H176591   2.093   4.578   4.342 -0.5147 -0.9437 -0.8388
18392TIP3    H276592   1.949   4.584   4.296 -0.7154  1.2318 -0.0658
18393TIP3   OH276593   2.522   2.491   4.338  0.0328 -0.6846  0.3560
18393TIP3    H176594   2.587   2.553   4.371  0.5596 -0.8095 -0.4075
18393TIP3    H276595   2.498   2.438   4.414  1.0109 -0.7889  0.6089
18394TIP3   OH276596   6.761   6.455   5.799 -0.1550  0.2710  0.1478
18394TIP3    H176597   6.756   6.379   5.741  0.8606  0.5622 -0.3510
18394TIP3    H276598   6.748   6.420   5.887 -0.9751 -0.2880 -0.1824
18395TIP3   OH276599   2.261   4.260  12.991 -0.2476  0.3007 -0.0540
18395TIP3    H176600   2.229   4.170  12.988 -1.2388  0.6731 -0.9109
18395TIP3    H276601   2.241   4.296  12.904  0.8877  1.0964 -0.0081
18396TIP3   OH276602   6.696   3.755   3.646 -0.0428  0.0442 -0.2967
18396TIP3    H176603   6.614   3.770   3.691  1.3608  0.3446  2.3546
18396TIP3    H276604   6.712   3.661   3.656 -0.5112 -0.2134 -1.7206
18397TIP3   OH276605   3.436   4.463   6.153  0.3535 -0.0740  0.1165
18397TIP3    H176606   3.377   4.527   6.112 -0.5288 -1.8093 -1.4541
18397TIP3    H276607   3.432   4.484   6.247  0.3127  2.2977 -0.3417
18398TIP3   OH276608   1.470   0.958  11.443 -0.4831 -0.2745 -0.5597
18398TIP3    H176609   1.385   0.916  11.429 -0.9802  0.4309  0.2992
18398TIP3    H276610   1.480   1.017  11.368 -0.8781 -0.1560 -0.5247
18399TIP3   OH276611   2.075   4.855   6.189 -0.0026  0.6531  0.3004
18399TIP3    H176612   2.069   4.813   6.275 -0.5779  0.5587  0.2195
18399TIP3    H276613   2.090   4.783   6.128  1.3034  0.8155  0.4195
18400TIP3   OH276614   3.642   6.148   1.656 -0.2592  0.1617  0.0512
18400TIP3    H176615   3.738   6.146   1.661  0.0227 -3.2818 -2.7503
18400TIP3    H276616   3.621   6.240   1.642  2.6106  1.0237  0.6284
18401TIP3   OH276617   1.556   0.523  14.699 -0.5128 -0.1953 -0.0766
18401TIP3    H176618   1.561   0.499  14.606 -0.6593  2.1232 -0.7369
18401TIP3    H276619   1.500   0.600  14.701  0.2992  0.3934  1.8171
18402TIP3   OH276620   1.186   2.110   1.486 -0.0141 -0.9276 -0.3591
18402TIP3    H176621   1.275   2.145   1.491  0.9315 -2.9878 -1.3178
18402TIP3    H276622   1.189   2.031   1.540 -0.7873 -1.8860 -1.6737
18403TIP3   OH276623   6.512   0.530   5.227 -0.1873  0.0897 -0.3404
18403TIP3    H176624   6.483   0.562   5.141  0.2455 -2.3271 -1.4811
18403TIP3    H276625   6.589   0.475   5.207 -1.3191 -2.2498  1.2709
18404TIP3   OH276626   3.224   5.131   4.675  0.1133 -0.1406  0.2752
18404TIP3    H176627   3.147   5.121   4.619  0.1095 -1.8066  0.5368
18404TIP3    H276628   3.298   5.139   4.614 -0.2719  2.0912  0.0094
18405TIP3   OH276629   5.358   5.878   2.194  0.3427  0.1438  0.0035
18405TIP3    H176630   5.393   5.966   2.184  0.2255  0.3906  1.5963
18405TIP3    H276631   5.323   5.875   2.283 -0.8493 -1.0998 -0.4672
18406TIP3   OH276632   5.765   0.148  12.030 -0.1965 -1.0679  0.4233
18406TIP3    H176633   5.718   0.232  12.027 -0.4819 -1.1788  1.4910
18406TIP3    H276634   5.849   0.167  11.987  0.0511 -0.0054  1.2980
18407TIP3   OH276635   3.487   0.779  12.591 -0.2787  0.2271  0.4700
18407TIP3    H176636   3.562   0.764  12.533  0.8908  0.7198  1.8131
18407TIP3    H276637   3.461   0.869  12.574 -0.8348 -0.0662 -0.2799
18408TIP3   OH276638   2.308   1.369   0.220 -0.0697 -0.2727 -0.2353
18408TIP3    H176639   2.375   1.396   0.157  0.4727 -1.2946 -0.1083
18408TIP3    H276640   2.333   1.413   0.301 -0.3381  0.4385 -0.5301
18409TIP3   OH276641   6.265   6.183   3.010 -0.3523 -0.3086 -0.4204
18409TIP3    H176642   6.272   6.274   2.980 -0.8282 -0.2693 -0.4188
18409TIP3    H276643   6.211   6.140   2.943 -2.0852 -0.0361  0.7662
18410TIP3   OH276644   1.896   1.945   3.539  0.1737  0.4303 -0.5663
18410TIP3    H176645   1.852   2.021   3.500  1.5445  1.3422 -0.3917
18410TIP3    H276646   1.915   1.888   3.465  0.9356  1.2065 -0.9836
18411TIP3   OH276647   0.495   2.003  14.151  0.4770 -0.6562  0.5997
18411TIP3    H176648   0.486   2.071  14.218  2.0777  0.6087 -0.4060
18411TIP3    H276649   0.585   2.011  14.120  0.3439 -2.4617 -0.4121
18412TIP3   OH276650   4.810   5.526   0.573  0.2588 -0.2391 -0.1208
18412TIP3    H176651   4.722   5.507   0.605  0.4526  0.3203  0.7646
18412TIP3    H276652   4.824   5.463   0.502 -1.0359 -0.0121 -0.5971
18413TIP3   OH276653   2.670   5.156  10.872  0.2943 -0.7603  0.1894
18413TIP3    H176654   2.637   5.147  10.783  0.4300 -0.5733  0.1187
18413TIP3    H276655   2.745   5.097  10.877  0.2084 -0.8663  0.2185
18414TIP3   OH276656   0.213   2.314   3.221  0.8592  0.0113  0.7226
18414TIP3    H176657   0.184   2.403   3.240  1.5940  0.6771 -1.0409
18414TIP3    H276658   0.309   2.317   3.230  1.0071 -0.2473 -0.5401
18415TIP3   OH276659   4.280   4.756   1.615 -0.0451  0.0387 -0.3134
18415TIP3    H176660   4.340   4.817   1.571 -0.1632  1.2903  1.1615
18415TIP3    H276661   4.335   4.712   1.680 -0.2564 -0.4867 -0.4828
18416TIP3   OH276662   3.198   3.915  10.604  0.2760  0.1557 -0.0148
18416TIP3    H176663   3.122   3.901  10.547 -0.8983  1.8671  1.0254
18416TIP3    H276664   3.166   3.975  10.672  2.5109  0.7635  0.5851
18417TIP3   OH276665   3.708   3.951  13.709  0.5025 -0.2168 -0.0979
18417TIP3    H176666   3.705   3.936  13.614  0.6813 -2.8673  0.2530
18417TIP3    H276667   3.622   3.987  13.730  1.2049  2.5567 -1.5078
18418TIP3   OH276668   4.217   2.134  14.743  0.2723  0.0151  0.1103
18418TIP3    H176669   4.135   2.092  14.769  1.1547 -1.6700  0.2872
18418TIP3    H276670   4.226   2.114  14.650  0.5591  0.0598  0.1289
18419TIP3   OH276671   3.506   1.882   5.200 -0.1309 -0.2072  0.4451
18419TIP3    H176672   3.487   1.859   5.109  1.2342 -2.2457  0.6119
18419TIP3    H276673   3.420   1.886   5.242 -0.6575 -1.6018 -0.4405
18420TIP3   OH276674   2.086   0.753  11.813 -0.0134 -0.2061 -0.0265
18420TIP3    H176675   2.103   0.706  11.732  1.0439 -1.1004  0.6954
18420TIP3    H276676   2.094   0.845  11.790 -0.4485 -0.4199 -1.0829
18421TIP3   OH276677   0.372   6.049   1.576  0.0494  0.2824 -0.4244
18421TIP3    H176678   0.299   5.997   1.609  0.0744  0.2931 -0.3525
18421TIP3    H276679   0.437   5.985   1.549  0.4367  0.2836  0.4610
18422TIP3   OH276680   1.465   5.274   3.591 -0.3143 -0.6220 -0.3377
18422TIP3    H176681   1.552   5.313   3.586 -1.1860  2.2052  2.8823
18422TIP3    H276682   1.411   5.327   3.533 -0.5773  0.0676  0.5139
18423TIP3   OH276683   0.382   3.989   4.880  0.0306 -0.1140 -0.2176
18423TIP3    H176684   0.461   4.041   4.895 -0.1743 -0.3138  1.8614
18423TIP3    H276685   0.316   4.052   4.852  0.1792  0.5568  0.8722
18424TIP3   OH276686   0.223   2.392   1.594  0.0483  0.3303  0.4984
18424TIP3    H176687   0.180   2.330   1.654 -0.5987 -0.4009 -0.6758
18424TIP3    H276688   0.316   2.388   1.618 -0.0363 -0.8250  0.6834
18425TIP3   OH276689   5.545   3.243   0.798  0.1124 -0.1841 -0.0321
18425TIP3    H176690   5.576   3.153   0.797 -2.1086 -1.0074 -0.6151
18425TIP3    H276691   5.545   3.270   0.706  2.4300  1.1005  0.2616
18426TIP3   OH276692   5.536   2.735  15.050 -0.3803 -0.4765 -0.0506
18426TIP3    H176693   5.586   2.680  14.990  0.6840  0.3328  0.0583
18426TIP3    H276694   5.479   2.787  14.994  2.2194  1.9421 -0.6773
18427TIP3   OH276695   5.101   2.897  15.031 -0.7684  0.7940  0.0484
18427TIP3    H176696   5.038   2.957  14.992  0.4454  2.1086  0.0304
18427TIP3    H276697   5.083   2.901  15.125 -1.8659 -0.2432 -0.0876
18428TIP3   OH276698   2.535   1.723   4.660 -0.1811  0.3456  0.8752
18428TIP3    H176699   2.522   1.631   4.684  1.7384 -0.4935 -0.9416
18428TIP3    H276700   2.450   1.764   4.673 -1.2917 -1.8674  1.0436
18429TIP3   OH276701   1.461   0.289  14.414 -0.1370  1.1922  0.2165
18429TIP3    H176702   1.367   0.286  14.398  0.0037  1.4769 -0.7386
18429TIP3    H276703   1.483   0.382  14.411 -0.6398  1.7868  5.7849
18430TIP3   OH276704   3.150   4.525   4.307 -0.2882 -0.0995 -0.0720
18430TIP3    H176705   3.212   4.464   4.267 -0.8693 -0.5090 -0.3809
18430TIP3    H276706   3.103   4.563   4.233  0.0027  0.6504  0.1289
18431TIP3   OH276707   1.559   2.183  12.276  0.3275 -0.3329  0.1755
18431TIP3    H176708   1.614   2.224  12.343  0.2465  2.2095 -1.1891
18431TIP3    H276709   1.583   2.228  12.195 -1.8854 -1.0085 -0.9164
18432TIP3   OH276710   3.540   4.726  14.203  0.1196 -0.2021 -0.2412
18432TIP3    H176711   3.484   4.706  14.128 -0.8034  3.1792 -0.6266
18432TIP3    H276712   3.484   4.776  14.262  1.3063 -1.3704  1.9803
18433TIP3   OH276713   0.112   5.548  14.656 -0.0257 -0.0443 -0.2236
18433TIP3    H176714   0.080   5.614  14.595 -2.1385 -2.0086 -1.3959
18433TIP3    H276715   0.184   5.505  14.609 -0.0186  0.0510 -0.2999
18434TIP3   OH276716   4.505   2.106   6.614 -0.1819  0.4293 -0.7842
18434TIP3    H176717   4.596   2.087   6.639  0.2110  0.0687 -2.3638
18434TIP3    H276718   4.476   2.171   6.678  1.6364  1.5422 -1.0210
18435TIP3   OH276719   0.464   5.774  15.347 -0.3868  0.2793 -0.4071
18435TIP3    H176720   0.465   5.829  15.425  2.6536 -1.2545  0.8002
18435TIP3    H276721   0.432   5.689  15.378  3.2713 -1.1302 -0.0286
18436TIP3   OH276722   6.320   1.524   3.375 -0.1792 -0.1090  0.5927
18436TIP3    H176723   6.258   1.565   3.435 -0.3899 -0.7852  0.8491
18436TIP3    H276724   6.266   1.465   3.322  0.2230 -0.6173  0.7425
18437TIP3   OH276725   0.204   4.813  11.838 -0.1048  0.0435  0.5443
18437TIP3    H176726   0.124   4.834  11.790 -0.2160  1.7134  1.3863
18437TIP3    H276727   0.272   4.863  11.794  0.2447 -0.3537  0.6278
18438TIP3   OH276728   2.849   3.110  15.686  0.1339 -0.0421  0.9371
18438TIP3    H176729   2.772   3.134  15.635  0.5163  0.9055  0.7857
18438TIP3    H276730   2.880   3.193  15.724  1.2621 -0.3427  0.7277
18439TIP3   OH276731   0.658   5.375  16.203  0.2578 -0.3098 -0.3435
18439TIP3    H176732   0.583   5.408  16.154  1.1099 -0.5055 -1.8727
18439TIP3    H276733   0.622   5.308  16.261 -1.0771  1.3025  0.7799
18440TIP3   OH276734   4.127   3.292   6.606 -0.3791  0.3135  0.0079
18440TIP3    H176735   4.158   3.383   6.604 -0.7716  0.5760  2.6714
18440TIP3    H276736   4.194   3.243   6.557  0.6496  1.7990 -0.1298
18441TIP3   OH276737   4.613   3.401  16.222 -0.3437  0.1957 -0.2623
18441TIP3    H176738   4.687   3.346  16.196 -0.3351 -0.2376  0.6270
18441TIP3    H276739   4.539   3.339  16.230  0.2235 -0.1943  3.1856
18442TIP3   OH276740   2.817   6.083   0.849 -0.2317  0.3354 -0.3419
18442TIP3    H176741   2.833   6.173   0.823  1.5290  0.2706  0.3651
18442TIP3    H276742   2.904   6.044   0.856 -0.9819 -1.8671 -2.0470
18443TIP3   OH276743   0.542   0.701   4.724 -0.8382  0.0010  0.0622
18443TIP3    H176744   0.472   0.642   4.696 -1.4942  0.6082  0.3852
18443TIP3    H276745   0.609   0.692   4.656 -2.1703  1.0554 -1.4761
18444TIP3   OH276746   0.867   2.364   4.149 -0.6540  0.6924  0.0976
18444TIP3    H176747   0.819   2.329   4.224  0.1179  2.1025  1.3034
18444TIP3    H276748   0.938   2.415   4.188  0.0209  1.1147 -1.6138
18445TIP3   OH276749   4.576   1.933   0.208 -0.4251 -0.1388 -0.1589
18445TIP3    H176750   4.516   1.952   0.281 -0.9492 -0.2546 -0.5547
18445TIP3    H276751   4.524   1.881   0.147  0.6007 -1.7462  0.2901
18446TIP3   OH276752   4.710   5.276   2.939  0.0916  0.0054 -0.0087
18446TIP3    H176753   4.707   5.267   2.843 -0.6275  0.5964 -0.0435
18446TIP3    H276754   4.712   5.371   2.954 -1.1939 -0.0483  0.5958
18447TIP3   OH276755   1.040   2.197  16.661 -0.3718 -0.2871 -0.7947
18447TIP3    H176756   1.098   2.128  16.632  1.9337  0.8249  0.8708
18447TIP3    H276757   1.059   2.207  16.755 -2.9502  0.4617 -0.2641
18448TIP3   OH276758   6.419   0.369  10.845 -0.0820  0.2286 -0.3978
18448TIP3    H176759   6.497   0.375  10.899 -0.5878 -0.0493  0.3953
18448TIP3    H276760   6.451   0.357  10.756  0.7774  1.2991 -0.2442
18449TIP3   OH276761   2.013   6.741   1.104  0.2130  0.0798 -0.6734
18449TIP3    H176762   2.054   6.692   1.033 -0.3196 -0.2411 -0.7657
18449TIP3    H276763   2.086   6.769   1.159  0.5088 -1.1204 -0.4221
18450TIP3   OH276764   4.977   0.481   4.292  0.3740  0.0590 -0.1025
18450TIP3    H176765   5.006   0.425   4.221 -1.5144 -1.0430 -0.0621
18450TIP3    H276766   4.999   0.432   4.372  0.7877  0.4451  0.0303
18451TIP3   OH276767   1.911   5.822  11.513  0.3374  0.1663 -0.3816
18451TIP3    H176768   1.901   5.840  11.607 -0.6891 -1.1729 -0.2008
18451TIP3    H276769   1.920   5.726  11.508 -0.6135  0.1212 -1.7221
18452TIP3   OH276770   6.645   6.643  16.215 -0.3722  0.0908  0.2182
18452TIP3    H176771   6.703   6.589  16.162 -1.7933 -0.8604 -0.4216
18452TIP3    H276772   6.628   6.591  16.294 -0.2347  0.4398  0.4855
18453TIP3   OH276773   0.717   3.798  16.602 -0.2388 -0.1063 -0.2327
18453TIP3    H176774   0.664   3.821  16.525 -0.6727 -1.4867 -0.3769
18453TIP3    H276775   0.789   3.746  16.567 -0.7503 -1.2264  0.3313
18454TIP3   OH276776   0.224   0.684   0.501  0.2231  0.2273  0.0132
18454TIP3    H176777   0.225   0.589   0.491 -0.1513  0.3873 -1.8809
18454TIP3    H276778   0.183   0.699   0.586 -0.1311 -1.2847  0.1315
18455TIP3   OH276779   2.546   5.555  12.875 -0.1248 -0.1644  0.1438
18455TIP3    H176780   2.550   5.645  12.908  0.7751 -0.2007  0.1591
18455TIP3    H276781   2.465   5.552  12.824  1.0589  1.3891 -1.9394
18456TIP3   OH276782   4.948   2.116   2.643  0.0444  0.1763  0.4001
18456TIP3    H176783   4.996   2.046   2.599  1.2161  1.5968 -0.6834
18456TIP3    H276784   4.887   2.149   2.577  0.3449  0.9556  0.5002
18457TIP3   OH276785   0.054   3.050   6.064  0.6174  0.0184 -0.2122
18457TIP3    H176786  -0.015   3.055   6.130  0.2989  0.2049 -0.5524
18457TIP3    H276787   0.062   2.957   6.044 -0.9787  0.1485 -1.6554
18458TIP3   OH276788   2.378   1.486  10.502  0.2432 -0.0507 -0.1675
18458TIP3    H176789   2.321   1.422  10.460 -0.5934 -0.0876  0.9778
18458TIP3    H276790   2.465   1.447  10.496 -0.2947 -1.5026  0.8121
18459TIP3   OH276791   5.019   2.931   6.850 -0.1978 -0.1876  0.1903
18459TIP3    H176792   4.943   2.956   6.903 -0.8667 -1.9002  0.0837
18459TIP3    H276793   5.053   2.852   6.892  2.6893  1.5031  1.3374
18460TIP3   OH276794   0.983   6.265   3.468  0.2000 -0.3448 -0.5630
18460TIP3    H176795   0.950   6.348   3.435  0.0307 -0.5004 -0.7925
18460TIP3    H276796   0.906   6.208   3.473  0.1240 -0.1664  0.6292
18461TIP3   OH276797   0.771   4.959  16.380  0.2230 -0.3161 -0.2991
18461TIP3    H176798   0.832   4.976  16.308  0.6590 -0.5316  0.0132
18461TIP3    H276799   0.815   4.995  16.457 -0.6517  0.7642 -0.2697
18462TIP3   OH276800   0.301   0.230  13.071 -0.5522 -0.2720  0.0469
18462TIP3    H176801   0.217   0.191  13.095  0.3569 -2.9822 -0.8010
18462TIP3    H276802   0.309   0.215  12.977  1.0798 -0.5871  0.2001
18463TIP3   OH276803   2.068   6.759   6.065 -0.1517 -0.4689  0.2844
18463TIP3    H176804   2.072   6.822   6.137 -2.5411 -0.1854  0.2502
18463TIP3    H276805   2.122   6.685   6.094  0.0125  0.2113  1.7696
18464TIP3   OH276806   6.119   2.244  15.560  0.0473 -0.1014  0.5232
18464TIP3    H176807   6.046   2.202  15.515 -0.2928  0.4597  0.5420
18464TIP3    H276808   6.198   2.205  15.520 -0.2522 -0.0083 -0.1639
18465TIP3   OH276809   4.484   4.020  11.706 -0.5227 -0.4794  0.1574
18465TIP3    H176810   4.523   3.974  11.780 -0.3196 -0.8713 -0.1875
18465TIP3    H276811   4.439   3.951  11.656 -0.1292 -0.3294 -0.4191
18466TIP3   OH276812   4.298   2.450   2.692  0.1029  0.0521  0.8388
18466TIP3    H176813   4.238   2.506   2.642  1.0456  0.1210 -0.2552
18466TIP3    H276814   4.367   2.510   2.722 -0.0273 -0.1399  1.5345
18467TIP3   OH276815   5.943   4.451   5.623  0.6437 -0.1304  0.3596
18467TIP3    H176816   5.862   4.419   5.583  0.3114  0.6425  0.4090
18467TIP3    H276817   5.914   4.507   5.694  1.2307 -0.2545  0.7013
18468TIP3   OH276818   4.312   1.930   1.115 -0.3798 -0.2742  0.3005
18468TIP3    H176819   4.246   1.880   1.164  0.7248 -0.4955  1.6401
18468TIP3    H276820   4.295   1.908   1.023 -1.7716 -0.8020  0.6544
18469TIP3   OH276821   1.936   5.693  16.743  0.1803  0.0440 -0.2129
18469TIP3    H176822   2.020   5.723  16.777  0.2832  1.7837 -1.8013
18469TIP3    H276823   1.936   5.721  16.651 -1.3560 -1.6122 -0.7788
18470TIP3   OH276824   5.222   0.638   1.007 -0.3557 -0.2022 -0.5411
18470TIP3    H176825   5.282   0.602   1.072 -0.3560  1.2784  0.3349
18470TIP3    H276826   5.272   0.708   0.965 -0.7930 -0.3033 -1.2442
18471TIP3   OH276827   1.547   6.294   0.763  0.3388  0.6094 -0.1378
18471TIP3    H176828   1.452   6.294   0.749  0.3236 -1.4730 -0.3085
18471TIP3    H276829   1.560   6.350   0.839 -0.8992  1.7636 -0.7304
18472TIP3   OH276830   1.068   5.966  10.681  0.8872 -0.6622  1.1223
18472TIP3    H176831   1.143   5.973  10.622  1.0146 -0.5405  1.2967
18472TIP3    H276832   1.036   5.877  10.669 -0.2161 -0.0912 -0.5004
18473TIP3   OH276833   3.625   2.167   3.240  0.1168 -1.1372  0.0798
18473TIP3    H176834   3.595   2.230   3.305  1.6478  0.0250 -0.2701
18473TIP3    H276835   3.676   2.219   3.178  1.8808 -2.7562  0.0576
18474TIP3   OH276836   0.901   4.109  11.602  0.7142 -0.0577 -0.2410
18474TIP3    H176837   0.926   4.170  11.532 -0.7737  0.9866  0.0888
18474TIP3    H276838   0.816   4.074  11.574  0.6197 -0.4744  0.5337
18475TIP3   OH276839   0.238   0.342  14.441  0.4799  0.0868  0.2121
18475TIP3    H176840   0.154   0.387  14.449  0.0951 -0.5661 -0.0970
18475TIP3    H276841   0.221   0.269  14.382  0.9424 -0.8212  1.1643
18476TIP3   OH276842   2.546   6.137  17.321  0.1846  0.4115  0.1933
18476TIP3    H176843   2.581   6.058  17.363  1.9623  0.0179 -1.8402
18476TIP3    H276844   2.465   6.107  17.280  0.1101  0.0123  0.6140
18477TIP3   OH276845   4.702   4.595  14.696  0.3554 -0.1910 -0.3412
18477TIP3    H176846   4.704   4.561  14.786  1.0459  0.4102 -0.1159
18477TIP3    H276847   4.766   4.541  14.649  2.7187  1.7918  0.4149
18478TIP3   OH276848   2.525   1.208  16.916  0.2146 -0.8912 -0.3233
18478TIP3    H176849   2.552   1.181  16.828 -0.2157  0.3530 -0.8720
18478TIP3    H276850   2.445   1.258  16.901 -1.4634 -2.9835  1.0763
18479TIP3   OH276851   2.140   6.015   1.979 -0.0307  0.1352 -0.4940
18479TIP3    H176852   2.104   6.018   1.890 -0.2715  0.0950 -0.3990
18479TIP3    H276853   2.087   6.077   2.028 -0.5533 -0.5714 -0.1459
18480TIP3   OH276854   2.243   2.806   3.637  0.4152  0.3195  1.0727
18480TIP3    H176855   2.261   2.814   3.543  1.0239 -0.7612  1.0848
18480TIP3    H276856   2.182   2.733   3.644 -1.0907  1.5410  1.3894
18481TIP3   OH276857   5.140   1.843   4.051 -0.2164 -0.4904  0.0332
18481TIP3    H176858   5.158   1.793   4.131  1.2290 -1.1463 -0.6644
18481TIP3    H276859   5.082   1.787   4.000  0.2071 -0.8129 -0.0984
18482TIP3   OH276860   2.016   4.944   3.370  0.3095 -0.3961 -0.0695
18482TIP3    H176861   2.084   4.951   3.303  0.7806  0.7938  0.5074
18482TIP3    H276862   2.025   4.855   3.404  0.3540 -0.8665 -1.2655
18483TIP3   OH276863   0.812   5.231  13.825  0.0504  0.8370 -0.3339
18483TIP3    H176864   0.767   5.195  13.749  0.6886  2.7878 -1.7084
18483TIP3    H276865   0.904   5.208  13.812 -0.0027  0.0555  0.5558
18484TIP3   OH276866   4.575   6.644   0.287  0.5605  0.2194 -0.3373
18484TIP3    H176867   4.598   6.735   0.301  1.2633  0.0168 -0.1248
18484TIP3    H276868   4.656   6.596   0.303  0.1025 -0.4782 -0.0309
18485TIP3   OH276869   6.341   4.839  15.079  0.2853 -0.2133  0.8611
18485TIP3    H176870   6.410   4.884  15.130  1.3639 -1.8955  0.9570
18485TIP3    H276871   6.337   4.752  15.117  0.2196 -1.1166 -1.1175
18486TIP3   OH276872   2.464   2.272   3.965  0.0278 -0.3025  0.1924
18486TIP3    H176873   2.471   2.357   3.921  0.1724 -0.9897 -1.1490
18486TIP3    H276874   2.406   2.289   4.039 -2.1997  0.3779 -1.6040
18487TIP3   OH276875   3.367   5.335  11.423  0.5237 -0.3743 -0.1082
18487TIP3    H176876   3.400   5.289  11.499 -2.6362 -3.1104 -0.1715
18487TIP3    H276877   3.394   5.282  11.348  0.5411  0.3244 -0.6142
18488TIP3   OH276878   1.354   5.272  16.380  0.0844 -0.0145 -0.1552
18488TIP3    H176879   1.385   5.281  16.290 -0.6214  1.7734 -0.2681
18488TIP3    H276880   1.338   5.362  16.409 -0.6324 -0.6116  1.4280
18489TIP3   OH276881   6.163   5.819   4.154 -0.5468 -0.5690  0.4040
18489TIP3    H176882   6.090   5.834   4.214  0.8762  2.3219  1.5896
18489TIP3    H276883   6.232   5.780   4.208 -0.3263 -0.9083 -0.1084
18490TIP3   OH276884   1.418   2.287   6.374  0.1031 -0.4023  0.1626
18490TIP3    H176885   1.510   2.315   6.365 -0.0409 -0.3166 -1.3145
18490TIP3    H276886   1.400   2.237   6.295 -1.2695 -0.0306  0.2153
18491TIP3   OH276887   4.164   2.998   2.436  0.2737 -0.0651  0.1437
18491TIP3    H176888   4.083   3.005   2.386 -0.4942 -1.3528  1.1337
18491TIP3    H276889   4.223   3.063   2.397 -1.2522  0.9550 -0.5292
18492TIP3   OH276890   0.020   0.254   4.949  0.3706 -0.2185  0.1055
18492TIP3    H176891  -0.031   0.178   4.978  1.3522 -1.3800 -1.1000
18492TIP3    H276892   0.072   0.222   4.875  0.5194  1.7344 -0.7078
18493TIP3   OH276893   2.151   0.099   0.320 -0.3764  0.2485  0.6441
18493TIP3    H176894   2.145   0.193   0.306 -0.3985  0.2245  0.4942
18493TIP3    H276895   2.136   0.060   0.234 -0.3026  0.1102  0.6929
18494TIP3   OH276896   1.602   3.403  11.560  0.5534 -0.1295  0.7836
18494TIP3    H176897   1.589   3.451  11.642  1.5288  0.7842  0.4343
18494TIP3    H276898   1.547   3.325  11.568 -0.3836  0.6057  1.7459
18495TIP3   OH276899   6.325   3.356   4.888 -0.3971  0.2778  0.1933
18495TIP3    H176900   6.384   3.423   4.853  0.0372 -0.5715 -0.7907
18495TIP3    H276901   6.343   3.354   4.982  1.0394  0.1795 -0.0545
18496TIP3   OH276902   0.174   1.138   5.117  0.2027  0.0649  0.1091
18496TIP3    H176903   0.086   1.147   5.082  1.0629 -0.7013 -2.4588
18496TIP3    H276904   0.173   1.055   5.165 -0.2364 -0.4669 -0.7922
18497TIP3   OH276905   5.808   2.453  13.809 -0.1488  0.2952  0.4546
18497TIP3    H176906   5.782   2.534  13.853 -0.1430  0.3276  0.3981
18497TIP3    H276907   5.774   2.462  13.720 -0.2979  0.1604  0.4965
18498TIP3   OH276908   5.131   4.284   1.009  0.6087  0.6857  0.1049
18498TIP3    H176909   5.224   4.288   0.986  0.7018 -1.0663  0.0418
18498TIP3    H276910   5.087   4.332   0.938  1.4006  0.8204 -0.3036
18499TIP3   OH276911   0.062   4.396  11.351  0.2659  0.2017  0.5786
18499TIP3    H176912   0.142   4.438  11.320  0.3458 -0.0831  0.3916
18499TIP3    H276913   0.011   4.379  11.272  0.5969 -0.7878  0.5633
18500TIP3   OH276914   3.905   0.314   6.515  0.4329  0.0018 -0.3687
18500TIP3    H176915   3.994   0.315   6.550  0.8595 -0.0655 -1.4145
18500TIP3    H276916   3.916   0.316   6.420 -0.6435 -1.3669 -0.5660
18501TIP3   OH276917   6.445   4.124   0.370  0.1536  0.3463  0.2773
18501TIP3    H176918   6.419   4.132   0.278  0.0753 -2.0302  0.0448
18501TIP3    H276919   6.529   4.079   0.367 -0.4162 -0.8373  1.3975
18502TIP3   OH276920   4.752   2.835   4.857  0.0351 -0.7232  0.2066
18502TIP3    H176921   4.766   2.866   4.767  1.0794  2.3620  1.3108
18502TIP3    H276922   4.657   2.829   4.866 -0.0933 -0.8345 -1.0167
18503TIP3   OH276923   4.176   5.739   4.548 -0.0415 -0.1053 -0.1721
18503TIP3    H176924   4.210   5.666   4.600  0.3401 -0.9300 -1.5198
18503TIP3    H276925   4.198   5.817   4.598  0.7163 -0.8427  0.6719
18504TIP3   OH276926   6.159   4.461   2.153 -0.4228 -0.1929  0.2043
18504TIP3    H176927   6.122   4.456   2.241 -0.6943  0.1529  0.1094
18504TIP3    H276928   6.122   4.541   2.115 -0.8005 -0.6676 -0.4499
18505TIP3   OH276929   4.440   3.873   3.646 -0.0299  0.1695 -0.6473
18505TIP3    H176930   4.447   3.951   3.702 -2.4152 -0.1995  0.2872
18505TIP3    H276931   4.421   3.802   3.706  3.8581 -1.6526 -1.2486
18506TIP3   OH276932   6.532   4.450   2.241 -0.0709 -0.2153 -0.0198
18506TIP3    H176933   6.503   4.449   2.150  0.9844  3.7894 -0.6049
18506TIP3    H276934   6.583   4.369   2.251 -0.9076 -1.1870 -2.6960
18507TIP3   OH276935   0.547   4.582  11.415  0.1996 -0.3402 -0.1216
18507TIP3    H176936   0.571   4.660  11.365  2.1758  0.8088  2.4047
18507TIP3    H276937   0.607   4.514  11.384  1.3770  0.3460  0.6027
18508TIP3   OH276938   5.689   3.010   0.764  0.1716  0.0096  0.6101
18508TIP3    H176939   5.744   2.971   0.832  1.3677  1.8375  0.7690
18508TIP3    H276940   5.662   2.936   0.710  0.3946 -1.3063  2.2171
18509TIP3   OH276941   5.902   3.151   1.397 -0.0721 -0.0619  0.3408
18509TIP3    H176942   5.808   3.142   1.411 -0.4939  1.0190 -1.5045
18509TIP3    H276943   5.930   3.212   1.465 -0.9197  0.4748  0.2232
18510TIP3   OH276944   3.179   3.071  15.468 -0.0804 -0.1353 -0.4122
18510TIP3    H176945   3.147   3.148  15.515  2.3100 -0.5169  2.0756
18510TIP3    H276946   3.198   3.104  15.380  1.5108  2.3679  0.7594
18511TIP3   OH276947   2.825   6.729   3.921 -0.0547 -0.1694 -0.3648
18511TIP3    H176948   2.868   6.662   3.974  1.1510  0.6396 -0.2631
18511TIP3    H276949   2.881   6.738   3.843 -0.0284  0.8945 -0.2470
18512TIP3   OH276950   1.749   5.246   1.779  0.5238  0.2352  0.1008
18512TIP3    H176951   1.816   5.234   1.711 -0.2246 -0.3195 -0.5631
18512TIP3    H276952   1.667   5.221   1.736 -0.3889  2.5330  0.3527
18513TIP3   OH276953   5.268   5.737  16.354 -0.5691  0.1641  0.1081
18513TIP3    H176954   5.264   5.826  16.318 -1.2401  0.2064  0.2706
18513TIP3    H276955   5.327   5.690  16.295 -0.7690  0.5288 -0.3899
18514TIP3   OH276956   6.501   2.351  11.787 -0.3392  0.0328 -0.0329
18514TIP3    H176957   6.536   2.297  11.858  1.1237  0.0926 -0.6726
18514TIP3    H276958   6.502   2.293  11.711  0.4075  0.7017 -0.5334
18515TIP3   OH276959   1.287   1.861  15.295 -0.0271  0.6059 -0.0136
18515TIP3    H176960   1.292   1.935  15.355 -0.9086  1.4732 -0.9634
18515TIP3    H276961   1.210   1.812  15.325  0.6325 -0.0341  0.6967
18516TIP3   OH276962   0.812   3.863   0.421 -0.3003  0.0832 -0.5153
18516TIP3    H176963   0.767   3.897   0.344  1.2275 -1.7923 -2.3464
18516TIP3    H276964   0.898   3.906   0.419 -0.7877  1.2451  1.1406
18517TIP3   OH276965   1.512   6.646   3.863  0.1609 -0.0497 -0.3756
18517TIP3    H176966   1.598   6.684   3.846  0.0685  0.1793 -0.3334
18517TIP3    H276967   1.461   6.719   3.898  0.5210 -0.6215  1.4697
18518TIP3   OH276968   0.349   0.462   5.755  0.6694  0.0281 -0.4272
18518TIP3    H176969   0.354   0.425   5.666  0.0328 -0.0867 -0.4211
18518TIP3    H276970   0.324   0.553   5.742  1.4034  0.2399 -0.4002
18519TIP3   OH276971   6.549   6.617   1.985  0.6063 -1.1322  0.0630
18519TIP3    H176972   6.603   6.538   1.976  0.7486 -1.1353  0.8215
18519TIP3    H276973   6.460   6.588   1.963  0.6879 -1.4623  0.1603
18520TIP3   OH276974   5.625   0.832   5.144 -0.1997 -0.1631 -0.9054
18520TIP3    H176975   5.687   0.781   5.195 -0.3617 -0.3764 -0.9188
18520TIP3    H276976   5.640   0.923   5.171  1.0281 -0.0531 -1.8710
18521TIP3   OH276977   4.138   5.634   1.375 -0.3022  0.1102  0.0159
18521TIP3    H176978   4.048   5.621   1.346  0.2551 -1.2124 -1.2362
18521TIP3    H276979   4.187   5.562   1.336  0.9705 -0.3630  2.2925
18522TIP3   OH276980   5.316   1.323   2.147  0.0376 -0.4378  0.1547
18522TIP3    H176981   5.323   1.251   2.209 -1.5237 -1.9064 -1.2586
18522TIP3    H276982   5.395   1.317   2.094  1.0140  0.3596  1.4582
18523TIP3   OH276983   5.886   3.613  16.842 -0.2631  0.0613 -0.2454
18523TIP3    H176984   5.882   3.606  16.937 -0.0357 -0.5203 -0.2753
18523TIP3    H276985   5.835   3.692  16.822 -0.4275  0.1123  0.3436
18524TIP3   OH276986   4.687   0.352  16.903 -0.0596  0.5689  0.2776
18524TIP3    H176987   4.717   0.262  16.891  1.2545  0.8508  1.2772
18524TIP3    H276988   4.665   0.357  16.996  1.7519  1.7960  0.6813
18525TIP3   OH276989   4.684   2.073   5.393  0.1796  0.7562  0.1595
18525TIP3    H176990   4.776   2.083   5.417 -0.0961  2.4829  0.6946
18525TIP3    H276991   4.636   2.107   5.469 -0.8120  2.8232 -1.2687
18526TIP3   OH276992   6.295   3.918   2.459  0.2908  0.0874  0.6735
18526TIP3    H176993   6.202   3.917   2.435  0.0624 -0.2743  1.5120
18526TIP3    H276994   6.339   3.954   2.383 -0.3233 -1.4848 -0.4757
18527TIP3   OH276995   6.174   5.599  16.580 -0.4708 -0.6141  0.2848
18527TIP3    H176996   6.086   5.603  16.618 -0.0176  0.3160  1.2947
18527TIP3    H276997   6.232   5.603  16.655  0.4834  2.3894 -0.4866
18528TIP3   OH276998   1.225   3.216  11.802 -0.4020 -0.7102 -0.3226
18528TIP3    H176999   1.289   3.258  11.744 -0.8423 -0.3681 -0.5760
18528TIP3    H277000   1.151   3.277  11.803 -0.0503 -0.2678  1.3259
18529TIP3   OH277001   2.078   4.178   1.887 -0.1022 -0.4059  0.5513
18529TIP3    H177002   2.029   4.257   1.908  0.8496  0.0292  1.1762
18529TIP3    H277003   2.012   4.109   1.887 -1.3008  0.6132 -1.7855
18530TIP3   OH277004   0.202   2.915  16.269 -0.8107 -0.6404 -0.1838
18530TIP3    H177005   0.180   3.008  16.272  0.4233 -0.3308  0.1889
18530TIP3    H277006   0.174   2.881  16.354  0.4399 -0.1711  0.4379
18531TIP3   OH277007   0.485   3.074  16.371  0.0595 -0.3379 -0.5192
18531TIP3    H177008   0.461   3.032  16.288  0.1822  0.3907 -0.9396
18531TIP3    H277009   0.408   3.064  16.426  0.3525 -1.7556 -0.3331
18532TIP3   OH277010   4.240   5.812  12.576  0.2665 -0.4559 -0.2980
18532TIP3    H177011   4.199   5.882  12.627  1.0556 -0.8763  0.9387
18532TIP3    H277012   4.230   5.840  12.485 -0.5388  0.6501  0.1106
18533TIP3   OH277013   5.275   1.080   4.508 -0.0915 -0.0003  0.0807
18533TIP3    H177014   5.306   1.112   4.593  2.2400  0.1710 -0.7564
18533TIP3    H277015   5.296   0.987   4.509 -0.6911 -0.1367 -0.0494
18534TIP3   OH277016   4.987   6.706   0.800  0.1813 -0.6483  0.0301
18534TIP3    H177017   5.050   6.675   0.865 -0.0303  0.9723  1.0747
18534TIP3    H277018   4.917   6.747   0.852  0.7765  2.1461 -1.1713
18535TIP3   OH277019   4.969   5.701   5.106 -0.5870 -0.0822 -0.5566
18535TIP3    H177020   5.019   5.644   5.048 -0.0723  0.6680 -0.8748
18535TIP3    H277021   5.006   5.788   5.091 -0.7064  0.1893  0.6184
18536TIP3   OH277022   4.545   5.923   4.698  0.1819  0.5068  0.5417
18536TIP3    H177023   4.579   6.012   4.710 -1.5485  1.0456  1.9178
18536TIP3    H277024   4.536   5.889   4.787  0.9909 -1.1460  0.0203
18537TIP3   OH277025   6.567   0.297  14.981  0.2477 -0.1048  0.6588
18537TIP3    H177026   6.511   0.353  15.035  1.3819  1.1833  0.5444
18537TIP3    H277027   6.524   0.296  14.895  0.7214  1.3904  0.3942
18538TIP3   OH277028   5.967   3.340  14.505  0.0733  0.5180 -0.4453
18538TIP3    H177029   5.893   3.382  14.461 -0.7039  1.1422  1.3590
18538TIP3    H277030   5.954   3.360  14.598  1.0122 -1.6771  0.2297
18539TIP3   OH277031   4.626   2.174  12.402 -0.4786 -0.2858 -0.3589
18539TIP3    H177032   4.610   2.250  12.345 -0.3337 -0.3970 -0.5497
18539TIP3    H277033   4.544   2.163  12.450 -0.2995  0.3656  0.1181
18540TIP3   OH277034   6.078   2.643  12.146 -0.0126  0.2512 -0.6501
18540TIP3    H177035   6.014   2.676  12.083 -0.8802 -0.9704 -0.4380
18540TIP3    H277036   6.033   2.573  12.192  0.0688  2.0008  2.3688
18541TIP3   OH277037   3.204   2.787   2.362  0.1885 -0.7480  0.0894
18541TIP3    H177038   3.280   2.729   2.372 -0.7262 -2.3786 -1.7202
18541TIP3    H277039   3.241   2.870   2.331  1.3153 -1.2394  0.0541
18542TIP3   OH277040   2.797   5.496   2.469 -0.1506 -0.0733 -0.4663
18542TIP3    H177041   2.880   5.451   2.454 -0.2829 -0.9927  1.3788
18542TIP3    H277042   2.731   5.434   2.441 -0.2648  0.3656 -1.2094
18543TIP3   OH277043   3.353   0.473   0.655  0.2116  0.0938  0.6662
18543TIP3    H177044   3.432   0.436   0.695  1.9811  0.3246 -2.3361
18543TIP3    H277045   3.305   0.398   0.622 -0.0660  0.0519  1.1543
18544TIP3   OH277046   2.204   6.546   5.577  0.0146 -0.1566  0.4364
18544TIP3    H177047   2.200   6.582   5.665  0.9915  0.1370  0.3742
18544TIP3    H277048   2.145   6.471   5.579 -0.1674 -0.0022  1.2617
18545TIP3   OH277049   3.739   2.499   4.292 -0.4195 -0.7181  0.0231
18545TIP3    H177050   3.699   2.434   4.349 -0.9894  0.4446  0.9799
18545TIP3    H277051   3.665   2.542   4.248 -0.2506  0.9874  1.2999
18546TIP3   OH277052   3.840   2.751  15.443 -0.6705 -0.6183 -0.0089
18546TIP3    H177053   3.762   2.698  15.427 -0.8713 -0.5653  0.7396
18546TIP3    H277054   3.812   2.815  15.509 -0.4629  0.4856 -0.9523
18547TIP3   OH277055   2.064   0.827   6.516  0.2506 -0.2612 -0.2034
18547TIP3    H177056   2.071   0.794   6.427  0.1043 -2.0254  0.4024
18547TIP3    H277057   2.066   0.749   6.571  0.2463  0.7806  1.3418
18548TIP3   OH277058   4.885   5.280  15.588  0.1848  0.4470 -0.5784
18548TIP3    H177059   4.837   5.238  15.659  1.1618  0.2336 -0.0284
18548TIP3    H277060   4.969   5.234  15.584  0.0128  0.2045 -2.1277
18549TIP3   OH277061   1.103   5.027   4.224 -0.3847 -0.7717  0.7591
18549TIP3    H177062   1.079   5.096   4.286  1.4855 -0.8616  1.6455
18549TIP3    H277063   1.049   5.044   4.147  0.4835  2.0945  0.6917
18550TIP3   OH277064   6.773   2.713   2.616 -0.2036 -0.4517 -0.3549
18550TIP3    H177065   6.716   2.644   2.583 -0.8430  0.8521 -2.1162
18550TIP3    H277066   6.840   2.724   2.549 -0.6063  1.1941 -0.5247
18551TIP3   OH277067   2.168   0.311  15.273  0.2104 -0.8504  0.1214
18551TIP3    H177068   2.174   0.317  15.178  0.9231 -1.6869  0.0948
18551TIP3    H277069   2.159   0.217  15.290  1.7786 -0.8834  0.9453
18552TIP3   OH277070   1.428   1.336   3.951  0.3002 -0.9325  0.9021
18552TIP3    H177071   1.423   1.431   3.948 -1.0717 -0.9988 -1.6726
18552TIP3    H277072   1.352   1.310   4.004 -0.2810 -0.6170  0.2382
18553TIP3   OH277073   5.529   2.882  14.763  0.0145 -0.3960 -0.2538
18553TIP3    H177074   5.619   2.852  14.775  0.4911  0.8795 -0.4690
18553TIP3    H277075   5.529   2.927  14.678 -0.2756  1.4943  0.7002
18554TIP3   OH277076   5.724   1.155   3.371 -0.0669  0.1568  0.7711
18554TIP3    H177077   5.653   1.219   3.381  0.3521  0.5476  1.3397
18554TIP3    H277078   5.804   1.209   3.369  0.2302 -0.2957  0.4237
18555TIP3   OH277079   1.382   1.472   1.242  0.7397 -0.0033  0.2186
18555TIP3    H177080   1.459   1.472   1.300  1.5554 -2.8584 -0.6943
18555TIP3    H277081   1.346   1.384   1.251 -0.8022  0.4048 -1.4790
18556TIP3   OH277082   3.900   3.354  14.051  0.0851 -0.1375 -0.1519
18556TIP3    H177083   3.908   3.439  14.007 -1.1131  0.0669  0.0000
18556TIP3    H277084   3.830   3.366  14.115 -0.3156 -1.3267 -0.3382
18557TIP3   OH277085   6.591   4.923  11.930 -0.0517  0.0296  0.0657
18557TIP3    H177086   6.548   4.968  12.004 -1.5207 -1.6459  0.3145
18557TIP3    H277087   6.573   4.978  11.855 -0.3150  0.7335  0.6313
18558TIP3   OH277088   4.489   1.824  17.106  0.5117  0.0420 -0.4656
18558TIP3    H177089   4.409   1.787  17.143 -0.0407  1.9012  0.2742
18558TIP3    H277090   4.545   1.841  17.182  0.9980  0.1798 -0.8503
18559TIP3   OH277091   5.622   1.350   3.745  0.6596 -0.8236 -0.5439
18559TIP3    H177092   5.665   1.309   3.820 -0.0031  0.0777  0.3488
18559TIP3    H277093   5.529   1.341   3.763  0.4941  0.6162 -0.5626
18560TIP3   OH277094   0.375   5.565   5.339 -0.5033  0.4594 -0.0203
18560TIP3    H177095   0.337   5.566   5.426  0.5716  1.6151  0.4545
18560TIP3    H277096   0.402   5.474   5.326 -2.2917 -0.1296  0.0925
18561TIP3   OH277097   5.709   1.972  12.714  0.4029 -0.2674  0.3010
18561TIP3    H177098   5.623   2.000  12.744  0.4506 -1.6522  1.9280
18561TIP3    H277099   5.692   1.922  12.634 -0.4811 -1.4557  1.1865
18562TIP3   OH277100   3.718   3.653  15.395 -0.0894 -0.0428  0.2896
18562TIP3    H177101   3.716   3.615  15.307  0.0501 -0.1328  0.3265
18562TIP3    H277102   3.809   3.679  15.408 -0.0440 -0.3147  0.5310
18563TIP3   OH277103   5.059   6.674  16.881 -0.7321  0.3516 -0.4139
18563TIP3    H177104   4.998   6.651  16.951 -0.2154 -0.2726 -0.1529
18563TIP3    H277105   5.073   6.593  16.833  1.6092 -0.1262  0.9039
18564TIP3   OH277106   3.683   1.901  17.310 -0.4878 -0.2161 -0.0393
18564TIP3    H177107   3.589   1.921  17.316 -0.6147 -1.1287  1.5717
18564TIP3    H277108   3.695   1.872  17.220 -1.7089  0.1207 -0.3335
18565TIP3   OH277109   5.482   4.928  15.720  0.5507  0.3820  0.4043
18565TIP3    H177110   5.473   4.863  15.650  1.2960  2.0151 -1.2829
18565TIP3    H277111   5.425   4.896  15.789  0.0476 -1.4924 -0.7966
18566TIP3   OH277112   4.596   4.858  14.999  0.1883 -0.9814 -0.1107
18566TIP3    H177113   4.599   4.795  15.071 -0.7319 -0.7662  0.1296
18566TIP3    H277114   4.531   4.823  14.939  0.8971 -1.1212 -0.8143
18567TIP3   OH277115   5.162   4.841   5.090 -0.4574 -0.2248  0.4694
18567TIP3    H177116   5.184   4.929   5.122  2.1072 -0.1767 -1.1140
18567TIP3    H277117   5.108   4.856   5.013 -4.3398 -0.2882  2.9149
18568TIP3   OH277118   0.915   0.554  13.415  0.0893  0.4182 -0.0239
18568TIP3    H177119   0.825   0.523  13.405  1.2448 -2.8844 -1.6113
18568TIP3    H277120   0.917   0.637  13.367 -1.2121 -1.5330 -3.8265
18569TIP3   OH277121   1.897   1.430  17.044  0.2761  0.0900  0.8923
18569TIP3    H177122   1.847   1.461  17.120 -0.7635  1.9840 -0.4810
18569TIP3    H277123   1.878   1.336  17.041 -0.5759  0.1737  2.2932
18570TIP3   OH277124   0.545   2.333  15.787 -0.0979  0.4399  0.3069
18570TIP3    H177125   0.580   2.257  15.833 -1.7289  0.2330  1.2674
18570TIP3    H277126   0.521   2.300  15.701  3.0497  0.8472 -0.8823
18571TIP3   OH277127   3.344   5.714   5.903 -0.3011  0.3117 -0.4097
18571TIP3    H177128   3.276   5.744   5.963 -1.5907 -1.2720 -0.9988
18571TIP3    H277129   3.392   5.647   5.952 -1.1026 -0.6989 -0.9690
18572TIP3   OH277130   0.057   0.212   6.189  0.1362  0.2256  0.3695
18572TIP3    H177131   0.012   0.259   6.119 -0.5221 -0.6789  0.1802
18572TIP3    H277132   0.105   0.281   6.236  0.6680  0.8443 -1.0002
18573TIP3   OH277133   2.795   4.676  16.476  0.5473 -0.1573  0.0810
18573TIP3    H177134   2.759   4.754  16.433  3.0341  1.3762  0.5784
18573TIP3    H277135   2.720   4.638  16.522 -0.7011  2.1151  0.0832
18574TIP3   OH277136   5.158   1.060  16.985  0.2618  0.4580  0.5096
18574TIP3    H177137   5.208   1.079  17.064  0.2655 -1.5321  1.0480
18574TIP3    H277138   5.160   0.964  16.978 -0.0898  0.5602 -1.6798
18575TIP3   OH277139   6.079   1.984  16.531  0.3890 -0.4305  0.5372
18575TIP3    H177140   6.133   2.028  16.597  0.6122 -0.1045  0.1411
18575TIP3    H277141   6.106   1.892  16.536  0.1294 -0.4830  1.1657
18576TIP3   OH277142   1.724   1.954  11.401  0.0105 -0.4272  0.1532
18576TIP3    H177143   1.792   2.020  11.394  0.2388 -0.7667 -1.1266
18576TIP3    H277144   1.704   1.949  11.495  1.7090 -0.2882  0.5503
18577TIP3   OH277145   1.916   6.011  15.536  0.0056 -0.5552  0.0536
18577TIP3    H177146   1.993   5.998  15.480 -0.8514  0.6175 -1.4475
18577TIP3    H277147   1.949   6.061  15.610  1.1112 -1.9274  0.5489
18578TIP3   OH277148   6.652   0.506   4.917  0.4787 -0.0884  0.2255
18578TIP3    H177149   6.703   0.426   4.918 -0.2363 -0.5535  0.8911
18578TIP3    H277150   6.717   0.576   4.909  1.2419 -0.6502  1.2764
18579TIP3   OH277151   5.373   0.123   4.846  0.9195  0.2262  0.1463
18579TIP3    H177152   5.336   0.036   4.862  0.9685  0.2399  0.3363
18579TIP3    H277153   5.402   0.120   4.754 -1.1790  0.8221 -0.5919
18580TIP3   OH277154   1.081   4.670   0.967 -0.2486  0.3128 -0.1693
18580TIP3    H177155   0.996   4.671   0.923 -0.3098 -1.1159 -0.1422
18580TIP3    H277156   1.074   4.738   1.034 -1.3068  0.3501 -0.2977
18581TIP3   OH277157   2.630   6.448  13.924  0.0292 -0.4988 -0.0903
18581TIP3    H177158   2.713   6.472  13.883  1.0888 -0.3692  1.9955
18581TIP3    H277159   2.656   6.409  14.008 -2.0550  1.6641  1.6860
18582TIP3   OH277160   3.536   2.182   5.661 -0.2355 -0.5435 -0.3259
18582TIP3    H177161   3.510   2.093   5.685  0.7756 -0.6527  0.4461
18582TIP3    H277162   3.525   2.232   5.742  0.8782 -0.3615 -0.2775
18583TIP3   OH277163   4.762   3.035   3.721  0.2464  0.2946 -0.4942
18583TIP3    H177164   4.760   2.992   3.806 -2.4499 -0.4367 -0.8560
18583TIP3    H277165   4.760   2.964   3.657 -0.8738  0.8679 -1.1226
18584TIP3   OH277166   5.685   3.127   0.101 -0.0742 -0.1525  0.0997
18584TIP3    H177167   5.658   3.210   0.140 -0.5569 -0.6154  0.7935
18584TIP3    H277168   5.682   3.142   0.007 -1.1360  0.3238  0.1970
18585TIP3   OH277169   0.224   0.968   5.905 -0.8768  0.2596  0.3206
18585TIP3    H177170   0.190   1.039   5.959 -3.5995 -1.4995  1.1428
18585TIP3    H277171   0.148   0.913   5.887  0.7758 -1.5582 -1.7116
18586TIP3   OH277172   5.372   1.180  13.079 -0.1530  0.5675  0.3652
18586TIP3    H177173   5.420   1.141  13.153  2.2905  0.2653 -1.2489
18586TIP3    H277174   5.374   1.274  13.097  3.0883  0.8067 -0.6345
18587TIP3   OH277175   4.330   1.325  16.711 -0.4167  0.1455  0.0428
18587TIP3    H177176   4.360   1.236  16.729  1.3230  0.9034  1.1313
18587TIP3    H277177   4.321   1.329  16.616  2.2361 -0.4114 -0.3106
18588TIP3   OH277178   1.713   0.705   6.455 -0.5010  0.1047  0.5546
18588TIP3    H177179   1.686   0.735   6.368 -0.1780  0.2724  0.5117
18588TIP3    H277180   1.802   0.673   6.443 -1.6173 -3.1535  0.0692
18589TIP3   OH277181   1.579   1.228  15.508 -0.2576 -0.4964  0.1847
18589TIP3    H177182   1.668   1.193  15.510  0.4112  1.0997  0.3538
18589TIP3    H277183   1.572   1.281  15.588  0.0605  2.5127 -1.6047
18590TIP3   OH277184   1.610   0.726  15.279  0.0833 -0.3755 -0.0868
18590TIP3    H177185   1.689   0.733  15.332 -0.1178 -0.1752  0.1911
18590TIP3    H277186   1.539   0.718  15.343 -0.6647  3.9364 -0.0920
18591TIP3   OH277187   0.710   1.031   2.720  0.2925  0.1840  0.1026
18591TIP3    H177188   0.622   1.067   2.729  0.7568  0.9756  2.3019
18591TIP3    H277189   0.758   1.095   2.669  0.0510  0.6580  0.4657
18592TIP3   OH277190   6.634   2.024  13.673 -0.1938  0.0491  0.2792
18592TIP3    H177191   6.657   2.081  13.747 -1.5721 -0.0833  0.8361
18592TIP3    H277192   6.622   2.084  13.599 -1.5118  0.4999  0.8289
18593TIP3   OH277193   4.554   0.849  15.444  0.2787 -0.2798  0.0302
18593TIP3    H177194   4.581   0.757  15.438  3.7438  0.6475 -1.2675
18593TIP3    H277195   4.552   0.867  15.538  2.3667 -1.0488  0.2758
18594TIP3   OH277196   5.736   5.495  13.025 -0.1165  0.0463 -0.2155
18594TIP3    H177197   5.710   5.419  13.077  0.5891  0.1017  0.2310
18594TIP3    H277198   5.782   5.552  13.087 -1.3086  1.2026 -0.3512
18595TIP3   OH277199   1.602   2.285   0.741  0.1319  0.5600 -0.2392
18595TIP3    H177200   1.562   2.277   0.828  1.5532  0.0834  0.3986
18595TIP3    H277201   1.619   2.378   0.731 -0.7002  0.7123 -0.3326
18596TIP3   OH277202   0.214   4.622   2.297  0.5338 -0.1755  0.3470
18596TIP3    H177203   0.300   4.664   2.304  1.3304 -1.6437 -0.1757
18596TIP3    H277204   0.165   4.677   2.237  0.2547  1.9662  2.3845
18597TIP3   OH277205   1.818   6.597   3.508  0.1959  0.5627 -0.7823
18597TIP3    H177206   1.762   6.594   3.429 -0.1312  0.2433 -0.5394
18597TIP3    H277207   1.904   6.568   3.478  0.0143  0.2243 -0.9731
18598TIP3   OH277208   4.296   3.277   3.005 -0.2957  0.0303 -0.1046
18598TIP3    H177209   4.205   3.277   3.035 -0.5029  1.6499 -0.6627
18598TIP3    H277210   4.296   3.335   2.929  1.6512  2.0016  1.3130
18599TIP3   OH277211   4.724   2.786   3.157 -0.1034  0.0867 -0.0717
18599TIP3    H177212   4.702   2.877   3.176 -0.2617  0.2367 -0.9042
18599TIP3    H277213   4.810   2.791   3.113  1.1181 -0.3939  2.1319
18600TIP3   OH277214   2.965   2.296  10.473 -0.7363  0.2510 -0.1372
18600TIP3    H177215   2.975   2.206  10.442  1.2289  0.5634 -0.5328
18600TIP3    H277216   2.912   2.288  10.553  1.3211 -1.5581  1.1509
18601TIP3   OH277217   4.184   4.120   3.511 -0.2721  0.2441 -0.2890
18601TIP3    H177218   4.097   4.156   3.529  0.0701  1.9773 -1.8720
18601TIP3    H277219   4.182   4.032   3.550 -2.7819  0.1723 -0.4441
18602TIP3   OH277220   6.092   5.111   0.651  0.1440  0.5248  0.2830
18602TIP3    H177221   6.058   5.024   0.630 -1.8468  1.3384 -0.1521
18602TIP3    H277222   6.024   5.150   0.707  1.8446  1.1533  2.0361
18603TIP3   OH277223   5.797   2.009  14.479  0.5988 -0.1913  0.9080
18603TIP3    H177224   5.884   2.049  14.474  0.4216  0.1287  0.1426
18603TIP3    H277225   5.812   1.916  14.461  0.5905  0.1519 -1.0982
18604TIP3   OH277226   3.964   6.334   4.557  0.2288  0.2239 -0.1261
18604TIP3    H177227   3.995   6.411   4.605  1.0324  0.9273 -1.6912
18604TIP3    H277228   3.934   6.370   4.473  0.2688 -1.1360 -0.7373
18605TIP3   OH277229   2.897   6.185  14.644  0.2974 -0.3032  0.0843
18605TIP3    H177230   2.937   6.238  14.574  2.2606 -0.2861  1.1523
18605TIP3    H277231   2.835   6.245  14.686  0.5880  0.3246 -0.3626
18606TIP3   OH277232   3.954   6.067  11.630  0.3360 -0.1356  0.4024
18606TIP3    H177233   3.940   6.086  11.538  1.1127 -0.4335  0.2147
18606TIP3    H277234   4.027   6.123  11.656  0.2145 -0.1532  0.8015
18607TIP3   OH277235   0.348   1.084  14.261  0.1786 -0.4923 -0.2416
18607TIP3    H177236   0.316   1.062  14.349  1.1560 -0.2045  0.1964
18607TIP3    H277237   0.414   1.151  14.276  0.2305 -0.3215 -1.2196
18608TIP3   OH277238   2.411   5.657   0.407 -0.1596  0.7371  0.6484
18608TIP3    H177239   2.443   5.662   0.317 -1.9433 -0.6472 -0.1164
18608TIP3    H277240   2.485   5.620   0.456  0.0689 -0.6700 -0.6990
18609TIP3   OH277241   3.641   3.940   5.116 -0.1173 -0.2005 -0.0383
18609TIP3    H177242   3.725   3.984   5.127 -0.7687  0.7746  1.4337
18609TIP3    H277243   3.577   4.012   5.116 -0.8906 -0.7706 -2.6246
18610TIP3   OH277244   2.574   2.505  13.628 -0.3562  0.0359  0.0051
18610TIP3    H177245   2.629   2.483  13.703  1.5304 -1.1862 -1.6434
18610TIP3    H277246   2.607   2.590  13.597  2.1231 -1.5802 -2.1701
18611TIP3   OH277247   3.793   1.427  12.612 -0.5212  0.1627  0.3226
18611TIP3    H177248   3.794   1.444  12.518  0.0549  0.0794  0.3130
18611TIP3    H277249   3.803   1.514  12.652 -0.3588  0.1544  0.3012
18612TIP3   OH277250   4.269   4.020  15.943 -0.1989  0.1597 -0.3501
18612TIP3    H177251   4.235   3.937  15.976  1.6425 -1.5622 -2.4940
18612TIP3    H277252   4.364   4.008  15.942  0.0360  1.7182 -2.0867
18613TIP3   OH277253   3.195   0.358  14.280  0.0269  0.6876  0.4770
18613TIP3    H177254   3.194   0.381  14.373 -1.0056  1.2742  0.3429
18613TIP3    H277255   3.150   0.432  14.237  0.4272  0.3922 -0.4725
18614TIP3   OH277256   4.722   6.283   0.471  0.5581  0.3155 -0.8650
18614TIP3    H177257   4.654   6.220   0.449  1.4390 -1.7720  1.8027
18614TIP3    H277258   4.758   6.310   0.387 -0.5775 -1.9935 -2.1892
18615TIP3   OH277259   0.368   1.957   3.696  0.1490 -0.0583  0.6602
18615TIP3    H177260   0.347   1.864   3.695  0.0122 -0.0318  1.1308
18615TIP3    H277261   0.462   1.960   3.678  0.1678 -0.2878  0.7144
18616TIP3   OH277262   1.636   6.587   3.250 -0.1103 -0.0668 -0.1635
18616TIP3    H177263   1.640   6.662   3.309 -0.3333 -1.0774  1.1740
18616TIP3    H277264   1.694   6.611   3.177  0.8724  0.8641  0.8828
18617TIP3   OH277265   0.629   1.433  11.590  0.0205  0.2616 -0.0205
18617TIP3    H177266   0.539   1.455  11.614  0.8466  1.3411  2.3810
18617TIP3    H277267   0.661   1.512  11.546  0.6343  1.0210  1.7206
18618TIP3   OH277268   4.760   5.779  11.844  0.0729 -0.5645  0.6953
18618TIP3    H177269   4.776   5.690  11.815 -0.9231 -0.9948  1.4196
18618TIP3    H277270   4.844   5.824  11.831  0.1199 -1.1243 -1.3204
18619TIP3   OH277271   3.964   3.865  13.704  0.1856 -0.0241  0.1394
18619TIP3    H177272   3.970   3.789  13.761 -0.4401  0.7050  1.2056
18619TIP3    H277273   3.870   3.882  13.695  0.2028 -0.7031 -1.9396
18620TIP3   OH277274   2.673   6.337  14.738 -0.1116  0.3170 -0.0524
18620TIP3    H177275   2.581   6.313  14.726 -0.3804  0.9108  0.7428
18620TIP3    H277276   2.693   6.311  14.829  0.1646  1.2484  0.1617
18621TIP3   OH277277   1.318   3.939   5.514  0.3326 -0.1069  0.2656
18621TIP3    H177278   1.340   3.931   5.421 -1.1935 -0.5448 -0.0871
18621TIP3    H277279   1.306   3.848   5.543  0.6646  0.0352  0.8753
18622TIP3   OH277280   4.289   1.957   3.833 -0.2491 -0.2748  0.0146
18622TIP3    H177281   4.211   1.901   3.833 -1.1642  0.9694 -0.5085
18622TIP3    H277282   4.361   1.897   3.814 -1.4215 -1.0264 -2.4320
18623TIP3   OH277283   1.110   5.005  14.373 -0.0948 -0.1224 -0.0830
18623TIP3    H177284   1.028   4.985  14.418 -0.5896  0.9259 -0.5084
18623TIP3    H277285   1.129   4.925  14.324 -1.5675  0.0719 -1.0364
18624TIP3   OH277286   2.869   6.297  12.636  0.0087 -0.1868  0.1017
18624TIP3    H177287   2.799   6.239  12.607 -0.0182 -0.8992  1.5326
18624TIP3    H277288   2.939   6.239  12.665  1.4681  0.5040 -1.7990
18625TIP3   OH277289   4.494   6.018   6.324 -0.0858 -0.2155 -0.7415
18625TIP3    H177290   4.507   6.111   6.343  0.3614 -0.4226  0.0157
18625TIP3    H277291   4.520   5.974   6.405  0.0090 -1.0184 -1.2093
18626TIP3   OH277292   4.788   1.223  11.306  0.0697 -0.6162 -0.9086
18626TIP3    H177293   4.756   1.141  11.344  0.4830 -0.4139 -0.1142
18626TIP3    H277294   4.877   1.203  11.278  0.7238 -0.0398  0.6658
18627TIP3   OH277295   0.815   1.159  17.155 -0.3375 -0.0072 -0.2202
18627TIP3    H177296   0.799   1.210  17.075 -1.2612  0.6660  0.3737
18627TIP3    H277297   0.745   1.185  17.215  0.0862 -0.8268  0.6618
18628TIP3   OH277298   2.509   0.979   2.488 -0.2934  0.0077  0.1511
18628TIP3    H177299   2.561   0.934   2.554 -0.0728  0.8867  0.5911
18628TIP3    H277300   2.571   1.037   2.444 -0.7654  0.6117  0.2640
18629TIP3   OH277301   5.407   3.054  14.951  0.1439 -0.3133 -0.2014
18629TIP3    H177302   5.480   3.063  15.013  0.4171  0.6274 -0.6384
18629TIP3    H277303   5.444   3.005  14.877  0.8870  1.6724 -1.2189
18630TIP3   OH277304   5.778   0.450  17.164 -0.0098  0.2233  0.1260
18630TIP3    H177305   5.852   0.424  17.219 -0.0418 -3.3385 -1.3002
18630TIP3    H277306   5.818   0.489  17.087  0.3724 -0.8963 -0.2534
18631TIP3   OH277307   0.432   2.423  12.166  0.1636  0.6026  0.0689
18631TIP3    H177308   0.343   2.456  12.178  0.5862  1.5068  0.7789
18631TIP3    H277309   0.443   2.418  12.071 -1.1473 -0.9530 -0.0613
18632TIP3   OH277310   5.473   3.616  17.252 -0.2260 -0.3325 -0.0266
18632TIP3    H177311   5.559   3.651  17.275 -0.6124 -0.6532  2.0558
18632TIP3    H277312   5.446   3.668  17.177  1.1333  0.7829  0.2103
18633TIP3   OH277313   6.214   2.948   1.046 -0.3574 -0.5373  0.1747
18633TIP3    H177314   6.219   2.857   1.075  0.2072 -0.2228  1.1228
18633TIP3    H277315   6.158   2.991   1.112  0.1634 -0.0070  0.2811
18634TIP3   OH277316   4.533   0.831  14.632  0.6061 -0.6665 -0.5692
18634TIP3    H177317   4.589   0.762  14.669  0.5990 -0.0628  0.6241
18634TIP3    H277318   4.538   0.902  14.695  1.0566  0.6720 -2.0715
18635TIP3   OH277319   4.900   6.719   2.125 -0.4748 -0.8592 -0.4673
18635TIP3    H177320   4.845   6.751   2.053  0.7215  0.3429 -0.8811
18635TIP3    H277321   4.987   6.752   2.105  0.0640 -1.2648  1.0831
18636TIP3   OH277322   6.562   0.876   1.279 -0.0960 -0.2941 -0.0190
18636TIP3    H177323   6.602   0.866   1.193  1.9454  0.4704  0.7805
18636TIP3    H277324   6.621   0.831   1.339 -1.6038 -1.0199  0.9945
18637TIP3   OH277325   2.027   4.171  11.976 -0.4493 -0.0836  0.3142
18637TIP3    H177326   2.070   4.085  11.974  0.9352  0.5663  0.6750
18637TIP3    H277327   2.016   4.190  12.069 -1.5736 -0.2494  0.2236
18638TIP3   OH277328   6.664   4.398  15.831  0.3993 -0.0488  0.1155
18638TIP3    H177329   6.688   4.487  15.808 -0.3858  0.3729  0.8985
18638TIP3    H277330   6.635   4.359  15.748  0.1403  0.6152 -0.1085
18639TIP3   OH277331   2.599   2.131  11.943 -0.5735  0.3828 -0.7034
18639TIP3    H177332   2.643   2.161  11.864  0.2389 -0.1042 -0.4417
18639TIP3    H277333   2.560   2.210  11.980  1.5868  1.1681  0.0099
18640TIP3   OH277334   6.418   3.702  12.041  0.5342  0.3579 -0.1156
18640TIP3    H177335   6.437   3.653  11.960  2.7411  0.1101  0.4940
18640TIP3    H277336   6.411   3.635  12.108  0.5101  0.6833  0.2080
18641TIP3   OH277337   1.514   6.763   4.200 -0.2865 -0.1730 -0.2930
18641TIP3    H177338   1.559   6.818   4.264 -0.2929  1.1237 -1.3642
18641TIP3    H277339   1.575   6.757   4.127 -1.5169  0.9978 -1.4649
18642TIP3   OH277340   5.404   5.200  11.620 -0.0959 -0.2219 -0.8550
18642TIP3    H177341   5.426   5.122  11.568  1.5476 -0.2201 -0.2434
18642TIP3    H277342   5.478   5.208  11.681 -1.0343  0.8927  0.1653
18643TIP3   OH277343   1.487   2.421  14.540  0.6995 -0.2355  1.1791
18643TIP3    H177344   1.476   2.516  14.535  1.5743 -0.1460  0.7895
18643TIP3    H277345   1.472   2.390  14.450  2.4887 -0.2146  0.8388
18644TIP3   OH277346   0.856   5.204   5.371 -0.7289  0.1546  0.2076
18644TIP3    H177347   0.786   5.147   5.402  0.7927 -0.9257  1.8442
18644TIP3    H277348   0.935   5.150   5.377  0.4798  1.8016 -0.1503
18645TIP3   OH277349   3.056   5.805  12.014  0.0929  0.7656 -0.3128
18645TIP3    H177350   3.107   5.885  12.003  1.3749 -0.3525 -4.1268
18645TIP3    H277351   3.014   5.791  11.929 -1.9709 -1.4304  0.9260
18646TIP3   OH277352   3.344   1.171  13.999 -0.3203  0.1176 -0.6925
18646TIP3    H177353   3.357   1.080  13.974 -0.1892  0.5602 -2.3231
18646TIP3    H277354   3.257   1.173  14.038 -0.5878 -0.6006 -1.2335
18647TIP3   OH277355   0.252   0.681   6.017  0.2480 -0.3311 -0.3014
18647TIP3    H177356   0.232   0.739   5.944  0.5119 -0.0847 -0.1787
18647TIP3    H277357   0.168   0.668   6.061 -0.4556 -2.4879 -2.0798
18648TIP3   OH277358   1.824   1.674   4.870 -0.6265 -0.1869 -0.1679
18648TIP3    H177359   1.904   1.623   4.882 -0.2724  0.4484  0.2487
18648TIP3    H277360   1.796   1.697   4.959  0.2251  1.8390 -0.3572
18649TIP3   OH277361   0.838   2.401   4.632  0.2559 -0.1370 -0.2014
18649TIP3    H177362   0.811   2.374   4.720  0.2600  1.3611  0.2740
18649TIP3    H277363   0.826   2.496   4.630 -0.1242 -0.1818 -1.9648
18650TIP3   OH277364   2.979   5.245   1.839 -0.1629 -0.2071 -0.4485
18650TIP3    H177365   2.894   5.285   1.852 -0.3648 -0.3558 -1.2775
18650TIP3    H277366   2.976   5.164   1.891 -0.5783 -0.2863 -0.5957
18651TIP3   OH277367   0.506   2.806   2.673 -0.5708  0.7212 -0.2586
18651TIP3    H177368   0.530   2.867   2.604  0.0953  0.1605 -0.5388
18651TIP3    H277369   0.508   2.858   2.753 -0.9718  1.2866 -0.6131
18652TIP3   OH277370   5.163   1.993  15.685 -0.4902  0.3057  0.4442
18652TIP3    H177371   5.254   2.013  15.666 -0.1716 -1.2841  0.1791
18652TIP3    H277372   5.134   1.940  15.611 -1.2691 -0.1784  1.0729
18653TIP3   OH277373   6.703   0.016  12.394 -0.0164 -0.5133 -0.0433
18653TIP3    H177374   6.620   0.007  12.347  0.2449 -0.7983 -0.4599
18653TIP3    H277375   6.716  -0.069  12.437 -2.4964  1.0046  4.3906
18654TIP3   OH277376   6.754   1.853  11.777 -0.3706 -0.0768 -0.8679
18654TIP3    H177377   6.731   1.868  11.869 -2.1301  0.7461 -1.4147
18654TIP3    H277378   6.774   1.759  11.773 -3.2920 -0.8127 -0.2081
18655TIP3   OH277379   5.611   2.024   3.336 -0.6102  0.3121 -0.0096
18655TIP3    H177380   5.535   2.038   3.393 -0.0568  0.1856  0.7753
18655TIP3    H277381   5.671   2.095   3.358 -0.0327 -0.2260  0.1755
18656TIP3   OH277382   2.621   6.200  12.263  0.2048 -0.1731  0.6977
18656TIP3    H177383   2.558   6.272  12.260  1.1724  0.6935 -2.0468
18656TIP3    H277384   2.589   6.139  12.196  1.6064 -0.2861  0.1118
18657TIP3   OH277385   1.854   1.742   4.588 -0.2177  0.1433 -0.2335
18657TIP3    H177386   1.880   1.722   4.678  2.2311  1.2069 -0.6203
18657TIP3    H277387   1.779   1.800   4.598  2.1064  3.1914  1.3747
18658TIP3   OH277388   1.827   2.477   0.445 -0.1268 -0.0801  0.3418
18658TIP3    H177389   1.874   2.477   0.362 -1.6230 -1.4929 -0.5616
18658TIP3    H277390   1.735   2.485   0.420 -0.4966  1.6822  2.0004
18659TIP3   OH277391   2.190   4.092  14.204  0.3771  0.8899  0.2279
18659TIP3    H177392   2.159   4.173  14.163  1.6661  1.9244  1.2207
18659TIP3    H277393   2.284   4.107  14.219  0.3258 -0.1844  1.8164
18660TIP3   OH277394   6.243   3.125  12.735 -0.8095 -0.5377  0.2608
18660TIP3    H177395   6.257   3.209  12.690  1.0838 -0.5144  0.7752
18660TIP3    H277396   6.235   3.061  12.665 -3.2179  0.1312 -0.1699
18661TIP3   OH277397   3.664   3.474   3.490  0.3302  0.2074  0.2916
18661TIP3    H177398   3.756   3.493   3.471  0.0079 -0.3086 -2.0885
18661TIP3    H277399   3.615   3.547   3.453 -0.3021 -0.3217  0.0481
18662TIP3   OH277400   1.736   0.336   1.552 -0.0821  0.1158 -0.2928
18662TIP3    H177401   1.823   0.376   1.545  0.0425 -0.0328  0.3796
18662TIP3    H277402   1.727   0.286   1.471 -0.0284  1.0680 -0.9147
18663TIP3   OH277403   3.286   3.288  13.817 -0.1464 -0.1596  0.5050
18663TIP3    H177404   3.223   3.216  13.826 -1.2248  0.5718 -0.7732
18663TIP3    H277405   3.339   3.284  13.897 -2.0031 -0.6479  1.7761
18664TIP3   OH277406   3.069   2.015  14.579 -0.1951 -0.6702 -0.0381
18664TIP3    H177407   2.988   2.054  14.613  0.7293  1.3442 -0.0414
18664TIP3    H277408   3.109   2.084  14.526  0.7427 -2.1774 -1.3831
18665TIP3   OH277409   6.732   6.340   0.562  0.6402 -0.4282  0.1089
18665TIP3    H177410   6.820   6.378   0.566  0.0511  1.1358 -0.7151
18665TIP3    H277411   6.714   6.311   0.651  0.4728  2.9630  1.3321
18666TIP3   OH277412   4.320   3.185   4.692  0.4519 -0.4658 -0.2707
18666TIP3    H177413   4.236   3.187   4.647  1.2307 -1.4089 -1.8586
18666TIP3    H277414   4.360   3.103   4.665  1.3586 -0.6389  1.4772
18667TIP3   OH277415   6.651   3.706   6.786 -0.2100 -0.2115 -0.5882
18667TIP3    H177416   6.593   3.752   6.724  0.9675  0.2136 -1.4035
18667TIP3    H277417   6.728   3.762   6.792 -0.2800 -0.2568  1.2768
18668TIP3   OH277418   2.281   5.004   4.742  0.5183 -0.0629 -0.5891
18668TIP3    H177419   2.273   5.076   4.679  1.4364 -0.5597 -1.3070
18668TIP3    H277420   2.205   4.949   4.726 -1.8933  2.1976  1.9893
18669TIP3   OH277421   3.968   5.224  16.926  0.1685 -0.2921  0.0547
18669TIP3    H177422   3.942   5.138  16.891 -1.2295  0.5376 -1.0390
18669TIP3    H277423   3.947   5.219  17.019  2.4741 -1.9854  0.5872
18670TIP3   OH277424   2.969   4.173  16.722 -0.0625 -0.5582  0.2090
18670TIP3    H177425   2.908   4.127  16.780 -0.2134 -1.5075 -0.6802
18670TIP3    H277426   3.028   4.220  16.782 -1.1161 -0.3310  1.0947
18671TIP3   OH277427   2.660   3.681   1.724 -0.2285  0.5555 -0.9393
18671TIP3    H177428   2.722   3.678   1.651  0.5975  1.0197 -0.2615
18671TIP3    H277429   2.574   3.687   1.681  0.1058 -1.0400 -1.8962
18672TIP3   OH277430   0.361   0.709  16.012  0.0895 -0.2203 -0.1036
18672TIP3    H177431   0.440   0.751  15.977 -0.7216  0.2973 -1.3912
18672TIP3    H277432   0.292   0.773  15.997 -0.4484 -0.3090  1.8038
18673TIP3   OH277433   5.210   4.581   1.308 -0.2613  0.0046  0.2724
18673TIP3    H177434   5.201   4.675   1.328  0.2659 -0.0059  0.5761
18673TIP3    H277435   5.223   4.540   1.394 -0.7057 -0.3705  0.1565
18674TIP3   OH277436   2.231   6.671   2.154 -0.2277 -0.5096 -0.0982
18674TIP3    H177437   2.177   6.670   2.075 -0.5078 -0.5602  0.0925
18674TIP3    H277438   2.169   6.685   2.226 -0.0277 -0.9058  0.1559
18675TIP3   OH277439   2.743   6.232   4.820  0.5025 -0.4906  0.0007
18675TIP3    H177440   2.698   6.233   4.735 -0.6839  1.3496  0.5977
18675TIP3    H277441   2.811   6.299   4.811  0.4842 -0.4105  0.4553
18676TIP3   OH277442   3.578   3.024   0.151  0.4884 -0.6032 -0.0870
18676TIP3    H177443   3.540   3.015   0.064 -0.5955 -3.1897  0.5599
18676TIP3    H277444   3.534   2.957   0.204  0.7329  1.1942  2.6125
18677TIP3   OH277445   6.098   4.122   3.460 -0.6347  1.2301 -0.4286
18677TIP3    H177446   6.175   4.178   3.455 -1.1293  1.9052 -0.5300
18677TIP3    H277447   6.131   4.041   3.500 -0.0561  1.8398  0.3739
18678TIP3   OH277448   4.969   3.266   0.611 -0.4041  0.1523 -0.1656
18678TIP3    H177449   4.986   3.313   0.692  0.0214 -0.8173  0.3214
18678TIP3    H277450   4.954   3.175   0.638 -0.4306 -0.1492 -1.1517
18679TIP3   OH277451   4.824   2.137  15.144  0.2809  0.0313 -0.0238
18679TIP3    H177452   4.864   2.186  15.215 -0.7679 -0.7476  1.1450
18679TIP3    H277453   4.841   2.045  15.165  0.9871 -0.1921 -1.4306
18680TIP3   OH277454   0.143   5.917  17.179 -0.0462  0.3080  0.1502
18680TIP3    H177455   0.236   5.896  17.170  0.7088  3.3311 -0.0218
18680TIP3    H277456   0.130   5.931  17.273 -0.8143 -1.7156  0.4151
18681TIP3   OH277457   2.414   5.431   3.804 -0.4873  0.2576  0.0193
18681TIP3    H177458   2.504   5.455   3.781 -1.1378  2.0720 -0.8599
18681TIP3    H277459   2.404   5.342   3.772  1.5441 -0.7268  1.8112
18682TIP3   OH277460   5.751   3.739   1.539  0.8417  0.1525 -0.9318
18682TIP3    H177461   5.676   3.680   1.542  0.8288  0.1788 -0.7358
18682TIP3    H277462   5.793   3.730   1.625  0.6058  0.7267 -0.7469
18683TIP3   OH277463   3.353   1.064  16.842  0.0430 -0.6184  0.0829
18683TIP3    H177464   3.267   1.023  16.842 -0.1278 -0.2747 -0.2503
18683TIP3    H277465   3.415   0.991  16.837 -0.1942 -0.9091  1.2281
18684TIP3   OH277466   6.665   1.455   4.613 -0.0014 -0.8982 -0.6070
18684TIP3    H177467   6.720   1.532   4.604 -2.3800  1.3714  2.1449
18684TIP3    H277468   6.595   1.468   4.549 -0.4904 -0.6126 -0.0335
18685TIP3   OH277469   5.336   2.322  12.927  0.0874  0.2190  0.1874
18685TIP3    H177470   5.314   2.276  13.009 -0.2791 -0.2694 -0.1776
18685TIP3    H277471   5.366   2.408  12.956  3.9593 -1.2432  1.1512
18686TIP3   OH277472   2.680   5.703   2.055 -0.0815  0.2977 -0.0322
18686TIP3    H177473   2.617   5.664   1.995 -0.1591  2.7206 -1.6834
18686TIP3    H277474   2.626   5.742   2.124 -0.1652 -0.2540  0.2182
18687TIP3   OH277475   2.255   1.430  10.754 -0.8271 -0.3951 -0.0898
18687TIP3    H177476   2.332   1.411  10.808  0.2260  1.7856 -0.6683
18687TIP3    H277477   2.292   1.472  10.676 -2.6508  3.3681  0.8349
18688TIP3   OH277478   6.576   6.039  17.257 -0.2135 -0.4336  0.0064
18688TIP3    H177479   6.608   5.952  17.231 -0.8353 -1.1121  1.3886
18688TIP3    H277480   6.509   6.021  17.322 -0.7210  1.0894 -0.0565
18689TIP3   OH277481   5.029   0.356  15.992 -0.0135  0.3301  0.2828
18689TIP3    H177482   4.973   0.336  16.068  1.3121  1.6510  1.7008
18689TIP3    H277483   5.055   0.271  15.958  0.9052 -0.4032  2.5616
18690TIP3   OH277484   6.022   4.106  15.873  0.3684 -0.5936  0.1989
18690TIP3    H177485   5.967   4.123  15.797  0.9399  1.4173  0.1614
18690TIP3    H277486   6.082   4.037  15.845 -0.1300 -0.6469 -0.7901
18691TIP3   OH277487   1.802   6.567   2.695 -0.0599 -0.2077  0.5903
18691TIP3    H177488   1.758   6.649   2.671 -1.0321 -1.1283 -0.9282
18691TIP3    H277489   1.759   6.539   2.775 -1.9068 -0.7769 -0.5417
18692TIP3   OH277490   0.970   6.740   1.058  0.3648 -0.7924  0.6391
18692TIP3    H177491   0.926   6.793   0.992 -1.7111 -1.3523  1.4783
18692TIP3    H277492   1.036   6.691   1.009 -0.7000 -0.7520 -0.9316
18693TIP3   OH277493   5.439   4.367   3.558  0.4313  0.2500  0.8819
18693TIP3    H177494   5.502   4.300   3.585  0.5318 -0.3008 -0.5868
18693TIP3    H277495   5.360   4.318   3.536  0.3715  0.6409  0.1806
18694TIP3   OH277496   3.455   0.018   4.988  1.0144  0.3348  0.0352
18694TIP3    H177497   3.529   0.073   4.960 -0.8769  2.0642 -1.9756
18694TIP3    H277498   3.423  -0.021   4.906 -0.1920 -0.4927  0.8751
18695TIP3   OH277499   3.324   2.205  13.571 -0.2123 -0.3927  0.4827
18695TIP3    H177500   3.306   2.190  13.478  0.0011 -0.5183  0.4628
18695TIP3    H277501   3.353   2.120  13.604  2.5670  0.2910  0.0265
18696TIP3   OH277502   3.096   5.474   4.137  0.0527 -0.5202  0.2530
18696TIP3    H177503   3.075   5.449   4.047 -1.1939 -0.7874  0.6093
18696TIP3    H277504   3.160   5.544   4.127 -0.9932  0.3173 -0.8805
18697TIP3   OH277505   1.060   3.591   5.819  0.0225  0.0892 -0.0035
18697TIP3    H177506   1.095   3.520   5.766 -1.7252 -0.6912 -0.1782
18697TIP3    H277507   0.972   3.606   5.784 -1.1290 -0.3198  2.5241
18698TIP3   OH277508   4.457   5.447  14.143 -0.2229  0.3454  0.1611
18698TIP3    H177509   4.467   5.426  14.236 -1.1878 -1.2462 -0.0568
18698TIP3    H277510   4.513   5.385  14.098  0.6090  1.4191 -0.3284
18699TIP3   OH277511   0.561   6.307   2.791 -0.1601  0.1296  0.4216
18699TIP3    H177512   0.546   6.218   2.822 -0.4560  0.3909  1.0485
18699TIP3    H277513   0.543   6.363   2.867 -1.1104  0.8000 -0.2626
18700TIP3   OH277514   1.060   5.084   1.035 -0.2169  0.3572 -0.6552
18700TIP3    H177515   1.114   5.092   0.957  0.0433 -0.8059 -0.6209
18700TIP3    H277516   1.068   4.992   1.060  0.7034  0.9466  1.4682
18701TIP3   OH277517   2.101   2.581  12.581  0.0710  0.4528 -0.8369
18701TIP3    H177518   2.058   2.658  12.617 -1.0953 -0.1613 -0.8744
18701TIP3    H277519   2.033   2.514  12.580  1.5050 -1.1043  0.7814
18702TIP3   OH277520   3.643   2.708  11.260 -0.0566  0.1139  0.2437
18702TIP3    H177521   3.577   2.720  11.327  0.3088  0.8883  0.4735
18702TIP3    H277522   3.594   2.689  11.180 -0.7170  2.9607 -0.1188
18703TIP3   OH277523   5.425   6.383   4.121  0.4176 -0.6536  0.1686
18703TIP3    H177524   5.381   6.324   4.060  2.0033 -0.4484 -1.2303
18703TIP3    H277525   5.354   6.416   4.177 -0.6483 -3.2196  0.4934
18704TIP3   OH277526   1.352   2.861   3.982 -0.2989 -0.0150 -0.2490
18704TIP3    H177527   1.346   2.841   3.888  0.1889  0.4964 -0.3931
18704TIP3    H277528   1.357   2.956   3.986  2.3102 -0.1193  0.1370
18705TIP3   OH277529   2.364   3.048  14.303  0.1205 -0.3167 -0.5003
18705TIP3    H177530   2.361   3.086  14.216 -1.2746  1.2030  0.1607
18705TIP3    H277531   2.318   3.111  14.359  0.7604 -1.3524  1.2986
18706TIP3   OH277532   1.746   5.765   2.153 -0.1657 -0.0679  0.2158
18706TIP3    H177533   1.761   5.671   2.156 -0.7665 -0.1462  1.1606
18706TIP3    H277534   1.747   5.792   2.245 -0.3380  0.7921 -0.0306
18707TIP3   OH277535   5.890   4.715   5.840 -0.3965 -0.1765  0.1802
18707TIP3    H177536   5.816   4.756   5.796 -0.2328  0.0622  0.1241
18707TIP3    H277537   5.850   4.657   5.905 -0.6324  0.0382  0.2291
18708TIP3   OH277538   4.654   1.825  11.401 -0.4324  0.3904 -0.1364
18708TIP3    H177539   4.598   1.783  11.336 -0.2885  0.1896 -0.1302
18708TIP3    H277540   4.733   1.772  11.403  1.1207  2.3950 -2.4142
18709TIP3   OH277541   2.556   4.988  11.286  0.0180 -0.2429  0.0355
18709TIP3    H177542   2.554   5.018  11.377 -0.6735  0.5082 -0.2151
18709TIP3    H277543   2.621   4.918  11.285  2.3600  1.7990  0.4920
18710TIP3   OH277544   0.293   5.460   0.864  0.0899  0.3286 -0.5300
18710TIP3    H177545   0.204   5.442   0.834 -0.6530 -0.5648  1.9210
18710TIP3    H277546   0.299   5.556   0.868  0.4777  0.5654 -3.8371
18711TIP3   OH277547   4.832   5.391  16.661 -0.4525 -0.4063 -0.2632
18711TIP3    H177548   4.787   5.312  16.689  0.8940 -0.8248  0.8275
18711TIP3    H277549   4.868   5.369  16.575  0.8387 -1.4008  0.4961
18712TIP3   OH277550   1.328   6.174  14.738  0.3717 -0.4914  0.1605
18712TIP3    H177551   1.264   6.239  14.709  0.7874  1.1274  2.5835
18712TIP3    H277552   1.410   6.222  14.745  1.3787 -1.9898 -0.6636
18713TIP3   OH277553   5.129   3.968  13.539  0.3240 -0.0637 -0.3503
18713TIP3    H177554   5.144   3.921  13.621 -2.9179 -0.1428  0.3480
18713TIP3    H277555   5.160   4.057  13.556 -2.5569  0.6562  2.0482
18714TIP3   OH277556   0.608   6.601  14.957  0.7249 -0.1567  0.7492
18714TIP3    H177557   0.667   6.547  15.010 -3.4524 -4.5216  1.6740
18714TIP3    H277558   0.549   6.641  15.021  0.1897  0.7864 -0.3005
18715TIP3   OH277559   2.220   3.695   5.529  0.3991 -0.1624  0.3284
18715TIP3    H177560   2.239   3.658   5.616 -0.3884  0.1269  0.6283
18715TIP3    H277561   2.181   3.780   5.548  0.1844 -0.1174 -0.3177
18716TIP3   OH277562   4.476   1.705   2.033  0.4000 -0.2170  0.0291
18716TIP3    H177563   4.494   1.611   2.036  2.5216  0.1315 -0.4610
18716TIP3    H277564   4.465   1.730   2.125 -0.4613 -0.9601  0.1463
18717TIP3   OH277565   2.759   2.353   4.258  0.1264 -0.2247 -0.2405
18717TIP3    H177566   2.791   2.414   4.192  2.1134  0.3223  1.1465
18717TIP3    H277567   2.679   2.393   4.291  0.8318  1.1304 -0.0935
18718TIP3   OH277568   2.289   4.234  13.885 -0.5381 -0.1346  0.2229
18718TIP3    H177569   2.314   4.279  13.805  0.9254 -1.4570 -0.1137
18718TIP3    H277570   2.224   4.169  13.857 -0.3151 -0.3342  0.1627
18719TIP3   OH277571   6.071   4.515  11.237  0.1366 -0.3964  0.1590
18719TIP3    H177572   6.067   4.568  11.157  0.0815  1.7348  1.4995
18719TIP3    H277573   6.084   4.425  11.205  0.4180  0.4054 -2.2223
18720TIP3   OH277574   5.275   1.946  14.613 -0.7270 -0.0876 -0.5439
18720TIP3    H177575   5.307   1.939  14.523 -2.6623 -0.6341 -1.2421
18720TIP3    H277576   5.314   2.027  14.647 -0.3359  0.3688 -2.0272
18721TIP3   OH277577   3.556   3.846   0.150  0.3449 -0.3289 -0.2200
18721TIP3    H177578   3.541   3.773   0.210 -0.5275  0.2760  0.3351
18721TIP3    H277579   3.517   3.818   0.067 -0.7731 -0.1734  0.2316
18722TIP3   OH277580   5.380   6.569  16.872  0.3315  0.0773  0.0473
18722TIP3    H177581   5.432   6.646  16.897 -0.7894  0.7623  0.3245
18722TIP3    H277582   5.409   6.549  16.783  0.6857  0.7826 -0.0086
18723TIP3   OH277583   0.815   3.248  13.793 -0.2068  0.0044 -0.2962
18723TIP3    H177584   0.841   3.326  13.744  0.0209 -0.3162 -0.6903
18723TIP3    H277585   0.775   3.283  13.873 -1.7281  0.5729 -1.2532
18724TIP3   OH277586   0.690   3.959  10.566 -0.1810  0.0978  0.1518
18724TIP3    H177587   0.712   3.871  10.597 -2.6191 -0.5500  0.2536
18724TIP3    H277588   0.618   3.945  10.504  0.4322  1.9167 -1.0449
18725TIP3   OH277589   2.571   4.897   3.536 -0.5022 -0.0798  0.0249
18725TIP3    H177590   2.497   4.864   3.588 -0.4856 -0.0922  0.0405
18725TIP3    H277591   2.530   4.931   3.457 -0.5653  0.2527  0.1969
18726TIP3   OH277592   5.418   4.697  13.486 -0.0732 -0.6110 -0.8947
18726TIP3    H177593   5.455   4.696  13.575 -0.7662  1.3162 -0.5359
18726TIP3    H277594   5.494   4.697  13.429  0.3867 -2.4355 -0.3544
18727TIP3   OH277595   4.319   3.771  11.118 -0.4766 -0.0043 -0.5384
18727TIP3    H177596   4.317   3.867  11.112 -0.8859  0.0124 -0.1675
18727TIP3    H277597   4.404   3.752  11.157 -0.3561  0.2001 -0.6926
18728TIP3   OH277598   4.401   6.375   2.934 -0.0064 -0.4180  0.4465
18728TIP3    H177599   4.402   6.435   3.009 -0.2858  0.2982 -0.1075
18728TIP3    H277600   4.308   6.361   2.916  0.0130 -2.4979  1.7038
18729TIP3   OH277601   4.189   6.230  15.098 -0.0261 -0.0807  0.0555
18729TIP3    H177602   4.285   6.231  15.093 -0.0201 -0.8669 -4.0366
18729TIP3    H277603   4.163   6.318  15.069 -0.3769 -1.0419 -2.9293
18730TIP3   OH277604   4.101   6.221  16.469  0.4952  0.0713  0.8684
18730TIP3    H177605   4.100   6.180  16.383 -0.4863  0.8529  0.4883
18730TIP3    H277606   4.128   6.151  16.529 -3.8883 -2.0913  0.6793
18731TIP3   OH277607   6.495   3.406  15.300 -0.0304 -0.4024  0.2358
18731TIP3    H177608   6.428   3.371  15.242 -0.4829 -0.0378  0.5301
18731TIP3    H277609   6.452   3.478  15.346  0.4562 -0.3901  0.6868
18732TIP3   OH277610   0.604   6.187   1.011 -0.2041  0.1255 -0.2103
18732TIP3    H177611   0.549   6.213   0.938 -0.9277  0.6553  0.5036
18732TIP3    H277612   0.560   6.222   1.089  1.0098  0.3690  0.4046
18733TIP3   OH277613   0.649   6.203  14.710  0.2710  0.1097  0.2041
18733TIP3    H177614   0.631   6.212  14.804 -0.3668  2.3560 -0.0810
18733TIP3    H277615   0.716   6.134  14.705 -0.5111 -0.8879  2.1825
18734TIP3   OH277616   0.431   2.952  16.129  0.1451 -0.4275  0.2915
18734TIP3    H177617   0.347   2.929  16.171 -0.3805  0.2747 -0.3577
18734TIP3    H277618   0.481   2.870  16.131 -1.1966 -1.3238 -0.8103
18735TIP3   OH277619   2.497   0.928   5.519  0.0327  0.0057  0.0245
18735TIP3    H177620   2.592   0.919   5.523  0.0456 -1.4614 -2.0205
18735TIP3    H277621   2.464   0.848   5.561 -0.2259 -0.5834 -1.2615
18736TIP3   OH277622   5.914   4.363  12.144  0.4084  0.2533  0.4310
18736TIP3    H177623   5.905   4.438  12.085  1.2901 -0.7002 -0.9768
18736TIP3    H277624   5.940   4.401  12.228 -0.4727  1.6176  0.0996
18737TIP3   OH277625   3.674   6.388  16.138  0.0006 -0.1703  0.5920
18737TIP3    H177626   3.714   6.462  16.183  0.5402  0.9186 -1.5568
18737TIP3    H277627   3.581   6.411  16.132  0.2883  0.7463 -0.7445
18738TIP3   OH277628   4.322   1.318   0.245  0.5171  0.4977  0.1034
18738TIP3    H177629   4.328   1.226   0.219 -0.6188  1.0027 -2.1587
18738TIP3    H277630   4.413   1.348   0.246  0.7987 -0.3029 -0.5269
18739TIP3   OH277631   1.092   2.916   2.952  0.2177 -0.3279 -0.5367
18739TIP3    H177632   1.057   3.001   2.979  1.3772  0.0107 -0.0777
18739TIP3    H277633   1.157   2.937   2.885  1.0177 -0.7998  0.0843
18740TIP3   OH277634   2.159   2.549  10.929 -0.4961  0.5071 -0.1377
18740TIP3    H177635   2.134   2.458  10.944  1.9281 -0.1792  0.0690
18740TIP3    H277636   2.239   2.544  10.877  2.2348  2.2753  3.4671
18741TIP3   OH277637   1.166   2.506   5.656 -0.3358  0.5936  1.2670
18741TIP3    H177638   1.162   2.427   5.711  0.6052 -0.8391 -0.6019
18741TIP3    H277639   1.081   2.509   5.613  0.3207 -0.6729 -0.2280
18742TIP3   OH277640   1.785   1.167   0.582  0.6765 -0.1263 -0.0500
18742TIP3    H177641   1.726   1.208   0.646 -2.2139 -0.9662 -1.9692
18742TIP3    H277642   1.787   1.228   0.509  2.4453 -0.0202  0.0537
18743TIP3   OH277643   0.521   3.571  14.868  0.6480  0.0579 -0.0646
18743TIP3    H177644   0.485   3.541  14.784 -2.2926  2.2028  0.2789
18743TIP3    H277645   0.547   3.661  14.853  3.2004 -0.4777  0.5972
18744TIP3   OH277646   2.174   4.748  15.984  0.0380 -0.0110  0.3466
18744TIP3    H177647   2.220   4.710  15.909 -1.3590 -0.4065 -0.3365
18744TIP3    H277648   2.166   4.841  15.963  1.1728  0.2215  0.8351
18745TIP3   OH277649   0.999   5.232   4.384 -0.5004 -0.1719  0.0449
18745TIP3    H177650   0.968   5.317   4.351  1.5599  0.2329 -0.9726
18745TIP3    H277651   1.011   5.246   4.478  1.7970  1.3643 -0.4017
18746TIP3   OH277652   2.723   6.196   5.088 -0.4075 -0.0264  0.6111
18746TIP3    H177653   2.780   6.238   5.024 -1.2473 -1.0710 -0.8755
18746TIP3    H277654   2.638   6.192   5.045 -1.3576  0.4503  2.3290
18747TIP3   OH277655   0.574   0.256  14.993  0.0460  0.3693 -0.7960
18747TIP3    H177656   0.591   0.185  14.930 -2.5794 -1.3996  0.3004
18747TIP3    H277657   0.479   0.267  14.991  0.0337  1.2358  1.8245
18748TIP3   OH277658   6.426   5.469  12.373 -0.2734  0.9590 -0.4412
18748TIP3    H177659   6.381   5.446  12.291 -1.4353  0.3510  0.3386
18748TIP3    H277660   6.430   5.565  12.371 -0.1692  0.9502 -1.2637
18749TIP3   OH277661   1.428   6.652   5.482 -0.1175  0.4070 -0.0690
18749TIP3    H177662   1.340   6.624   5.457  0.1822  1.6399 -2.7825
18749TIP3    H277663   1.485   6.579   5.456 -0.1674  0.2253  0.3226
18750TIP3   OH277664   1.169   4.348   6.200 -0.3049 -0.6798  0.4443
18750TIP3    H177665   1.196   4.330   6.290  0.0978 -0.2535  0.4132
18750TIP3    H277666   1.170   4.262   6.157  1.4726 -0.6529  0.3295
18751TIP3   OH277667   4.804   1.228   4.286 -0.1991 -0.5218  0.1322
18751TIP3    H177668   4.883   1.173   4.285  0.6082  0.5691  1.1573
18751TIP3    H277669   4.795   1.260   4.197 -0.4232 -1.9119 -0.3782
18752TIP3   OH277670   3.856   3.410   4.335  0.3855  0.0643 -0.1927
18752TIP3    H177671   3.914   3.437   4.406  0.6172  0.6483 -0.5982
18752TIP3    H277672   3.906   3.344   4.287  0.5329  0.2450 -0.2833
18753TIP3   OH277673   1.790   0.812  17.296 -0.4233  0.2351 -0.1806
18753TIP3    H177674   1.814   0.902  17.319  0.1552 -0.4058  1.9225
18753TIP3    H277675   1.857   0.758  17.337 -1.1475 -1.2110 -0.8271
18754TIP3   OH277676   3.510   5.348  12.308  0.7446 -0.2675  1.0533
18754TIP3    H177677   3.600   5.317  12.296  0.5495 -1.8376  3.1834
18754TIP3    H277678   3.458   5.269  12.318 -1.7135  0.3079 -4.0591
18755TIP3   OH277679   4.762   5.828  12.155 -0.1409 -0.4003  0.4978
18755TIP3    H177680   4.852   5.831  12.188 -0.5317 -0.0778  1.5958
18755TIP3    H277681   4.770   5.845  12.061  0.8497  0.9888  0.7940
18756TIP3   OH277682   5.087   1.108  14.218  0.2369  0.1776  0.0174
18756TIP3    H177683   5.063   1.167  14.147  0.3619  0.6555  0.3688
18756TIP3    H277684   5.115   1.166  14.290  2.9152 -0.3065 -0.5095
18757TIP3   OH277685   6.466   1.096  14.384  0.0658 -0.0545  0.4805
18757TIP3    H177686   6.525   1.049  14.325  0.4308 -0.1516  0.9128
18757TIP3    H277687   6.397   1.034  14.404 -0.5739  0.2846 -0.5737
18758TIP3   OH277688   0.629   2.947   1.611 -0.5570 -0.8241 -0.2365
18758TIP3    H177689   0.617   2.883   1.681 -0.2398 -1.4204 -0.7177
18758TIP3    H277690   0.544   2.992   1.605 -0.2493  0.0472  1.3002
18759TIP3   OH277691   6.734   6.112  14.997  0.2697  0.1244 -0.3624
18759TIP3    H177692   6.769   6.148  14.916  0.6065 -0.2467 -0.3875
18759TIP3    H277693   6.657   6.062  14.969 -0.3758  1.0692 -0.2892
18760TIP3   OH277694   5.836   0.855  15.925 -0.2672  0.2322  0.3272
18760TIP3    H177695   5.793   0.777  15.960  3.0772 -1.5070  0.9564
18760TIP3    H277696   5.818   0.853  15.831 -1.7599 -0.2062  0.5949
18761TIP3   OH277697   3.234   1.612   3.796 -0.0591  0.6109 -0.4534
18761TIP3    H177698   3.151   1.597   3.841 -0.3577 -0.2549 -1.2710
18761TIP3    H277699   3.254   1.704   3.813 -0.6449  0.5565  0.6323
18762TIP3   OH277700   1.269   2.250  11.759  0.3275  0.2665 -0.0439
18762TIP3    H177701   1.315   2.286  11.835 -1.0349  0.1701  0.8665
18762TIP3    H277702   1.232   2.327  11.715 -2.2648  0.1411  1.6902
18763TIP3   OH277703   6.096   2.649   5.719 -0.3118 -0.4652  0.1364
18763TIP3    H177704   6.016   2.611   5.683 -0.3264  0.5025 -0.8907
18763TIP3    H277705   6.161   2.578   5.713 -0.3649 -0.4029 -1.6464
18764TIP3   OH277706   6.568   2.618   4.768 -0.8106  0.1280  0.0011
18764TIP3    H177707   6.562   2.528   4.738  0.3117 -0.8181  2.4112
18764TIP3    H277708   6.659   2.643   4.751 -0.8167  0.4076  0.3702
18765TIP3   OH277709   4.332   4.977  16.501 -0.4957 -0.3706 -0.3871
18765TIP3    H177710   4.260   4.934  16.547 -1.1891 -2.2808 -3.0178
18765TIP3    H277711   4.291   5.049  16.454 -0.4600 -0.6426 -0.8391
18766TIP3   OH277712   4.540   6.693   3.836  0.5209  0.3155  0.1049
18766TIP3    H177713   4.472   6.701   3.769  0.5775 -0.6342 -0.0817
18766TIP3    H277714   4.501   6.732   3.915  0.0624  0.5083 -0.2135
18767TIP3   OH277715   5.270   3.224   0.895  0.6753 -0.0710  0.2015
18767TIP3    H177716   5.324   3.194   0.821 -0.1687 -0.6759 -0.1877
18767TIP3    H277717   5.303   3.312   0.914  1.3399 -0.1582 -0.4792
18768TIP3   OH277718   3.125   4.898  15.090 -0.7746  0.2128  0.3466
18768TIP3    H177719   3.082   4.817  15.064 -1.3391 -0.2532  2.5434
18768TIP3    H277720   3.218   4.884  15.069 -0.7564 -1.2854  1.2446
18769TIP3   OH277721   3.817   2.867   4.520  0.3821  0.0114 -0.0742
18769TIP3    H177722   3.871   2.822   4.585 -0.0128 -1.1500 -0.5213
18769TIP3    H277723   3.733   2.821   4.523 -0.7264  1.9350  0.7877
18770TIP3   OH277724   3.834   5.092   5.693  0.3442 -0.2194  0.3036
18770TIP3    H177725   3.802   5.010   5.733 -0.3778  0.1857  0.5748
18770TIP3    H277726   3.796   5.091   5.604 -1.5699  0.8730  1.0426
18771TIP3   OH277727   3.829   2.097   3.481  0.5642 -0.5418  0.2369
18771TIP3    H177728   3.746   2.128   3.444 -0.5676 -0.7513  2.4700
18771TIP3    H277729   3.894   2.126   3.417 -1.1715 -0.2210 -1.5204
18772TIP3   OH277730   4.947   0.511   3.401  0.3118  0.3877 -0.1581
18772TIP3    H177731   4.942   0.439   3.464 -0.1473  0.7422  0.2203
18772TIP3    H277732   4.964   0.589   3.454  0.2568  0.6440 -0.5083
18773TIP3   OH277733   0.284   2.133  11.898 -0.0906 -0.7430  0.0064
18773TIP3    H177734   0.354   2.177  11.850  0.0986  0.8107  1.5648
18773TIP3    H277735   0.204   2.155  11.850  0.2795 -0.8445 -0.6625
18774TIP3   OH277736   4.762   3.603   3.847 -0.2128 -0.4352 -0.2653
18774TIP3    H177737   4.681   3.652   3.856  0.8146  1.2481  0.0990
18774TIP3    H277738   4.777   3.598   3.752 -0.9156 -1.0892 -0.3507
18775TIP3   OH277739   3.099   3.017   0.591 -0.1888 -0.6347  0.0094
18775TIP3    H177740   3.192   2.999   0.600  0.2535  1.6869  0.7002
18775TIP3    H277741   3.082   3.088   0.653 -1.8855  0.6234 -1.7545
18776TIP3   OH277742   6.071   3.850  16.046  0.7385  0.0024 -0.1672
18776TIP3    H177743   6.066   3.942  16.072  0.0554  0.5106 -1.9414
18776TIP3    H277744   6.030   3.802  16.119 -0.0400  1.2233  0.2308
18777TIP3   OH277745   5.218   6.110   4.507 -0.3241  0.2357  0.1074
18777TIP3    H177746   5.292   6.170   4.516 -0.4377  0.6138 -1.2759
18777TIP3    H277747   5.156   6.158   4.452 -1.1507 -0.4950  0.3832
18778TIP3   OH277748   4.002   6.207   5.962 -0.3251  0.5004 -0.4515
18778TIP3    H177749   3.959   6.146   5.903  1.3170  0.2487 -1.4625
18778TIP3    H277750   3.953   6.289   5.952 -0.6050  0.2177 -1.5039
18779TIP3   OH277751   5.878   4.589  11.964  0.4180  0.2165 -0.0544
18779TIP3    H177752   5.808   4.651  11.982  2.2972  2.7638 -0.8309
18779TIP3    H277753   5.865   4.564  11.872  0.3903  0.5336 -0.1380
18780TIP3   OH277754   4.015   3.923   5.042 -0.1536 -0.4503  0.7091
18780TIP3    H177755   3.962   3.997   5.072  0.9273  0.8587 -0.4894
18780TIP3    H277756   3.963   3.846   5.065 -0.7290  0.5752  3.2032
18781TIP3   OH277757   4.439   1.616   1.268 -0.0381  0.0148 -0.3694
18781TIP3    H177758   4.351   1.652   1.278 -0.5254 -1.3519  0.6474
18781TIP3    H277759   4.434   1.558   1.193  1.1569  3.0541 -3.0435
18782TIP3   OH277760   5.534   2.652   5.472  0.0963 -0.4791 -0.4307
18782TIP3    H177761   5.509   2.571   5.517 -0.5117  0.1530  0.3990
18782TIP3    H277762   5.584   2.701   5.537  0.1731 -0.0389 -0.8169
18783TIP3   OH277763   0.462   5.325   0.108 -0.0382  0.1912 -0.2801
18783TIP3    H177764   0.498   5.378   0.179 -1.1130 -0.5005  0.8289
18783TIP3    H277765   0.422   5.388   0.048  3.3795  1.0600 -1.8890
18784TIP3   OH277766   3.945   0.803  11.582 -0.6722  0.4500 -0.4159
18784TIP3    H177767   4.007   0.758  11.525 -0.8456 -0.7633  0.3244
18784TIP3    H277768   3.916   0.879  11.531 -0.2372 -0.1798 -1.6319
18785TIP3   OH277769   3.674   5.339   2.930  0.0543 -0.0841  0.0774
18785TIP3    H177770   3.739   5.304   2.991  0.4183  0.5692  0.0735
18785TIP3    H277771   3.638   5.262   2.886 -2.1423 -0.8944  2.9623
18786TIP3   OH277772   2.899   6.517  12.466  0.3036 -0.2631  0.0701
18786TIP3    H177773   2.913   6.434  12.511  1.9544 -0.2972 -0.4394
18786TIP3    H277774   2.907   6.496  12.373 -1.0519  0.1687 -0.1638
18787TIP3   OH277775   1.865   1.833  17.276 -0.2536  0.1595 -0.1133
18787TIP3    H177776   1.888   1.820  17.184 -1.0688  0.4067 -0.3625
18787TIP3    H277777   1.770   1.823  17.279 -0.4018  1.4651  0.4664
18788TIP3   OH277778   2.947   4.673  15.081  0.8565  0.0161 -0.0458
18788TIP3    H177779   3.007   4.603  15.108  0.5881 -0.5950 -0.9756
18788TIP3    H277780   2.912   4.643  14.997 -1.7068 -0.2553  1.0408
18789TIP3   OH277781   5.489   5.896  15.166 -0.0744 -0.1495  0.1849
18789TIP3    H177782   5.562   5.903  15.227 -0.2467 -0.9744  0.4839
18789TIP3    H277783   5.490   5.805  15.137  0.9970  0.5541 -2.2856
18790TIP3   OH277784   0.585   1.567   3.298 -0.0872 -0.0237  0.4877
18790TIP3    H177785   0.543   1.521   3.371  0.4334  0.9123  1.4034
18790TIP3    H277786   0.556   1.658   3.307  2.1762  0.6997  1.2639
18791TIP3   OH277787   0.633   4.703  10.873 -0.4895 -0.0216  0.2672
18791TIP3    H177788   0.613   4.628  10.817 -1.2051 -0.2837  0.8667
18791TIP3    H277789   0.549   4.731  10.908 -0.2345  1.0788  0.0479
18792TIP3   OH277790   0.828   3.712  17.234  0.4549 -0.0438 -0.5571
18792TIP3    H177791   0.757   3.760  17.190 -1.4531 -1.1125  1.1463
18792TIP3    H277792   0.805   3.620  17.222  1.2970 -0.3973  0.4048
18793TIP3   OH277793   0.531   1.276   5.252 -0.2923  0.6847 -0.2434
18793TIP3    H177794   0.606   1.219   5.267 -1.2515 -0.9972 -1.5755
18793TIP3    H277795   0.474   1.262   5.328 -1.1003 -1.1488 -1.1322
18794TIP3   OH277796   3.457   2.527  14.616 -0.2311 -0.4271  0.1537
18794TIP3    H177797   3.523   2.532  14.685  1.8340  0.8275 -1.7589
18794TIP3    H277798   3.419   2.615  14.613 -1.1253 -0.7914  0.3924
18795TIP3   OH277799   4.027   4.376  15.904 -0.1607 -0.3694 -0.4368
18795TIP3    H177800   3.980   4.456  15.926 -0.1938 -0.8551  1.4173
18795TIP3    H277801   4.016   4.320  15.981  1.3440 -1.4609 -0.9687
18796TIP3   OH277802   4.583   0.012   3.407  0.6472  0.1847 -0.5303
18796TIP3    H177803   4.642  -0.063   3.402  2.4937  1.5098  0.0661
18796TIP3    H277804   4.595   0.057   3.324  2.7199  1.9561  0.6096
18797TIP3   OH277805   4.683   2.011   2.670 -0.1497  0.6729  0.2073
18797TIP3    H177806   4.603   2.062   2.680 -0.4363  0.6557 -1.6163
18797TIP3    H277807   4.677   1.944   2.738 -1.2524  1.2100  0.6623
18798TIP3   OH277808   5.916   4.155  12.795 -0.2599  0.4040 -0.2765
18798TIP3    H177809   5.888   4.148  12.886 -0.8217  0.6073 -0.4326
18798TIP3    H277810   5.952   4.068  12.775  0.9103  0.7018  0.4761
18799TIP3   OH277811   0.277   5.215  16.519 -0.1496  0.1757 -0.1651
18799TIP3    H177812   0.351   5.204  16.458 -0.4268  0.0207 -0.4779
18799TIP3    H277813   0.313   5.193  16.605  0.3122  0.6351 -0.2361
18800TIP3   OH277814   5.520   1.677  14.379 -0.0428  0.0117  1.1554
18800TIP3    H177815   5.468   1.632  14.312  1.5791  2.0762 -1.6965
18800TIP3    H277816   5.569   1.608  14.423 -0.1581 -1.3350 -0.7331
18801TIP3   OH277817   1.331   1.239  13.532 -1.1358 -0.1678 -0.8146
18801TIP3    H177818   1.320   1.325  13.493  1.1327  0.1015 -1.0066
18801TIP3    H277819   1.425   1.233  13.550 -1.7579 -1.0586  2.8377
18802TIP3   OH277820   3.994   4.767  14.430  0.1289  0.6009 -0.3755
18802TIP3    H177821   3.914   4.730  14.395  1.6448 -3.5906  0.0123
18802TIP3    H277822   4.049   4.782  14.353 -0.0807  0.9446 -0.4592
18803TIP3   OH277823   3.191   2.078  16.918  0.2623 -0.0466  0.2978
18803TIP3    H177824   3.136   2.090  16.996  1.0421 -1.5380  1.1364
18803TIP3    H277825   3.242   1.999  16.938  0.0421 -0.8357 -1.9892
18804TIP3   OH277826   1.376   0.622  17.025 -0.3537  0.4047 -0.6810
18804TIP3    H177827   1.322   0.701  17.026 -0.9762  0.0322 -2.1061
18804TIP3    H277828   1.453   0.645  17.077 -1.5569  1.1643  0.8880
18805TIP3   OH277829   4.804   5.305  12.171  0.2053  0.6822 -0.4178
18805TIP3    H177830   4.786   5.375  12.108 -0.8996 -0.7570 -1.7773
18805TIP3    H277831   4.862   5.245  12.124  0.4688  0.2453  0.4357
18806TIP3   OH277832   4.106   1.098   4.309 -0.2437  0.4061  0.3423
18806TIP3    H177833   4.124   1.189   4.335 -0.0822  0.9875 -1.6334
18806TIP3    H277834   4.113   1.048   4.391  3.4449  1.5876  0.9679
18807TIP3   OH277835   3.528   3.471   2.069  0.5423 -0.6081  0.0201
18807TIP3    H177836   3.573   3.492   1.987 -1.1791 -1.1837 -1.1051
18807TIP3    H277837   3.454   3.532   2.072  0.5603 -0.6271  1.1336
18808TIP3   OH277838   6.660   0.722   2.940  0.4041  0.8226 -0.2662
18808TIP3    H177839   6.662   0.725   3.035 -2.2646  0.3486 -0.1301
18808TIP3    H277840   6.714   0.796   2.912 -0.8706  2.5737  1.6609
18809TIP3   OH277841   0.224   6.299   1.123 -0.4473  0.1526  0.2842
18809TIP3    H177842   0.129   6.302   1.125 -0.4642 -0.3921  0.5536
18809TIP3    H277843   0.247   6.305   1.031 -0.8396 -1.8118  0.0108
18810TIP3   OH277844   1.920   0.499  14.779 -0.1819  0.3318 -0.0563
18810TIP3    H177845   1.987   0.447  14.734  1.2573  0.9797  1.2212
18810TIP3    H277846   1.855   0.435  14.807 -0.0806 -0.3299 -1.2651
18811TIP3   OH277847   4.039   3.719   5.705  0.3575 -0.5032  0.9403
18811TIP3    H177848   3.976   3.665   5.754 -0.4824 -1.9549 -1.5152
18811TIP3    H277849   3.985   3.787   5.665  0.6820 -0.5276  0.4582
18812TIP3   OH277850   6.446   4.727  14.113  0.6141 -0.1492 -0.2850
18812TIP3    H177851   6.415   4.644  14.077 -1.5833  0.4442  0.0488
18812TIP3    H277852   6.389   4.743  14.188  1.4768  1.3042  0.1057
18813TIP3   OH277853   5.594   0.598  16.677 -0.2243 -0.1020 -0.3005
18813TIP3    H177854   5.586   0.532  16.745  2.0923 -0.0066  0.1476
18813TIP3    H277855   5.626   0.676  16.723  0.3490  0.2875 -1.3250
18814TIP3   OH277856   2.667   1.323   4.053 -0.4109  0.5210  0.1160
18814TIP3    H177857   2.712   1.322   4.137  1.6242  0.2751 -0.9226
18814TIP3    H277858   2.621   1.407   4.051  1.4946  1.6212  0.5112
18815TIP3   OH277859   5.827   4.885   1.242  0.3324 -0.3732  0.4094
18815TIP3    H177860   5.823   4.869   1.148 -0.6597  0.7105  0.2348
18815TIP3    H277861   5.916   4.859   1.268  0.9883  0.3309 -1.0294
18816TIP3   OH277862   5.688   3.734  11.130 -0.0118  0.1185  0.1854
18816TIP3    H177863   5.620   3.671  11.152 -0.6168  1.1603  1.3934
18816TIP3    H277864   5.641   3.807  11.089  0.5470  0.2428 -0.2436
18817TIP3   OH277865   1.086   1.115   3.424 -0.2668 -0.6964  0.6755
18817TIP3    H177866   1.176   1.085   3.437 -0.2616 -1.1080 -0.2925
18817TIP3    H277867   1.068   1.101   3.331 -0.7095  1.0971  0.4479
18818TIP3   OH277868   6.175   2.351  14.596 -0.1010 -0.7437  0.3161
18818TIP3    H177869   6.253   2.320  14.642 -0.8449 -1.1616  1.3329
18818TIP3    H277870   6.181   2.447  14.601  1.1873 -0.7065 -1.1048
18819TIP3   OH277871   2.029   3.780  13.112 -0.0956  0.2402 -0.3882
18819TIP3    H177872   1.987   3.763  13.196  0.3190  0.4110 -0.1474
18819TIP3    H277873   2.037   3.693  13.072  0.4675  0.0575  0.1108
18820TIP3   OH277874   6.584   3.493   1.557  0.4743  0.2186 -0.0073
18820TIP3    H177875   6.577   3.570   1.500 -2.1597  1.4264  1.7516
18820TIP3    H277876   6.632   3.524   1.633  0.6916 -0.3001  0.0658
18821TIP3   OH277877   5.214   0.848   0.597 -0.0104  0.3469 -0.0358
18821TIP3    H177878   5.127   0.867   0.563 -0.1508  0.1107  0.1885
18821TIP3    H277879   5.231   0.919   0.660 -0.1804  0.2087  0.1677
18822TIP3   OH277880   2.477   4.708   0.479 -0.2191 -0.0371  0.1969
18822TIP3    H177881   2.516   4.655   0.410  1.1792  1.4050 -0.1726
18822TIP3    H277882   2.552   4.747   0.524 -1.1866  1.0541  0.9073
18823TIP3   OH277883   2.528   2.081   0.391  0.5266  0.3199 -0.2352
18823TIP3    H177884   2.498   2.154   0.444 -0.8094 -1.4921  1.6348
18823TIP3    H277885   2.592   2.036   0.446 -1.5230 -2.1014  0.3485
18824TIP3   OH277886   5.999   0.746   4.880 -0.4784 -0.1112  0.3219
18824TIP3    H177887   6.042   0.831   4.887 -1.1494  0.1726  1.2986
18824TIP3    H277888   6.021   0.702   4.962 -1.1990 -0.3582  0.3862
18825TIP3   OH277889   3.869   3.525  13.337 -0.2160 -0.4839 -0.1945
18825TIP3    H177890   3.814   3.459  13.294  0.4731 -1.0758 -0.1892
18825TIP3    H277891   3.860   3.506  13.431 -1.1129  0.3249 -0.0947
18826TIP3   OH277892   5.153   5.657   3.263  0.4456  0.3570 -0.4841
18826TIP3    H177893   5.222   5.713   3.297  0.3056 -0.0451  0.4868
18826TIP3    H277894   5.170   5.571   3.301 -0.8612  0.3676  0.1850
18827TIP3   OH277895   3.664   3.190   5.323 -0.7768 -0.1356 -0.5284
18827TIP3    H177896   3.597   3.136   5.364 -1.0943  0.1263 -0.6998
18827TIP3    H277897   3.633   3.280   5.336  0.1186  0.0593  0.4330
18828TIP3   OH277898   1.626   0.907  14.666 -0.1445  0.4360 -0.2860
18828TIP3    H177899   1.560   0.866  14.722  0.8272 -0.5931  0.1382
18828TIP3    H277900   1.651   0.987  14.712 -0.5914  0.4713 -0.1082
18829TIP3   OH277901   0.910   4.749  11.960  0.1242  0.0435  0.3203
18829TIP3    H177902   0.908   4.773  12.053  2.0634 -0.8115  0.6288
18829TIP3    H277903   1.003   4.745  11.938 -0.2366 -1.5980 -1.1695
18830TIP3   OH277904   4.808   2.925  12.714 -0.3376  0.0674 -0.3752
18830TIP3    H177905   4.903   2.918  12.723 -0.3215  1.3711  0.8401
18830TIP3    H277906   4.795   2.960  12.626  0.3375  0.2591 -0.4076
18831TIP3   OH277907   1.127   5.210   3.515  0.1127 -0.1136  0.6855
18831TIP3    H177908   1.144   5.230   3.607  1.1028 -2.4948  1.0721
18831TIP3    H277909   1.078   5.128   3.517 -0.8923  0.3907 -0.9184
18832TIP3   OH277910   2.784   0.482   0.277 -0.4761 -0.2320 -0.3913
18832TIP3    H177911   2.708   0.520   0.232 -0.4500  0.4007  0.0850
18832TIP3    H277912   2.786   0.527   0.362 -1.0027 -1.9506  0.5866
18833TIP3   OH277913   5.684   5.145   0.394  0.0898 -0.0902  0.4828
18833TIP3    H177914   5.747   5.187   0.452  0.1877  0.8739 -0.3024
18833TIP3    H277915   5.599   5.173   0.427  0.1485  0.5456  0.0995
18834TIP3   OH277916   0.347   6.425   0.235  0.0429 -0.4922  0.3054
18834TIP3    H177917   0.322   6.340   0.271  0.9014 -0.9825 -0.2117
18834TIP3    H277918   0.415   6.456   0.295 -0.1713 -0.2290  0.4141
18835TIP3   OH277919   5.198   5.209   0.724  0.0533 -0.2026  0.0724
18835TIP3    H177920   5.282   5.255   0.718  0.6266 -1.2511 -0.2945
18835TIP3    H277921   5.219   5.126   0.769 -1.2189  0.4873  2.0750
18836TIP3   OH277922   4.693   3.139  11.053 -0.3213  0.3098 -0.1570
18836TIP3    H177923   4.604   3.137  11.015 -0.7843  1.0993  0.8579
18836TIP3    H277924   4.736   3.062  11.015 -1.2054  0.2971 -1.2082
18837TIP3   OH277925   0.006   1.389   5.577 -0.0833 -0.5072  0.3614
18837TIP3    H177926   0.045   1.468   5.615  0.3957 -0.5615 -0.0119
18837TIP3    H277927  -0.033   1.418   5.495  0.4779 -0.7388  0.0088
18838TIP3   OH277928   0.219   1.327   6.164 -0.0724  0.0752  0.0131
18838TIP3    H177929   0.184   1.301   6.079  0.4711 -0.1722 -0.1380
18838TIP3    H277930   0.143   1.359   6.212 -0.4028  0.1188 -0.5267
18839TIP3   OH277931   4.594   3.528   4.957 -0.0352 -0.0325  0.1854
18839TIP3    H177932   4.504   3.501   4.975 -0.8421  2.9469  1.1564
18839TIP3    H277933   4.597   3.539   4.862 -0.6029 -0.3779  0.1191
18840TIP3   OH277934   6.271   4.873  16.047 -0.9334  0.0216  0.2980
18840TIP3    H177935   6.193   4.927  16.037 -0.4053  0.8287  0.4061
18840TIP3    H277936   6.262   4.832  16.132 -0.2582  1.7727  1.2575
18841TIP3   OH277937   6.191   0.527   3.052  0.4167 -0.2472  0.5426
18841TIP3    H177938   6.243   0.584   3.110 -0.1483 -0.5478  1.3681
18841TIP3    H277939   6.255   0.480   3.000  0.9150  0.6445  0.3382
18842TIP3   OH277940   0.137   2.286  15.761  0.6214 -0.4035 -0.0194
18842TIP3    H177941   0.110   2.211  15.708  1.7156 -1.0717  0.3183
18842TIP3    H277942   0.151   2.357  15.698 -0.2499 -0.5239 -0.3610
18843TIP3   OH277943   1.631   3.127  11.313 -0.3446  0.0746 -0.3416
18843TIP3    H177944   1.659   3.055  11.257 -0.7739 -0.0668 -0.3842
18843TIP3    H277945   1.711   3.171  11.339  0.1039 -1.5598  1.2313
18844TIP3   OH277946   6.167   1.404   3.147  0.2492  0.1797  0.1128
18844TIP3    H177947   6.208   1.326   3.108 -2.0806 -0.5655 -1.0636
18844TIP3    H277948   6.175   1.471   3.079  0.5683  0.3942  0.3612
18845TIP3   OH277949   2.635   3.576  16.793 -0.8010 -0.1156  0.7328
18845TIP3    H177950   2.560   3.585  16.852 -2.5152  2.0392 -1.5863
18845TIP3    H277951   2.596   3.568  16.706  1.6487 -2.1804 -0.2849
18846TIP3   OH277952   0.766   4.001   4.469  0.2939 -0.2452  0.4645
18846TIP3    H177953   0.719   4.024   4.549 -0.1554 -1.3706  0.5421
18846TIP3    H277954   0.704   3.949   4.418  0.9508 -0.5014 -0.0997
18847TIP3   OH277955   3.609   4.983  16.419  0.2121 -0.4023  0.1024
18847TIP3    H177956   3.540   4.921  16.396  0.5274 -0.7307  0.0393
18847TIP3    H277957   3.571   5.069  16.401  0.8950 -0.6346 -2.9921
18848TIP3   OH277958   0.564   2.268  14.618 -0.4245 -0.3620  0.3185
18848TIP3    H177959   0.637   2.287  14.559 -1.5704  1.1738 -0.6773
18848TIP3    H277960   0.489   2.259  14.559 -1.8710  2.5400  1.5739
18849TIP3   OH277961   5.358   3.330  12.187  0.4323  0.2455 -0.1843
18849TIP3    H177962   5.426   3.398  12.188 -0.2068  0.8878 -0.2020
18849TIP3    H277963   5.276   3.378  12.192  0.0129 -0.6063  1.4077
18850TIP3   OH277964   1.976   1.788   0.766  0.4923  0.1457 -0.1841
18850TIP3    H177965   1.931   1.757   0.845 -0.3209  1.0297 -0.2916
18850TIP3    H277966   1.911   1.839   0.719  0.6600 -1.1623 -1.9491
18851TIP3   OH277967   1.535   4.099   1.873  0.3952 -0.1669  0.4032
18851TIP3    H177968   1.569   4.015   1.905 -0.6609 -0.9125 -0.3453
18851TIP3    H277969   1.442   4.083   1.858 -0.1014  1.5115  1.4124
18852TIP3   OH277970   0.344   5.470   1.155 -0.3738  0.3027 -0.0312
18852TIP3    H177971   0.342   5.375   1.162 -0.4643  0.2946 -0.1582
18852TIP3    H277972   0.361   5.486   1.062 -2.1765  0.4196 -0.3753
18853TIP3   OH277973   0.720   1.450   6.478  0.2351  0.0125 -0.3459
18853TIP3    H177974   0.635   1.464   6.437  0.0950  1.8413  0.4745
18853TIP3    H277975   0.778   1.511   6.433  1.1380 -1.1699 -0.8509
18854TIP3   OH277976   2.899   1.096  15.100  0.4101 -0.1437 -0.0100
18854TIP3    H177977   2.941   1.177  15.069  0.5476 -0.6406 -1.1949
18854TIP3    H277978   2.959   1.026  15.073 -0.4126 -0.7448 -0.3243
18855TIP3   OH277979   0.547   2.384   2.511 -0.5897  0.6692  0.5916
18855TIP3    H177980   0.534   2.438   2.433  0.9018  2.3366  1.4109
18855TIP3    H277981   0.471   2.401   2.566 -0.6155  1.1594  0.4061
18856TIP3   OH277982   2.475   4.005   5.229 -0.4298 -0.4554 -0.0623
18856TIP3    H177983   2.391   3.958   5.231 -1.8847  1.9752  0.6074
18856TIP3    H277984   2.457   4.083   5.177  1.9081 -0.5974 -1.2043
18857TIP3   OH277985   0.993   1.787  12.237 -0.0575  0.0409  0.6166
18857TIP3    H177986   0.983   1.711  12.180 -0.3875  0.6327 -0.1352
18857TIP3    H277987   0.935   1.769  12.311  0.1097 -0.5823  0.6002
18858TIP3   OH277988   0.591   4.031   3.626  0.0901 -0.1951  0.0646
18858TIP3    H177989   0.590   3.988   3.712  1.6626  1.1836  0.8208
18858TIP3    H277990   0.499   4.033   3.600 -0.1525 -3.5627  0.1603
18859TIP3   OH277991   5.532   1.691  11.192 -0.1418  0.0316 -0.2419
18859TIP3    H177992   5.577   1.611  11.219 -1.3669 -1.1785 -1.6211
18859TIP3    H277993   5.503   1.673  11.103 -2.1816  1.2662  0.1205
18860TIP3   OH277994   6.563   5.151   1.743  0.4559  0.2446  0.1715
18860TIP3    H177995   6.541   5.144   1.651 -1.6824  1.7396  0.4888
18860TIP3    H277996   6.530   5.070   1.782 -1.1751  0.8014  0.0139
18861TIP3   OH277997   3.368   1.540   1.062  0.5461  0.1506  0.0834
18861TIP3    H177998   3.438   1.504   1.117  0.3730 -1.0637 -0.4598
18861TIP3    H277999   3.412   1.563   0.981  0.6639  1.2316  0.4471
18862TIP3   OH278000   4.604   3.768   3.445  0.5119 -0.6947  0.4197
18862TIP3    H178001   4.586   3.694   3.503 -1.3892 -0.5478  0.0965
18862TIP3    H278002   4.555   3.841   3.484  0.8831 -0.0809 -0.2481
18863TIP3   OH278003   5.999   4.619  10.982 -0.5046  0.1244  0.1124
18863TIP3    H178004   6.066   4.687  10.980  0.0932 -0.4466  0.1296
18863TIP3    H278005   5.923   4.658  10.940  0.2303  0.3922 -1.0171
18864TIP3   OH278006   4.286   5.225  16.952 -0.3762 -0.5039  0.3134
18864TIP3    H178007   4.309   5.137  16.981 -2.9117 -0.4957  2.7443
18864TIP3    H278008   4.195   5.218  16.923 -0.0015  0.9745 -1.4111
18865TIP3   OH278009   4.760   0.123  14.289 -0.0054  0.6820  0.1400
18865TIP3    H178010   4.817   0.124  14.213 -0.9168  0.2269 -0.5829
18865TIP3    H278011   4.778   0.039  14.332 -0.5159  0.2792 -0.4108
18866TIP3   OH278012   3.013   5.269  16.780  0.0180  0.2906 -0.0274
18866TIP3    H178013   3.017   5.221  16.697 -1.2590 -3.2138  1.7185
18866TIP3    H278014   3.102   5.262  16.816 -0.3548 -1.8181  0.6303
18867TIP3   OH278015   3.841   5.107   2.094 -0.2380  0.3584 -0.0366
18867TIP3    H178016   3.912   5.086   2.155  0.0973  0.2667 -0.4545
18867TIP3    H278017   3.782   5.164   2.144  0.6497  1.2699  0.0023
18868TIP3   OH278018   6.593   5.456  15.933 -0.1019 -0.3102 -0.1575
18868TIP3    H178019   6.508   5.500  15.934 -0.3968 -0.8282 -0.9055
18868TIP3    H278020   6.626   5.471  15.844  1.6708  1.8534  0.7685
18869TIP3   OH278021   1.064   6.126  12.982 -0.3600  0.2632  0.1838
18869TIP3    H178022   0.969   6.135  12.985 -0.3233  1.6557 -1.3841
18869TIP3    H278023   1.093   6.194  12.921  1.7205  0.3787  1.2148
18870TIP3   OH278024   4.168   0.675  16.576 -0.1590 -0.3162 -0.0828
18870TIP3    H178025   4.258   0.660  16.603  0.4105  0.3232 -1.5199
18870TIP3    H278026   4.167   0.652  16.483 -1.1047  1.1183 -0.4597
18871TIP3   OH278027   3.488   1.617   0.809 -0.7815  0.6945 -0.7177
18871TIP3    H178028   3.423   1.686   0.826 -0.1301  1.5610 -1.6406
18871TIP3    H278029   3.518   1.634   0.720  1.8530  1.2823  0.2025
18872TIP3   OH278030   1.856   0.708  14.604  0.0992  0.2343  0.6869
18872TIP3    H178031   1.793   0.768  14.643 -0.1460 -1.0113  2.3129
18872TIP3    H278032   1.882   0.650  14.675  0.8718 -1.1301 -0.6363
18873TIP3   OH278033   1.599   0.099  12.238  0.0170 -0.1986 -0.3511
18873TIP3    H178034   1.563   0.131  12.156  0.4519 -1.0411 -0.8944
18873TIP3    H278035   1.628   0.010  12.218 -0.0826 -0.5010  0.7805
18874TIP3   OH278036   5.370   3.743   5.060 -0.0622 -0.4054 -0.1617
18874TIP3    H178037   5.289   3.732   5.110  0.0865  2.2292  0.8398
18874TIP3    H278038   5.384   3.838   5.059  1.8662 -0.6396 -2.2037
18875TIP3   OH278039   3.784   4.123   6.571  0.3324  0.5577 -0.0408
18875TIP3    H178040   3.803   4.030   6.568  2.7470  0.9276  1.2254
18875TIP3    H278041   3.732   4.135   6.651 -1.1348  0.1742 -0.9026
18876TIP3   OH278042   0.548   1.227   0.757 -0.4575 -0.3900 -0.2178
18876TIP3    H178043   0.629   1.243   0.804 -0.4217 -0.6276 -0.1957
18876TIP3    H278044   0.555   1.136   0.728 -1.1041 -0.6983  0.5575
18877TIP3   OH278045   4.464   6.335  14.924  0.6919  0.6749  0.2350
18877TIP3    H178046   4.491   6.363  14.837  0.1095  0.3007 -0.0719
18877TIP3    H278047   4.422   6.412  14.962  0.0646  0.5456 -0.1913
18878TIP3   OH278048   5.670   1.644   1.302  0.1757 -0.2292  0.3664
18878TIP3    H178049   5.701   1.735   1.308 -0.9138  0.1852 -0.0164
18878TIP3    H278050   5.679   1.621   1.210 -0.9877  0.0432  0.1648
18879TIP3   OH278051   5.543   0.765  15.383  0.1458  0.1639  0.5011
18879TIP3    H178052   5.469   0.713  15.351  0.8422 -0.1278 -0.7041
18879TIP3    H278053   5.573   0.717  15.460 -0.3628 -0.2066  0.4791
18880TIP3   OH278054   1.503   3.568   0.642 -0.2738  0.0929 -0.0287
18880TIP3    H178055   1.583   3.516   0.637  0.9448  1.7608  1.2337
18880TIP3    H278056   1.529   3.650   0.684 -2.0414  1.8705 -2.1063
18881TIP3   OH278057   0.801   5.611  13.658 -0.1000  0.6940 -0.2851
18881TIP3    H178058   0.835   5.700  13.651  1.4793  0.3126  1.5124
18881TIP3    H278059   0.871   5.555  13.624 -1.2945  0.1305 -1.9159
18882TIP3   OH278060   0.721   5.989  16.929  0.1072 -0.4585  0.1387
18882TIP3    H178061   0.715   6.043  16.850  2.0685  0.7080  0.6934
18882TIP3    H278062   0.645   6.014  16.981  1.0257  2.0257  0.4488
18883TIP3   OH278063   2.654   3.201   3.294 -0.0992  0.2935  0.2373
18883TIP3    H178064   2.730   3.145   3.310 -0.8633 -0.6405  0.6955
18883TIP3    H278065   2.655   3.264   3.366  1.4630  1.7156 -0.9344
18884TIP3   OH278066   3.109   4.411  15.126  0.0302 -0.0496  0.4882
18884TIP3    H178067   3.184   4.380  15.075 -0.9656 -0.0611 -1.0014
18884TIP3    H278068   3.120   4.370  15.212  0.3889 -2.0648 -0.4832
18885TIP3   OH278069   3.397   5.091   2.887 -0.4171  0.2412  0.4087
18885TIP3    H178070   3.325   5.126   2.834 -0.0845  1.1336  0.5306
18885TIP3    H278071   3.424   5.164   2.942  0.2746 -0.2245  0.7004
18886TIP3   OH278072   5.139   4.968  12.404  0.7784  0.0124  0.0746
18886TIP3    H178073   5.062   5.022  12.385  0.6526  0.5334  1.8566
18886TIP3    H278074   5.208   5.006  12.350  0.5268  1.5941  0.8071
18887TIP3   OH278075   4.968   5.147  14.566 -0.0957 -0.4731 -0.0918
18887TIP3    H178076   5.062   5.132  14.557  0.5541  2.8862 -0.2220
18887TIP3    H278077   4.930   5.059  14.571  2.8235 -2.0150 -1.9353
18888TIP3   OH278078   0.073   4.897  15.657 -0.3048  0.2659  0.3344
18888TIP3    H178079   0.023   4.978  15.654 -0.5468  0.4192  4.2646
18888TIP3    H278080   0.164   4.925  15.666 -0.3289  0.1312  1.0772
18889TIP3   OH278081   5.722   1.431  11.706  0.2971  0.1064 -0.6470
18889TIP3    H178082   5.628   1.436  11.720  0.3243 -0.8462 -0.0212
18889TIP3    H278083   5.733   1.418  11.612 -0.0607  2.9535 -1.1720
18890TIP3   OH278084   2.185   2.019  16.012  0.4442  0.4425 -0.2220
18890TIP3    H178085   2.278   2.030  16.030  0.5748 -0.5913 -0.1649
18890TIP3    H278086   2.173   1.924  16.007 -0.6459  0.5556 -0.0241
18891TIP3   OH278087   0.204   6.607   6.220  0.5217 -0.3899 -0.1646
18891TIP3    H178088   0.199   6.668   6.147 -0.3121  1.0071  0.9998
18891TIP3    H278089   0.112   6.584   6.238  0.6046  0.1957  1.1322
18892TIP3   OH278090   2.129   0.596  13.254 -1.0705  0.7315  0.1564
18892TIP3    H178091   2.111   0.508  13.222  0.4041  0.0839  0.9812
18892TIP3    H278092   2.185   0.582  13.331 -0.2578  2.3967 -0.0827
18893TIP3   OH278093   1.843   3.045  15.670 -0.1354 -0.0795  0.0693
18893TIP3    H178094   1.889   3.025  15.589  1.1051  0.2935  0.6638
18893TIP3    H278095   1.890   3.119  15.707 -0.7314 -0.1998  1.1056
18894TIP3   OH278096   1.036   5.164   6.034  0.2813  0.0688 -0.0923
18894TIP3    H178097   1.014   5.081   6.076  1.0867 -0.4263 -0.6111
18894TIP3    H278098   1.048   5.225   6.106  2.5613 -0.9838  0.5262
18895TIP3   OH278099   6.505   3.127  14.110 -0.2976 -0.5253  0.5046
18895TIP3    H178100   6.519   3.218  14.138  2.9553  0.0366 -2.2752
18895TIP3    H278101   6.433   3.131  14.048 -0.9105 -0.0460  1.2410
18896TIP3   OH278102   6.347   2.499   4.932  0.0147 -0.5346  0.7429
18896TIP3    H178103   6.274   2.498   4.871  0.4571  1.0927  0.1489
18896TIP3    H278104   6.417   2.544   4.885  1.4138 -2.0452  1.3002
18897TIP3   OH278105   1.053   0.660   1.149  0.7495  0.2845 -0.4415
18897TIP3    H178106   1.133   0.699   1.184  1.2268  0.5854 -1.8157
18897TIP3    H278107   0.984   0.723   1.172  0.7841 -0.2330  1.2175
18898TIP3   OH278108   3.456   1.568  11.043 -0.7831  0.2341 -0.6630
18898TIP3    H178109   3.513   1.521  11.104 -0.2000  2.3479  0.5118
18898TIP3    H278110   3.367   1.543  11.069 -0.4960  0.0754  0.1904
18899TIP3   OH278111   4.876   6.710   5.564 -0.3346 -0.9265  0.5050
18899TIP3    H178112   4.962   6.706   5.605  0.8756 -1.3718 -1.8907
18899TIP3    H278113   4.841   6.621   5.570 -0.4964 -0.8199  1.1894
18900TIP3   OH278114   6.524   6.351   0.154  0.2468 -0.0790  0.2707
18900TIP3    H178115   6.464   6.412   0.110  0.6702 -1.2798 -2.1851
18900TIP3    H278116   6.588   6.407   0.197 -0.5859  1.2010 -0.0883
18901TIP3   OH278117   1.769   5.751   5.150  0.6289 -0.6114 -0.0600
18901TIP3    H178118   1.831   5.711   5.089  0.5596 -1.5144  0.4546
18901TIP3    H278119   1.822   5.812   5.201  0.5468  0.7852 -1.5340
18902TIP3   OH278120   2.594   1.882  12.966  0.2214  0.2721 -0.2602
18902TIP3    H178121   2.576   1.837  13.048 -1.6856 -1.0567 -1.3082
18902TIP3    H278122   2.545   1.964  12.973 -0.8312 -0.3118 -0.4264
18903TIP3   OH278123   5.290   0.277  15.261  0.4774  0.3876 -0.3913
18903TIP3    H178124   5.376   0.279  15.220  0.2593 -1.8798 -1.1094
18903TIP3    H278125   5.293   0.200  15.318 -1.4495 -0.5082 -1.4101
18904TIP3   OH278126   6.591   4.634  16.211 -0.4454  0.2551 -0.2142
18904TIP3    H178127   6.514   4.690  16.222 -1.0919 -0.3956 -1.2323
18904TIP3    H278128   6.562   4.565  16.151  1.0198  0.1752 -0.8782
18905TIP3   OH278129   5.969   4.047  13.980  0.2215 -0.4358 -0.1760
18905TIP3    H178130   5.947   4.022  14.069  2.0028 -2.0374 -0.1084
18905TIP3    H278131   6.032   4.118  13.990 -1.0775  0.7529 -0.2402
18906TIP3   OH278132   6.022   3.232   3.994 -0.4084 -0.5087  0.0920
18906TIP3    H178133   6.031   3.262   4.084  0.0948 -1.9172  0.5471
18906TIP3    H278134   6.080   3.156   3.989  0.5033  0.2358 -1.7593
18907TIP3   OH278135   0.161   2.770  12.151  0.5451  0.5759 -0.8704
18907TIP3    H178136   0.165   2.675  12.163  1.5344  0.8357  1.5348
18907TIP3    H278137   0.068   2.791  12.156  0.3843 -0.1850 -0.4837
18908TIP3   OH278138   1.905   3.378   0.345 -0.2110 -0.5439  0.1016
18908TIP3    H178139   1.956   3.445   0.391  0.5225 -0.4584 -0.8052
18908TIP3    H278140   1.940   3.378   0.256  0.4336 -2.7454  0.2927
18909TIP3   OH278141   2.443   5.949   2.983 -0.0155 -0.0990 -0.0174
18909TIP3    H178142   2.375   5.950   3.050 -0.9078  1.0115 -0.9060
18909TIP3    H278143   2.444   6.039   2.949  2.6982  0.2621  0.7475
18910TIP3   OH278144   3.370   4.217   2.547 -0.2479 -1.0528 -0.0471
18910TIP3    H178145   3.422   4.146   2.585  1.1507 -0.0776 -0.0825
18910TIP3    H278146   3.397   4.296   2.594 -0.3912 -0.2358 -1.2797
18911TIP3   OH278147   0.411   2.901  17.003 -0.4222 -0.2132  0.0351
18911TIP3    H178148   0.413   2.812  17.037  0.6702  0.5031  2.0089
18911TIP3    H278149   0.386   2.955  17.078 -2.1818  1.0679 -1.3974
18912TIP3   OH278150   4.815   2.969   1.798  0.3184 -0.2123 -0.0995
18912TIP3    H178151   4.755   2.931   1.863  0.3184 -1.1465 -0.6450
18912TIP3    H278152   4.820   2.904   1.728  1.6793  0.0247 -0.2433
18913TIP3   OH278153   5.509   2.883  13.266  0.3247 -0.0383 -0.1747
18913TIP3    H178154   5.475   2.887  13.176  0.8686  0.1483 -0.3731
18913TIP3    H278155   5.557   2.965  13.277 -1.7344  1.0709  1.1128
18914TIP3   OH278156   1.489   5.632  13.103 -1.3564  0.3871  0.6713
18914TIP3    H178157   1.441   5.621  13.185 -0.1805 -2.1887  1.1202
18914TIP3    H278158   1.574   5.591  13.119 -0.5468  1.1061 -1.4021
18915TIP3   OH278159   4.940   1.488  13.375 -0.4613  0.3155 -0.0479
18915TIP3    H178160   4.884   1.434  13.319 -0.5564  1.1262 -0.7465
18915TIP3    H278161   5.004   1.426  13.411 -1.4139 -0.5025  0.2622
18916TIP3   OH278162   6.358   5.825  16.417 -0.0844  0.0255 -0.3320
18916TIP3    H178163   6.382   5.916  16.434  0.2839 -0.1233 -0.0548
18916TIP3    H278164   6.262   5.826  16.413 -0.0513  0.6184 -1.4312
18917TIP3   OH278165   1.899   6.586   5.756 -0.1222 -0.1140 -0.4395
18917TIP3    H178166   1.808   6.560   5.741 -0.1105  0.7279 -2.3671
18917TIP3    H278167   1.947   6.504   5.760 -0.8731 -0.5513 -0.0794
18918TIP3   OH278168   1.965   4.432   5.699  0.4296 -0.4066  0.5496
18918TIP3    H178169   1.971   4.413   5.792  1.6765 -0.8776  0.3910
18918TIP3    H278170   1.932   4.522   5.695  1.0789 -0.1046  1.4735
18919TIP3   OH278171   1.739   6.520   5.278 -0.1488 -0.2044 -0.5887
18919TIP3    H178172   1.801   6.452   5.251 -0.5470 -0.3405 -1.1701
18919TIP3    H278173   1.679   6.475   5.338  1.0586  0.2237  1.0117
18920TIP3   OH278174   0.413   0.889  13.631 -0.5823  0.3554 -0.2187
18920TIP3    H178175   0.375   0.901  13.718 -1.7122 -0.6804 -0.5303
18920TIP3    H278176   0.427   0.978  13.598 -0.4013  0.7515  0.9061
18921TIP3   OH278177   3.291   1.685  12.364 -0.2798  0.0564 -0.5241
18921TIP3    H178178   3.252   1.654  12.283 -0.9335 -0.5347  0.0070
18921TIP3    H278179   3.385   1.690  12.345 -0.5279  0.9302 -1.6354
18922TIP3   OH278180   2.447   3.680  11.766  0.0219 -0.1054 -0.4528
18922TIP3    H178181   2.360   3.648  11.744 -1.0878  3.4145 -1.8214
18922TIP3    H278182   2.431   3.754  11.825  2.0108  1.0074 -1.2074
18923TIP3   OH278183   3.747   3.737  14.419 -0.1199  0.5515  0.2353
18923TIP3    H178184   3.776   3.736  14.510  0.7407  0.6047 -0.0278
18923TIP3    H278185   3.792   3.812  14.380 -1.1475  1.0474 -0.0315
18924TIP3   OH278186   4.744   5.069   2.451 -0.7959 -0.5120 -0.3160
18924TIP3    H178187   4.770   5.037   2.365  2.2703  0.1924  0.2249
18924TIP3    H278188   4.693   5.149   2.433  1.3104  0.6568 -1.5454
18925TIP3   OH278189   4.525   0.594   4.945  0.4369 -0.0129 -0.0601
18925TIP3    H178190   4.548   0.666   4.886  0.9344  0.3390  0.5478
18925TIP3    H278191   4.594   0.595   5.012  0.2015 -0.7746  0.2022
18926TIP3   OH278192   6.161   1.330   0.138  0.0639 -0.0128 -0.5076
18926TIP3    H178193   6.251   1.299   0.129  0.9144  2.1387 -0.1071
18926TIP3    H278194   6.145   1.331   0.232 -0.3967 -0.3906 -0.5768
18927TIP3   OH278195   5.841   6.436   1.550 -0.1385 -0.0804 -0.2664
18927TIP3    H178196   5.769   6.373   1.553  1.5338 -2.0334  1.7382
18927TIP3    H278197   5.828   6.491   1.627 -0.8489  1.2631 -1.2962
18928TIP3   OH278198   4.602   2.727   5.951 -0.7568 -0.0744 -0.1153
18928TIP3    H178199   4.559   2.649   5.917 -1.0891  0.5877 -1.2839
18928TIP3    H278200   4.542   2.761   6.017 -0.3947 -1.0418  0.7385
18929TIP3   OH278201   2.115   0.790   5.398 -0.3500 -0.2629 -0.5764
18929TIP3    H178202   2.120   0.834   5.483 -1.3641  1.8221 -1.5368
18929TIP3    H278203   2.032   0.744   5.399 -0.5062  0.0198 -0.5581
18930TIP3   OH278204   4.038   6.236   1.274 -0.1146  0.0263 -0.1541
18930TIP3    H178205   4.023   6.198   1.187 -2.0951  0.0722  0.1207
18930TIP3    H278206   4.125   6.205   1.299 -0.4284 -1.8517 -1.2098
18931TIP3   OH278207   3.859   4.465   5.335  0.1720  0.0467  0.0575
18931TIP3    H178208   3.915   4.394   5.303 -0.6140 -0.2528 -0.6758
18931TIP3    H278209   3.889   4.543   5.286  0.3330  0.0071  0.0925
18932TIP3   OH278210   2.831   4.026   5.501  0.5244 -0.1898 -0.3748
18932TIP3    H178211   2.808   4.096   5.440  2.4643  0.1595 -0.7864
18932TIP3    H278212   2.876   3.961   5.447  2.4379  0.2004  0.6447
18933TIP3   OH278213   6.311   2.737  12.849 -0.4828  0.1378 -0.0575
18933TIP3    H178214   6.221   2.705  12.843 -1.2306  2.3358 -1.9521
18933TIP3    H278215   6.303   2.825  12.887  0.3594  1.8677 -3.5027
18934TIP3   OH278216   5.088   5.924  13.117  0.2191 -0.5326  0.3156
18934TIP3    H178217   5.113   5.848  13.170  0.9481 -1.7961 -1.7221
18934TIP3    H278218   5.163   5.939  13.059  0.6636  2.6283  1.4753
18935TIP3   OH278219   6.333   0.669  16.606 -0.2970  0.1017  0.0372
18935TIP3    H178220   6.373   0.618  16.536 -0.6120 -0.4659  0.2706
18935TIP3    H278221   6.398   0.668  16.677  0.4700  1.5395 -0.6025
18936TIP3   OH278222   1.666   5.791  16.318 -0.3441 -0.1402 -0.2317
18936TIP3    H178223   1.645   5.801  16.411 -0.0056 -2.1679  0.1140
18936TIP3    H278224   1.587   5.821  16.273 -1.0629 -0.4450  0.7760
18937TIP3   OH278225   1.240   5.327   1.195 -0.0352  0.7888  0.4637
18937TIP3    H178226   1.219   5.296   1.107 -0.4941 -0.1559  0.8888
18937TIP3    H278227   1.278   5.414   1.182  4.0373 -0.9882 -1.0589
18938TIP3   OH278228   2.268   3.925   5.955 -0.1524 -0.1462 -0.1856
18938TIP3    H178229   2.357   3.893   5.970 -0.7844 -1.5233  0.8324
18938TIP3    H278230   2.267   3.951   5.862  1.3272  0.0023 -0.1769
18939TIP3   OH278231   1.445   5.267   3.869  0.4123 -0.1280 -0.2636
18939TIP3    H178232   1.531   5.301   3.891  0.7604 -0.2052 -1.4699
18939TIP3    H278233   1.439   5.275   3.774 -0.7617 -0.4709 -0.2357
18940TIP3   OH278234   6.370   0.607   4.900 -0.4841  0.1685 -0.0167
18940TIP3    H178235   6.463   0.617   4.881 -0.5885  0.2809 -0.4803
18940TIP3    H278236   6.364   0.523   4.946  0.0137  0.8191  1.2576
18941TIP3   OH278237   4.941   0.356   2.381 -0.4119  0.4836 -0.1802
18941TIP3    H178238   4.858   0.350   2.428 -1.1127  0.4030 -1.3658
18941TIP3    H278239   5.001   0.399   2.442 -1.5436  1.2371  0.4321
18942TIP3   OH278240   0.191   0.476  13.143  0.7151  0.6919  0.5867
18942TIP3    H178241   0.139   0.528  13.206 -0.1506  0.7212 -0.1272
18942TIP3    H278242   0.206   0.393  13.188 -4.9572 -1.7415 -1.1146
18943TIP3   OH278243   3.996   0.007   3.151  0.2095 -0.4654  0.7027
18943TIP3    H178244   4.059   0.066   3.111  0.3233  0.0675  1.6413
18943TIP3    H278245   4.029  -0.007   3.240 -0.8652 -0.3429  1.1396
18944TIP3   OH278246   3.190   2.863   4.540 -0.0170 -0.0072 -0.4574
18944TIP3    H178247   3.170   2.770   4.533  0.7925 -0.2375  0.1741
18944TIP3    H278248   3.105   2.906   4.533 -0.3413 -0.7547 -1.2923
18945TIP3   OH278249   6.031   1.557   0.858 -0.5057 -0.3118 -0.1387
18945TIP3    H178250   6.106   1.501   0.838 -0.1647 -0.3981  1.2282
18945TIP3    H278251   5.963   1.495   0.886 -1.0565 -0.2257 -1.2607
18946TIP3   OH278252   1.692   5.111  11.979  0.7805 -0.5923  0.4037
18946TIP3    H178253   1.633   5.038  11.997  0.5434 -0.4523  0.2039
18946TIP3    H278254   1.686   5.124  11.884 -0.2565  0.5832  0.5993
18947TIP3   OH278255   6.640   4.172   1.916 -0.5298  0.4566  0.5431
18947TIP3    H178256   6.724   4.200   1.881  0.6531  1.1699  3.6284
18947TIP3    H278257   6.620   4.090   1.871  1.1577  0.9269 -1.1565
18948TIP3   OH278258   2.966   5.978  14.818  0.3566 -0.0054  0.1193
18948TIP3    H178259   2.950   6.056  14.766  1.1009 -0.3365 -0.6264
18948TIP3    H278260   3.062   5.976  14.829  0.2004  0.3117  1.9008
18949TIP3   OH278261   1.090   6.609  13.859 -0.3125 -0.1230  0.4567
18949TIP3    H178262   1.027   6.538  13.861 -1.6132  0.9968  1.3135
18949TIP3    H278263   1.172   6.568  13.832 -1.4654 -1.5657 -1.0283
18950TIP3   OH278264   1.059   3.402   5.237  0.2432  0.5312 -0.0341
18950TIP3    H178265   1.153   3.406   5.258  0.0334  0.9874  0.8427
18950TIP3    H278266   1.040   3.309   5.231  1.0000  0.4357 -1.3933
18951TIP3   OH278267   1.054   0.040   3.626 -0.0547 -0.6012  0.0143
18951TIP3    H178268   1.054   0.013   3.534  1.0818  1.8073 -0.7685
18951TIP3    H278269   1.135   0.091   3.636 -0.3055 -0.5350  2.2895
18952TIP3   OH278270   4.277   5.042  12.647 -0.0139 -0.0655 -0.0232
18952TIP3    H178271   4.353   4.983  12.640  0.8409  0.8864  0.9681
18952TIP3    H278272   4.313   5.129  12.630 -1.3281  0.1727 -1.7982
18953TIP3   OH278273   0.637   2.422   1.008 -0.4485  0.6067  0.0791
18953TIP3    H178274   0.544   2.442   1.005 -0.5670  0.1024  0.2756
18953TIP3    H278275   0.675   2.472   0.935 -0.6117  2.1243  0.9736
18954TIP3   OH278276   4.481   4.598  15.126 -0.2884 -0.2998  0.5952
18954TIP3    H178277   4.463   4.596  15.220 -0.4155  0.0855  0.5823
18954TIP3    H278278   4.448   4.515  15.093 -0.8838 -0.1377  0.7769
18955TIP3   OH278279   5.918   4.792  14.566  0.1395  0.3098 -0.5835
18955TIP3    H178280   6.014   4.788  14.571  0.0615 -0.9315  0.1206
18955TIP3    H278281   5.887   4.761  14.651 -0.8949  3.1353  0.1799
18956TIP3   OH278282   0.373   2.596   0.004 -0.0691  0.4495  0.2449
18956TIP3    H178283   0.278   2.595   0.012  0.0099  2.0681  2.4437
18956TIP3    H278284   0.402   2.521   0.056 -0.1296  1.2802  1.5403
18957TIP3   OH278285   4.131   4.131  16.513 -0.0724 -0.4208  0.1127
18957TIP3    H178286   4.116   4.168  16.600 -2.3641  0.3098 -0.5065
18957TIP3    H278287   4.119   4.204  16.453 -0.0020 -1.2090 -0.8987
18958TIP3   OH278288   3.705   3.021   1.412 -0.1976  0.2872 -0.1842
18958TIP3    H178289   3.616   3.049   1.435 -0.2010  1.6724 -1.7261
18958TIP3    H278290   3.759   3.098   1.426  0.1415  0.5670 -2.6159
18959TIP3   OH278291   6.258   4.140  13.673  0.1731  0.2318 -0.3606
18959TIP3    H178292   6.242   4.055  13.633 -0.7316  0.6485 -0.9294
18959TIP3    H278293   6.349   4.161  13.651  0.6577 -0.9251  0.4632
18960TIP3   OH278294   0.218   0.069  16.011 -0.5431  0.6349 -0.1553
18960TIP3    H178295   0.204   0.037  15.922 -2.5462 -0.4380  0.4903
18960TIP3    H278296   0.244  -0.009  16.061  1.3491  1.3663  0.0898
18961TIP3   OH278297   0.303   4.496  11.255  0.5341  0.6793 -0.6229
18961TIP3    H178298   0.301   4.579  11.304  2.0834 -0.3815  1.3676
18961TIP3    H278299   0.395   4.482  11.236  0.2567 -0.4390 -1.2264
18962TIP3   OH278300   0.026   3.271   2.461  0.4165 -0.4644  0.0949
18962TIP3    H178301  -0.044   3.208   2.448  0.1879 -0.1908  0.0086
18962TIP3    H278302   0.037   3.314   2.377  0.3736 -0.1822  0.2311
18963TIP3   OH278303   4.086   5.125   6.044  0.6594  0.6299 -0.2345
18963TIP3    H178304   4.069   5.075   5.964  0.3492  0.9477 -0.3725
18963TIP3    H278305   4.053   5.213   6.024  2.1273  1.1700 -0.3694
18964TIP3   OH278306   5.422   0.011  16.285  0.1712 -0.0998 -0.3902
18964TIP3    H178307   5.346  -0.016  16.337  1.2453 -0.1422  1.2412
18964TIP3    H278308   5.385   0.058  16.210 -1.5049 -1.4192 -0.4391
18965TIP3   OH278309   5.529   6.016  13.400 -0.1494  0.1991 -0.8215
18965TIP3    H178310   5.522   6.109  13.424 -0.1694  0.0574 -0.2475
18965TIP3    H278311   5.439   5.989  13.382 -0.2448  0.1173 -0.2696
18966TIP3   OH278312   2.945   6.547   1.433  0.4195 -0.2730  0.1173
18966TIP3    H178313   2.992   6.464   1.445  0.7333 -0.2661 -1.0178
18966TIP3    H278314   2.917   6.547   1.342 -0.1828  0.5697  0.2869
18967TIP3   OH278315   1.588   0.262   2.021 -0.3020  0.3275  0.3195
18967TIP3    H178316   1.658   0.305   2.072  1.5251 -1.1120 -0.8201
18967TIP3    H278317   1.630   0.240   1.938 -2.5626  0.6041 -0.9519
18968TIP3   OH278318   2.775   1.974   2.567 -0.0104  0.7873  0.4246
18968TIP3    H178319   2.697   2.006   2.521  0.0398  0.8207  0.3623
18968TIP3    H278320   2.780   2.028   2.646 -1.5850 -0.9751  1.8234
18969TIP3   OH278321   2.242   1.179  17.068  0.0612 -0.2461 -0.2579
18969TIP3    H178322   2.277   1.251  17.015  2.3959 -1.2431 -0.2106
18969TIP3    H278323   2.225   1.109  17.005  0.7557 -0.6927  0.0443
18970TIP3   OH278324   0.528   1.779   1.725  0.3654  0.7761  0.9063
18970TIP3    H178325   0.521   1.785   1.630  0.4288  0.1445  0.8571
18970TIP3    H278326   0.450   1.731   1.752 -0.4309  2.2571  1.3339
18971TIP3   OH278327   6.537   3.544  15.589 -0.1846 -0.5122  0.3125
18971TIP3    H178328   6.549   3.636  15.610  1.0035 -0.6577  0.3290
18971TIP3    H278329   6.457   3.542  15.536  0.4049  0.6806 -0.6837
18972TIP3   OH278330   4.059   6.069   0.343 -0.4643 -0.1185  0.0401
18972TIP3    H178331   4.144   6.112   0.341 -0.8831  0.7102 -1.5896
18972TIP3    H278332   4.002   6.130   0.390 -0.5052  0.0345 -0.2048
18973TIP3   OH278333   2.847   4.833  15.608 -0.3259  0.0239  0.2420
18973TIP3    H178334   2.849   4.796  15.520  0.2510 -2.7894  1.3228
18973TIP3    H278335   2.931   4.807  15.647 -0.4494  1.4384  1.5640
18974TIP3   OH278336   5.564   4.677  12.362 -0.2878  0.3651 -0.3199
18974TIP3    H178337   5.588   4.720  12.444  1.9085  0.0566 -0.7537
18974TIP3    H278338   5.556   4.585  12.385 -1.8046  0.5269 -0.0612
18975TIP3   OH278339   2.318   5.097   1.598  0.2139  0.2499 -0.4081
18975TIP3    H178340   2.282   5.171   1.550  0.4901  0.5828 -0.1071
18975TIP3    H278341   2.264   5.092   1.677  0.2703  0.2043 -0.3725
18976TIP3   OH278342   2.665   1.160   4.755 -0.2920 -0.6088  0.6456
18976TIP3    H178343   2.724   1.235   4.763  0.8684 -1.5832  1.5789
18976TIP3    H278344   2.629   1.148   4.843  0.7813 -2.0999  0.9201
18977TIP3   OH278345   6.540   0.595   6.508 -0.2815  0.5669  0.4069
18977TIP3    H178346   6.476   0.662   6.530 -0.6534 -0.2415  1.9134
18977TIP3    H278347   6.494   0.512   6.520  1.4204 -0.1189  3.1918
18978TIP3   OH278348   6.696   5.213  14.969 -0.3649  0.3982 -0.1132
18978TIP3    H178349   6.745   5.294  14.962 -0.1081  0.4115  1.5684
18978TIP3    H278350   6.678   5.203  15.062 -2.0219 -0.5236 -0.4849
18979TIP3   OH278351   2.622   0.949  15.505  0.3223 -0.2288 -0.7513
18979TIP3    H178352   2.569   1.001  15.566 -0.0862  0.1027 -1.3824
18979TIP3    H278353   2.659   1.014  15.445  0.9910 -0.5176 -0.6625
18980TIP3   OH278354   0.106   3.563   2.600  0.4199  0.0142 -0.0058
18980TIP3    H178355   0.029   3.621   2.598  1.5841  1.6222  0.1458
18980TIP3    H278356   0.078   3.485   2.550 -0.9868  0.9618 -0.7751
18981TIP3   OH278357   1.878   4.619  16.481  0.3714  0.0080 -0.0429
18981TIP3    H178358   1.802   4.645  16.533  1.0502  1.1004  0.4330
18981TIP3    H278359   1.844   4.610  16.392 -0.5228 -0.5614  0.3426
18982TIP3   OH278360   4.891   4.995   2.666 -0.4706 -0.1386 -0.0459
18982TIP3    H178361   4.830   4.934   2.709 -0.7823 -0.3580 -0.7781
18982TIP3    H278362   4.842   5.028   2.591  0.8463 -1.6085 -1.6468
18983TIP3   OH278363   5.802   4.351  15.291 -0.0928  0.0330 -0.0207
18983TIP3    H178364   5.764   4.380  15.374 -2.1789  1.6319 -1.4335
18983TIP3    H278365   5.768   4.413  15.227  2.1074 -0.6723 -1.9804
18984TIP3   OH278366   2.862   4.313  15.101 -0.1714 -0.3954  0.0894
18984TIP3    H178367   2.834   4.241  15.044 -0.2591  1.3565 -2.1906
18984TIP3    H278368   2.951   4.332  15.074 -0.0159  0.1384  0.9351
18985TIP3   OH278369   6.632   0.416   2.497 -0.1644  0.6679  0.2568
18985TIP3    H178370   6.579   0.395   2.574  0.4129  1.4634  0.8860
18985TIP3    H278371   6.576   0.473   2.445  0.2918  2.1183  1.2800
18986TIP3   OH278372   2.459   3.844  16.901 -1.2294  0.1264  0.0228
18986TIP3    H178373   2.469   3.938  16.913  0.1368 -0.0701  0.5673
18986TIP3    H278374   2.440   3.833  16.808 -0.1438  0.8562 -0.2963
18987TIP3   OH278375   4.644   3.854   4.076 -0.3079  0.4734 -0.0544
18987TIP3    H178376   4.624   3.846   4.169  0.6424  0.7771  0.1913
18987TIP3    H278377   4.577   3.802   4.032 -1.8609  1.7987  0.6583
18988TIP3   OH278378   4.724   1.733  11.118 -0.7123 -0.3742  0.6662
18988TIP3    H178379   4.808   1.765  11.150 -1.5686  2.6746  0.1916
18988TIP3    H278380   4.743   1.645  11.084  2.6936  0.8466 -1.0826
18989TIP3   OH278381   4.068   3.608   1.239  0.7392  0.2810 -0.1122
18989TIP3    H178382   4.112   3.670   1.181 -0.2631  0.3376 -0.8527
18989TIP3    H278383   4.122   3.529   1.234  1.0409  0.5080 -0.5961
18990TIP3   OH278384   1.350   0.733   3.559 -0.2017  0.1163  0.1684
18990TIP3    H178385   1.285   0.802   3.549  0.1035  0.3733 -0.0511
18990TIP3    H278386   1.305   0.653   3.531 -0.1340  0.4323 -0.8882
18991TIP3   OH278387   6.759   6.675   5.661  0.3982  0.1058 -0.0839
18991TIP3    H178388   6.849   6.707   5.657  0.3282  0.2545 -0.6125
18991TIP3    H278389   6.762   6.601   5.722  0.7933  0.3763  0.2280
18992TIP3   OH278390   2.914   2.824  16.989 -0.0992  0.0903  0.0109
18992TIP3    H178391   2.904   2.919  16.991  3.0906  0.5833  3.6294
18992TIP3    H278392   2.970   2.807  16.913  0.9305  1.3912  0.4472
18993TIP3   OH278393   6.271   1.846   3.674 -0.2628  0.3488 -0.5886
18993TIP3    H178394   6.308   1.881   3.593  0.5624  0.4423 -0.1876
18993TIP3    H278395   6.177   1.861   3.666 -0.0030  2.3022 -0.6311
18994TIP3   OH278396   5.349   6.628   0.574 -0.1698 -0.3986 -0.6150
18994TIP3    H178397   5.382   6.538   0.566 -1.5525 -1.0070 -0.0369
18994TIP3    H278398   5.337   6.658   0.484  0.0363 -0.9079 -0.8171
18995TIP3   OH278399   3.569   1.289  12.671  0.2428  0.2862 -0.1545
18995TIP3    H178400   3.658   1.312  12.644  0.1641  0.0061 -0.6739
18995TIP3    H278401   3.572   1.287  12.766  1.2836 -1.6004 -0.1922
18996TIP3   OH278402   0.372   0.905  16.677  0.5241 -0.6312  0.5788
18996TIP3    H178403   0.344   0.907  16.768 -1.0270  0.2829  0.1209
18996TIP3    H278404   0.297   0.939  16.628  1.5592 -0.4795 -0.9814
18997TIP3   OH278405   2.442   4.601   1.349 -0.5751  0.0352  0.4343
18997TIP3    H178406   2.410   4.511   1.360  0.8158 -0.5403  0.0742
18997TIP3    H278407   2.408   4.629   1.264  0.3019 -0.7797 -0.2121
18998TIP3   OH278408   0.686   1.879  15.058  0.2526 -0.5156  0.3369
18998TIP3    H178409   0.756   1.817  15.038  0.0323 -0.6734  0.0405
18998TIP3    H278410   0.704   1.908  15.147  0.1796 -1.2600  0.6044
18999TIP3   OH278411   2.847   3.325  10.563 -0.1424  0.0311  0.8641
18999TIP3    H178412   2.771   3.380  10.540  0.8830  1.6199  1.1249
18999TIP3    H278413   2.840   3.249  10.505 -3.4225 -1.2850  2.7212
19000TIP3   OH278414   3.989   5.834   2.186  0.7116  0.2378 -1.1246
19000TIP3    H178415   3.922   5.882   2.234  0.3362  0.6792 -2.0748
19000TIP3    H278416   4.046   5.798   2.254 -0.4741 -0.1367 -0.2955
19001TIP3   OH278417   4.111   6.191   3.427 -0.0736  0.4707  0.0516
19001TIP3    H178418   4.039   6.243   3.390 -0.2149  1.1600  1.2724
19001TIP3    H278419   4.180   6.255   3.444  0.5763 -0.0871 -0.4479
19002TIP3   OH278420   4.149   6.559  12.783  0.0651 -0.7589  0.2667
19002TIP3    H178421   4.212   6.529  12.850 -0.0316 -0.8791  0.3030
19002TIP3    H278422   4.154   6.494  12.714  3.5057  1.5725 -2.0089
19003TIP3   OH278423   6.312   1.215   5.804 -0.7590  0.4132 -0.4821
19003TIP3    H178424   6.253   1.289   5.814 -0.5325  0.9953 -2.7851
19003TIP3    H278425   6.272   1.145   5.855 -2.3475  1.3915 -0.3305
19004TIP3   OH278426   1.355   4.918   5.765 -0.3382  0.0214 -0.1964
19004TIP3    H178427   1.373   4.960   5.849 -0.5969 -1.3591  0.5914
19004TIP3    H278428   1.436   4.871   5.744 -0.1580  0.6402 -0.8971
19005TIP3   OH278429   0.986   6.216  14.861 -0.3600  0.0709 -0.4192
19005TIP3    H178430   0.949   6.250  14.780  0.0147  1.3925 -0.0621
19005TIP3    H278431   1.006   6.294  14.912  1.3982 -0.6651  0.0633
19006TIP3   OH278432   4.041   4.629  16.283  0.2073 -0.3298 -0.4818
19006TIP3    H178433   4.124   4.614  16.327  1.4394  0.9598 -2.2096
19006TIP3    H278434   4.029   4.724  16.287 -2.1148 -0.6032  1.2402
19007TIP3   OH278435   0.693   5.955   5.660 -0.6362  0.4141 -0.0783
19007TIP3    H178436   0.784   5.963   5.687 -0.4838  0.5118 -0.6076
19007TIP3    H278437   0.644   5.943   5.741 -0.2297  1.0303  0.2610
19008TIP3   OH278438   2.029   2.464  12.129  0.2108 -0.1063 -0.0546
19008TIP3    H178439   1.944   2.445  12.168  0.9590 -2.3342  0.6097
19008TIP3    H278440   2.078   2.509  12.198 -0.0528  0.1879 -0.0589
19009TIP3   OH278441   6.451   2.750   2.987 -0.7861 -0.0137 -0.2543
19009TIP3    H178442   6.458   2.792   2.902  2.3164  1.3343  0.5150
19009TIP3    H278443   6.469   2.657   2.970 -1.0936  0.0851 -1.1549
19010TIP3   OH278444   2.146   2.421   1.502 -0.0294  0.1983 -1.0899
19010TIP3    H178445   2.226   2.474   1.508  0.6033 -0.7482 -0.8379
19010TIP3    H278446   2.109   2.423   1.590  0.7687 -0.9028 -0.6962
19011TIP3   OH278447   5.707   3.077  16.652  0.0098 -0.2911  0.0831
19011TIP3    H178448   5.674   3.106  16.737  0.8051 -0.3519  0.4152
19011TIP3    H278449   5.673   2.988  16.642  1.3993 -0.9734  1.1635
19012TIP3   OH278450   1.640   3.467  15.466  0.2889 -1.0400 -0.1176
19012TIP3    H178451   1.715   3.446  15.521  0.3556 -2.8566 -0.8389
19012TIP3    H278452   1.566   3.426  15.511  0.0384 -0.8921 -0.3968
19013TIP3   OH278453   2.665   1.328  12.302 -0.6315  0.2925 -0.0402
19013TIP3    H178454   2.668   1.247  12.352 -0.4171  0.0131 -0.4941
19013TIP3    H278455   2.756   1.357  12.298 -0.4820 -0.2537 -1.1523
19014TIP3   OH278456   1.456   1.682  17.345  0.6041 -0.0127  0.1356
19014TIP3    H178457   1.444   1.652  17.435 -1.2526 -1.3487 -0.4959
19014TIP3    H278458   1.386   1.746  17.331 -0.3328 -1.2053 -0.8913
19015TIP3   OH278459   5.535   0.062  14.735 -0.0363  1.1928  0.1011
19015TIP3    H178460   5.588   0.053  14.814  0.5218  1.3870 -0.2480
19015TIP3    H278461   5.482   0.140  14.750 -0.1981  1.0177  0.4376
19016TIP3   OH278462   6.545   1.585  14.271  0.2172 -0.0517 -0.3523
19016TIP3    H178463   6.562   1.620  14.183 -1.4003 -1.9543 -1.5249
19016TIP3    H278464   6.574   1.654  14.331  3.1995  0.5403 -2.2835
19017TIP3   OH278465   3.721   2.091   0.248  0.1425  0.1860  0.3174
19017TIP3    H178466   3.793   2.148   0.220  0.1267 -0.0161 -0.1373
19017TIP3    H278467   3.688   2.053   0.167  0.4736 -0.8527  0.6580
19018TIP3   OH278468   4.287   0.555  15.822  0.0720  0.1852  0.6942
19018TIP3    H178469   4.305   0.599  15.739 -0.7679  0.0772  0.4499
19018TIP3    H278470   4.229   0.482  15.799 -1.2642  0.9423  1.5321
19019TIP3   OH278471   2.568   1.616   5.800 -0.1425 -0.6654  0.0889
19019TIP3    H178472   2.482   1.612   5.841 -0.9786  1.5762 -1.3005
19019TIP3    H278473   2.556   1.575   5.714  0.2633 -0.6489  0.0203
19020TIP3   OH278474   3.644   3.460   4.560  0.2356  0.5088 -0.1170
19020TIP3    H178475   3.704   3.397   4.519  0.3396  0.8707 -0.5293
19020TIP3    H278476   3.677   3.470   4.649  1.6738  1.7620 -0.7267
19021TIP3   OH278477   2.535   5.531   2.963 -0.3396  0.1525 -0.0496
19021TIP3    H178478   2.617   5.488   2.935  0.5453  0.2901  2.1473
19021TIP3    H278479   2.564   5.611   3.005 -1.8749  1.9636 -2.2271
19022TIP3   OH278480   4.097   4.294  16.730 -0.5380 -0.1833 -0.1403
19022TIP3    H178481   4.061   4.317  16.816 -0.5597  0.5186 -0.3273
19022TIP3    H278482   4.156   4.366  16.709 -0.2000 -0.5669 -0.5230
19023TIP3   OH278483   0.671   3.254  12.132 -0.0527  0.0600  0.0981
19023TIP3    H178484   0.743   3.213  12.083  0.1814  0.4300  0.1240
19023TIP3    H278485   0.690   3.348  12.126 -1.0703  0.2307 -0.7378
19024TIP3   OH278486   4.766   5.574  13.579 -0.1910  1.0438  0.2384
19024TIP3    H178487   4.718   5.553  13.660 -0.8105  0.0197 -0.3670
19024TIP3    H278488   4.853   5.601  13.609  0.1901 -1.0456  1.1973
19025TIP3   OH278489   3.039   0.546  11.522 -0.2290  0.2415  0.3615
19025TIP3    H178490   3.044   0.517  11.613 -1.3561 -1.7450 -0.1696
19025TIP3    H278491   2.947   0.537  11.498  0.2991 -0.7976 -1.4334
19026TIP3   OH278492   3.390   6.212   1.489  0.4738  0.0222 -0.1524
19026TIP3    H178493   3.374   6.128   1.532 -0.1905  0.5873  0.7243
19026TIP3    H278494   3.475   6.240   1.523 -0.8803  1.3570  2.3130
19027TIP3   OH278495   6.547   3.634   5.442  0.9264  0.8410 -0.4874
19027TIP3    H178496   6.527   3.679   5.360  0.5278  0.9788 -0.3192
19027TIP3    H278497   6.555   3.705   5.506  0.4863  0.6902 -0.2594
19028TIP3   OH278498   6.414   3.897  15.247 -0.5955 -0.3459 -0.3297
19028TIP3    H178499   6.371   3.966  15.297 -1.3165 -0.8915 -0.1740
19028TIP3    H278500   6.346   3.831  15.233  0.0113 -0.9194 -0.6839
19029TIP3   OH278501   1.152   2.416  16.527  0.3099 -0.1714 -0.0522
19029TIP3    H178502   1.160   2.377  16.440 -2.0096  2.1673 -1.4688
19029TIP3    H278503   1.084   2.365  16.570 -0.6088  0.4131 -0.7701
19030TIP3   OH278504   4.967   2.219  12.817  0.2749 -0.0938 -0.3064
19030TIP3    H178505   4.982   2.189  12.907  0.1945 -0.1572 -0.3129
19030TIP3    H278506   5.016   2.157  12.763 -3.9283 -3.5341 -0.7233
19031TIP3   OH278507   5.904   6.493  15.319  0.7007 -0.4861  0.0441
19031TIP3    H178508   5.981   6.529  15.273  0.9173 -1.2459 -0.2045
19031TIP3    H278509   5.925   6.503  15.412  0.7533  0.0259 -0.0157
19032TIP3   OH278510   0.302   0.135  12.817 -0.4317  0.3423  0.2321
19032TIP3    H178511   0.266   0.054  12.781 -1.2873 -0.4890  2.7691
19032TIP3    H278512   0.387   0.145  12.773 -1.3351 -0.5741 -1.8895
19033TIP3   OH278513   6.015   6.193   1.002  0.2529  0.0810 -0.4236
19033TIP3    H178514   5.923   6.202   1.030 -0.1909 -0.6581 -1.5620
19033TIP3    H278515   6.036   6.101   1.019  1.6584  0.7812  2.2222
19034TIP3   OH278516   2.434   6.566  16.912 -0.0717 -0.1071 -0.2147
19034TIP3    H178517   2.485   6.532  16.985 -1.3510  0.1243  0.8178
19034TIP3    H278518   2.386   6.489  16.879 -3.1321  0.5415  2.2603
19035TIP3   OH278519   3.366   0.466   0.322  0.3167  0.3589  0.5125
19035TIP3    H178520   3.316   0.400   0.371 -0.2062  1.3376  1.3546
19035TIP3    H278521   3.456   0.454   0.351  0.2922 -0.2453  0.3544
19036TIP3   OH278522   3.598   0.934   3.253 -0.0036  0.3290  0.0544
19036TIP3    H178523   3.628   0.916   3.165  1.0615 -0.5566  0.5870
19036TIP3    H278524   3.545   1.014   3.244  0.4210  0.4797 -1.3000
19037TIP3   OH278525   5.664   3.839   5.995  0.0891  0.0928  0.0221
19037TIP3    H178526   5.580   3.795   5.980  0.4125 -0.3397 -0.5779
19037TIP3    H278527   5.728   3.785   5.948  1.1298 -1.0594  2.5480
19038TIP3   OH278528   2.210   6.044   1.628 -0.3847 -0.7447  0.2894
19038TIP3    H178529   2.266   6.120   1.638  0.4701 -1.5115  1.8271
19038TIP3    H278530   2.122   6.079   1.621  0.2458  0.5034 -2.5154
19039TIP3   OH278531   1.294   2.644   2.141  0.0355 -0.5931  0.8424
19039TIP3    H178532   1.389   2.632   2.132  0.3059  1.3732  0.5189
19039TIP3    H278533   1.284   2.689   2.225 -0.6406 -0.9810  0.9739
19040TIP3   OH278534   5.036   0.682  16.748 -0.1837  0.1881 -0.3100
19040TIP3    H178535   4.995   0.626  16.814 -0.7746 -1.1619 -1.7467
19040TIP3    H278536   5.119   0.639  16.729 -0.4431  0.0203 -1.1075
19041TIP3   OH278537   0.906   2.707  14.390 -0.0226  0.9922 -0.4996
19041TIP3    H178538   0.885   2.778  14.451  1.1226  1.0755 -0.1683
19041TIP3    H278539   0.872   2.629  14.433  2.9537  0.6700  1.5890
19042TIP3   OH278540   5.648   5.920   5.415 -0.1302  0.5927  0.0208
19042TIP3    H178541   5.646   5.925   5.319 -1.8591 -2.6561 -0.2450
19042TIP3    H278542   5.741   5.921   5.438  0.4615 -1.3882 -1.9731
19043TIP3   OH278543   3.177   0.807   2.577 -0.0921  0.2636 -0.3776
19043TIP3    H178544   3.187   0.883   2.520  0.2898  0.9324  0.5625
19043TIP3    H278545   3.242   0.745   2.545  1.3756  1.3368  0.4369
19044TIP3   OH278546   1.602   3.362   4.450 -0.2298 -0.0514  0.0201
19044TIP3    H178547   1.666   3.333   4.516 -0.9808  0.4702  1.0056
19044TIP3    H278548   1.527   3.391   4.501 -1.1046 -0.2708 -1.1074
19045TIP3   OH278549   0.410   2.730  15.795 -0.9495 -0.5220  0.0968
19045TIP3    H178550   0.378   2.682  15.871 -0.8992 -0.6392  0.0452
19045TIP3    H278551   0.343   2.796  15.778 -0.4645  0.1925  0.8744
19046TIP3   OH278552   1.963   3.000  15.427  0.1345  0.5150  0.0575
19046TIP3    H178553   2.029   3.061  15.392  1.9737 -0.8259  1.0114
19046TIP3    H278554   1.965   2.926  15.366 -0.1896  0.2886  0.3254
19047TIP3   OH278555   2.432   2.831  16.724  0.0788  0.1979  0.0154
19047TIP3    H178556   2.524   2.853  16.713 -0.1467  0.6318 -1.1850
19047TIP3    H278557   2.416   2.762  16.659 -0.9284  1.6290 -1.3232
19048TIP3   OH278558   1.771   2.300   2.183 -0.2998  0.0284 -0.1033
19048TIP3    H178559   1.784   2.388   2.218 -2.8604  0.3151  0.3326
19048TIP3    H278560   1.737   2.314   2.094 -3.9107 -0.2689  1.0598
19049TIP3   OH278561   5.094   1.425   1.475 -0.1824 -0.4978 -0.1125
19049TIP3    H178562   5.148   1.467   1.408  1.2179 -1.5265  0.3314
19049TIP3    H278563   5.015   1.478   1.478  0.9587  1.3194 -0.5083
19050TIP3   OH278564   0.061   4.901   4.299  0.3127 -0.1692  0.4024
19050TIP3    H178565   0.103   4.841   4.238 -0.0259 -1.3717  1.3246
19050TIP3    H278566   0.052   4.983   4.250 -1.4212 -1.5385 -1.7287
19051TIP3   OH278567   4.362   0.293   1.464  0.6057 -0.0491 -0.3275
19051TIP3    H178568   4.438   0.332   1.421 -0.8854  1.1090 -2.0840
19051TIP3    H278569   4.290   0.354   1.445 -0.8753 -1.3422  0.8362
19052TIP3   OH278570   3.775   0.585   6.510 -0.0780  0.3580 -0.2890
19052TIP3    H178571   3.792   0.643   6.584 -1.9612 -1.1915  1.4474
19052TIP3    H278572   3.809   0.500   6.537 -0.5248 -0.1719 -1.3312
19053TIP3   OH278573   4.204   5.910  14.478 -1.1195 -0.3651 -0.2746
19053TIP3    H178574   4.172   6.000  14.474 -1.0276 -0.3061  0.3233
19053TIP3    H278575   4.299   5.917  14.484 -0.8814 -0.5516 -2.6747
19054TIP3   OH278576   4.427   5.767   4.352 -0.6187  0.2417  0.3093
19054TIP3    H178577   4.493   5.831   4.381 -0.0675 -0.8953  1.7030
19054TIP3    H278578   4.361   5.768   4.422 -0.1245 -1.3577  0.8403
19055TIP3   OH278579   5.632   2.124   2.624  0.7945  0.1832 -0.2275
19055TIP3    H178580   5.672   2.208   2.601  2.2921 -0.7300 -1.0994
19055TIP3    H278581   5.586   2.142   2.706  2.1272  1.5614  0.2762
19056TIP3   OH278582   1.475   5.626  13.692 -0.2661 -0.0181 -0.4503
19056TIP3    H178583   1.521   5.658  13.769 -1.1504 -2.5385  1.2446
19056TIP3    H278584   1.543   5.586  13.638  0.6258  3.1011 -1.9430
19057TIP3   OH278585   5.523   4.678  13.751  0.5614  0.1999 -0.0777
19057TIP3    H178586   5.480   4.706  13.832 -0.7522  0.9705 -1.0042
19057TIP3    H278587   5.616   4.680  13.771  0.2455  0.1529  1.4804
19058TIP3   OH278588   6.743   3.772  15.443  0.6198 -0.3002 -0.9878
19058TIP3    H178589   6.713   3.688  15.479 -1.1709  1.4732  2.0717
19058TIP3    H278590   6.832   3.782  15.476  0.2796 -0.3251 -0.0310
19059TIP3   OH278591   0.777   4.907  12.202 -0.1063 -0.3289 -0.5460
19059TIP3    H178592   0.691   4.931  12.235  0.3367  1.1483 -0.3893
19059TIP3    H278593   0.835   4.918  12.277  0.6369  1.3697 -1.3163
19060TIP3   OH278594   4.457   5.304  15.464 -0.4210 -1.0231 -0.4370
19060TIP3    H178595   4.434   5.382  15.515 -0.3360 -1.4784  0.3058
19060TIP3    H278596   4.517   5.337  15.397  0.1783 -0.5629  0.3121
19061TIP3   OH278597   0.326   5.612   2.718  0.0994  0.2573 -0.1382
19061TIP3    H178598   0.340   5.656   2.801 -1.4149  0.5870 -0.0335
19061TIP3    H278599   0.240   5.573   2.725  0.7428 -1.3800 -0.8413
19062TIP3   OH278600   4.413   5.130   3.890 -0.3591  0.0565 -0.1811
19062TIP3    H178601   4.361   5.210   3.881  0.9671  0.9616 -0.0659
19062TIP3    H278602   4.395   5.099   3.978 -0.3844  0.5921  0.0032
19063TIP3   OH278603   6.476   1.742  11.976  0.1699 -0.0833 -0.0777
19063TIP3    H178604   6.424   1.740  11.896 -0.1794 -0.9868  0.1670
19063TIP3    H278605   6.499   1.835  11.987 -1.2348  0.3108 -0.2743
19064TIP3   OH278606   0.177   2.373   1.177 -0.0853 -0.5124  0.1347
19064TIP3    H178607   0.121   2.308   1.219  1.0694 -1.1240  0.7640
19064TIP3    H278608   0.122   2.410   1.108 -2.1422  0.7374  2.2941
19065TIP3   OH278609   1.830   2.439  10.916  0.6074  0.3201  0.6004
19065TIP3    H178610   1.860   2.378  10.848  3.4063  1.3467  0.7686
19065TIP3    H278611   1.744   2.407  10.940  0.1618 -1.0097 -2.3075
19066TIP3   OH278612   1.654   2.841  17.254 -0.3031  0.2502  0.1947
19066TIP3    H178613   1.736   2.806  17.290 -0.7370 -1.5565 -0.4617
19066TIP3    H278614   1.680   2.916  17.202  0.9467 -0.3396 -0.0529
19067TIP3   OH278615   3.679   4.897  13.985 -0.1467 -0.2632  0.0840
19067TIP3    H178616   3.689   4.976  13.932  0.2770  1.0212  1.9665
19067TIP3    H278617   3.584   4.883  13.990 -0.4140  1.6690  1.7697
19068TIP3   OH278618   4.959   3.606  14.985  0.0072 -0.2842 -0.8699
19068TIP3    H178619   5.050   3.632  15.001  0.4474 -2.5365  0.7506
19068TIP3    H278620   4.959   3.574  14.895  0.4443  1.1031 -1.3853
19069TIP3   OH278621   0.967   6.364   4.378 -0.1358  0.0488 -0.8276
19069TIP3    H178622   0.918   6.405   4.450 -0.0622  0.2998 -0.9224
19069TIP3    H278623   0.915   6.382   4.300 -0.8479 -1.2534 -0.6825
19070TIP3   OH278624   1.921   5.475   3.138 -0.0478 -0.2255 -0.2962
19070TIP3    H178625   1.970   5.397   3.165 -1.5697 -0.5500  1.7926
19070TIP3    H278626   1.830   5.446   3.136 -0.4078  0.8579 -2.1617
19071TIP3   OH278627   0.260   3.165  14.040  0.3074  0.7650 -0.2222
19071TIP3    H178628   0.168   3.146  14.022  0.8275 -0.6481 -1.6973
19071TIP3    H278629   0.267   3.260  14.035 -0.8993  0.8265 -1.1704
19072TIP3   OH278630   4.321   6.009   6.100  0.2479 -0.1214 -0.2039
19072TIP3    H178631   4.387   5.995   6.168  2.6301 -0.8056 -2.5443
19072TIP3    H278632   4.281   5.923   6.088 -1.5388  0.3729  1.5036
19073TIP3   OH278633   3.266   3.565  12.189  0.1497  0.5639 -0.3850
19073TIP3    H178634   3.324   3.512  12.243  0.4197 -0.7984 -1.9379
19073TIP3    H278635   3.322   3.601  12.121 -0.4900  0.7900 -0.8077
19074TIP3   OH278636   0.276   5.528   4.112 -0.2320  0.0607  0.1077
19074TIP3    H178637   0.266   5.619   4.083 -1.1839 -0.5373 -1.5849
19074TIP3    H278638   0.187   5.497   4.126  0.0082 -0.9027 -0.3536
19075TIP3   OH278639   4.119   0.738  11.391 -0.3331  0.0593 -0.7263
19075TIP3    H178640   4.212   0.719  11.400 -0.1179 -0.1246 -2.8924
19075TIP3    H278641   4.112   0.783  11.307 -2.1725  0.4069 -0.4280
19076TIP3   OH278642   2.969   6.145  14.377 -0.5030  0.6106  0.1027
19076TIP3    H178643   2.993   6.094  14.299  0.2855  1.9681 -0.5950
19076TIP3    H278644   2.924   6.083  14.434  0.8050 -0.9689 -0.4998
19077TIP3   OH278645   3.072   3.286   1.462  0.4476  0.4755 -0.3690
19077TIP3    H178646   3.019   3.263   1.538 -0.1480 -1.0474 -1.1936
19077TIP3    H278647   3.163   3.274   1.491  0.2847  1.3267  0.5175
19078TIP3   OH278648   6.522   6.339   1.931  0.1233 -0.3207 -0.6497
19078TIP3    H178649   6.428   6.358   1.932 -0.0377 -0.9229  1.4941
19078TIP3    H278650   6.532   6.265   1.872 -1.0525 -1.3731  0.4054
19079TIP3   OH278651   2.794   6.571  12.857 -0.0267 -0.0990  0.0993
19079TIP3    H178652   2.791   6.477  12.843  2.0258  0.0483 -2.0237
19079TIP3    H278653   2.744   6.586  12.937 -0.0674 -3.0164  0.6989
19080TIP3   OH278654   1.873   3.008  11.500  0.1772 -0.4547 -0.3487
19080TIP3    H178655   1.867   3.090  11.452 -2.4087  0.1850  0.8907
19080TIP3    H278656   1.802   2.955  11.465  0.9282 -1.6364 -0.1399
19081TIP3   OH278657   0.251   1.164  17.020 -0.2433  0.0092 -0.0166
19081TIP3    H178658   0.173   1.219  17.009 -0.2452 -0.1525 -0.9181
19081TIP3    H278659   0.226   1.099  17.085 -1.5249 -1.1972 -1.6445
19082TIP3   OH278660   3.332   5.982   1.678 -0.4458  0.0084  0.0360
19082TIP3    H178661   3.265   5.913   1.683 -1.7690  1.3189  2.6906
19082TIP3    H278662   3.405   5.947   1.728 -0.7964  0.1582  0.6708
19083TIP3   OH278663   4.663   5.602  14.406 -0.0983  0.5977 -0.3778
19083TIP3    H178664   4.673   5.507  14.416  1.6821  0.6532 -1.2050
19083TIP3    H278665   4.668   5.636  14.495 -0.9013 -0.0865 -0.0622
19084TIP3   OH278666   1.253   2.681   1.092 -0.6303  0.0711  0.0939
19084TIP3    H178667   1.194   2.636   1.031  1.7057  0.8961 -3.0028
19084TIP3    H278668   1.325   2.620   1.105  0.1328  0.9147 -0.0855
19085TIP3   OH278669   6.069   1.033  12.969 -0.0929  0.0920  0.1840
19085TIP3    H178670   6.048   1.039  13.062 -2.6973 -1.6980 -0.1709
19085TIP3    H278671   6.066   1.123  12.937 -3.5357  0.4313  1.0853
19086TIP3   OH278672   5.960   0.444  14.954  0.6336  0.4273  0.1334
19086TIP3    H178673   6.047   0.461  14.920  0.6029  2.5352  0.9276
19086TIP3    H278674   5.901   0.485  14.890  0.1908 -1.1395 -0.4951
19087TIP3   OH278675   0.461   5.891   4.518  0.3187 -0.5383  0.5915
19087TIP3    H178676   0.388   5.945   4.548  0.9136 -0.3395  1.7252
19087TIP3    H278677   0.530   5.905   4.583  0.5966 -2.4089  0.7630
19088TIP3   OH278678   2.071   3.128  12.793  1.0785  0.8463  0.0835
19088TIP3    H178679   1.982   3.098  12.773  1.1850  1.8728 -2.1531
19088TIP3    H278680   2.102   3.066  12.859 -0.2717 -1.2785 -1.1623
19089TIP3   OH278681   0.919   0.068  14.633  0.4603  0.0546 -0.6535
19089TIP3    H178682   0.845   0.094  14.688 -0.5349  0.8182 -2.2426
19089TIP3    H278683   0.935  -0.024  14.655 -1.2091 -0.2370 -0.5040
19090TIP3   OH278684   0.285   5.663  11.245  0.2134  0.4535  0.3288
19090TIP3    H178685   0.325   5.726  11.185  1.6985 -1.0381 -0.3131
19090TIP3    H278686   0.282   5.581  11.196 -0.8709 -0.2063  1.4463
19091TIP3   OH278687   1.377   2.705   0.513  0.0883 -0.0650 -0.5643
19091TIP3    H178688   1.338   2.774   0.459  0.2273 -0.1203 -0.7370
19091TIP3    H278689   1.449   2.748   0.559  0.5840 -0.2354 -1.1579
19092TIP3   OH278690   1.660   0.561  12.008 -0.2562  0.0504  0.3611
19092TIP3    H178691   1.668   0.504  11.931 -0.4739 -1.5035  1.4400
19092TIP3    H278692   1.646   0.501  12.081 -3.2647  1.6189  1.2253
19093TIP3   OH278693   2.702   5.449  16.845 -0.2026 -0.2973 -0.4199
19093TIP3    H178694   2.726   5.364  16.882 -0.6807 -0.0823  0.4208
19093TIP3    H278695   2.742   5.450  16.758 -0.1529 -1.3628 -0.4237
19094TIP3   OH278696   6.648   5.692  16.856 -0.3834 -0.4264 -0.1494
19094TIP3    H178697   6.694   5.641  16.790  0.7175  1.0820 -0.6284
19094TIP3    H278698   6.638   5.779  16.817 -1.5136 -0.0495  0.8975
19095TIP3   OH278699   1.430   1.320   2.187  0.0664 -0.3008 -0.0035
19095TIP3    H178700   1.509   1.291   2.234  0.4690  0.1539 -0.3879
19095TIP3    H278701   1.373   1.244   2.188 -0.4154  0.0200  2.2120
19096TIP3   OH278702   0.222   6.019   1.258  0.0042  0.5742  0.3171
19096TIP3    H178703   0.269   6.101   1.274 -0.4040  0.5334  1.9285
19096TIP3    H278704   0.144   6.045   1.210  0.2744  1.0159  0.1104
19097TIP3   OH278705   5.265   5.559  14.207  0.1689 -0.3153  0.8673
19097TIP3    H178706   5.204   5.491  14.235 -0.3763 -0.0615  0.3324
19097TIP3    H278707   5.236   5.582  14.118  0.6969  0.2069  0.8233
19098TIP3   OH278708   0.887   4.626   5.439 -0.0377 -0.3869 -0.4959
19098TIP3    H178709   0.874   4.531   5.451  1.4824 -0.4831  0.8752
19098TIP3    H278710   0.808   4.666   5.474 -1.4262 -1.1510 -2.5697
19099TIP3   OH278711   0.419   4.352  17.317 -0.2608  0.0002  0.3794
19099TIP3    H178712   0.345   4.295  17.338  1.2567 -3.2354 -2.1815
19099TIP3    H278713   0.401   4.384  17.229 -0.2836  2.2945  1.1516
19100TIP3   OH278714   1.339   5.837   0.535  0.2226 -0.1540  0.1003
19100TIP3    H178715   1.338   5.932   0.524 -0.1205 -0.1693 -0.0011
19100TIP3    H278716   1.344   5.802   0.446 -1.0120 -0.2486  0.0424
19101TIP3   OH278717   6.554   3.071  13.015 -0.9384 -0.0408 -0.3607
19101TIP3    H178718   6.617   3.142  13.016 -2.1254  1.0384 -0.3980
19101TIP3    H278719   6.528   3.062  12.924 -0.0002 -1.2821 -0.5402
19102TIP3   OH278720   2.777   2.325   1.403 -0.3942 -0.0312 -0.3098
19102TIP3    H178721   2.734   2.242   1.384 -1.2541  0.4238 -0.3858
19102TIP3    H278722   2.752   2.344   1.494 -0.3726  0.2504 -0.3625
19103TIP3   OH278723   4.971   1.324   2.441 -0.1021  0.5697  0.0984
19103TIP3    H178724   4.964   1.398   2.501  0.7644  1.2644 -0.6421
19103TIP3    H278725   4.914   1.346   2.368  0.6286  0.7830 -0.4068
19104TIP3   OH278726   6.640   6.712  16.646 -0.6988 -0.6472  0.0874
19104TIP3    H178727   6.703   6.713  16.718  3.6470 -1.1208 -3.3242
19104TIP3    H278728   6.627   6.619  16.626  0.3700 -0.5256 -1.3551
19105TIP3   OH278729   1.836   6.608   0.466 -0.3740  0.1220  0.5450
19105TIP3    H178730   1.924   6.572   0.451  0.2217  1.2884  1.0515
19105TIP3    H278731   1.815   6.582   0.556 -0.5970 -0.2640  0.3798
19106TIP3   OH278732   4.938   2.746  13.891  0.2907 -0.0198 -0.1781
19106TIP3    H178733   4.855   2.781  13.923  0.6364  0.8611 -0.2217
19106TIP3    H278734   5.003   2.780  13.952  0.8085  0.6285 -1.0859
19107TIP3   OH278735   2.851   3.876  12.214  0.1578 -0.2582 -0.0761
19107TIP3    H178736   2.927   3.821  12.228  1.9263  2.7062  3.9499
19107TIP3    H278737   2.886   3.958  12.177 -0.9915  1.0883  1.6316
19108TIP3   OH278738   3.711   3.531  17.239 -0.5177  0.4361  0.0149
19108TIP3    H178739   3.654   3.505  17.311 -1.9725  1.0329 -0.8676
19108TIP3    H278740   3.746   3.448  17.205 -2.3582 -0.1396 -0.5926
19109TIP3   OH278741   2.796   0.677   1.204  0.1427  0.2187  0.0718
19109TIP3    H178742   2.824   0.739   1.272 -1.9099  1.7868 -0.4065
19109TIP3    H278743   2.721   0.632   1.242  0.8625 -1.1287 -0.0566
19110TIP3   OH278744   1.675   1.669   0.399  0.4633  0.8407  0.4549
19110TIP3    H178745   1.658   1.651   0.491 -1.1343  0.2734  0.0869
19110TIP3    H278746   1.640   1.758   0.385 -0.2578  0.5209  0.1774
19111TIP3   OH278747   1.414   6.237   0.284  0.5161 -0.3409 -0.1864
19111TIP3    H178748   1.509   6.247   0.272  0.5539 -1.0630 -0.5756
19111TIP3    H278749   1.377   6.317   0.247  0.9867  0.0760  0.2208
19112TIP3   OH278750   3.657   4.657  16.920  0.4905  0.2183 -0.0250
19112TIP3    H178751   3.604   4.725  16.963  0.0264 -0.4090  0.4136
19112TIP3    H278752   3.605   4.577  16.930  0.8214 -0.1148 -0.9371
19113TIP3   OH278753   4.686   4.513  14.946  0.9221  0.2350 -0.4277
19113TIP3    H178754   4.621   4.525  15.015 -0.9483 -2.4549 -1.5429
19113TIP3    H278755   4.722   4.426  14.961  4.2002  1.5286 -0.0309
19114TIP3   OH278756   2.530   2.259  14.614  0.6257  0.3515  0.0481
19114TIP3    H178757   2.510   2.204  14.690  2.0583 -1.2806 -0.6808
19114TIP3    H278758   2.469   2.333  14.621 -4.1357 -3.0033 -0.8957
19115TIP3   OH278759   4.505   6.682  15.678  0.2119  0.1209  0.3125
19115TIP3    H178760   4.437   6.709  15.616 -0.5895 -0.6874  0.8270
19115TIP3    H278761   4.525   6.762  15.727  1.2527  0.9164 -1.3189
19116TIP3   OH278762   3.722   1.991  16.354  0.0571 -0.0001 -0.2743
19116TIP3    H178763   3.799   1.993  16.410  1.1976 -0.7372 -1.7270
19116TIP3    H278764   3.677   2.073  16.372  1.0024  0.2939  0.8535
19117TIP3   OH278765   4.222   1.047  13.308  0.7440 -0.2935  0.5061
19117TIP3    H178766   4.311   1.035  13.340  1.2748  0.8936 -0.4333
19117TIP3    H278767   4.208   1.141  13.309 -0.8952 -0.4914  1.5789
19118TIP3   OH278768   2.541   4.499   5.310 -0.0910 -0.0280 -0.3141
19118TIP3    H178769   2.481   4.491   5.385  0.0986 -0.4457 -0.2052
19118TIP3    H278770   2.552   4.594   5.299  1.2721  0.0553  1.3217
19119TIP3   OH278771   6.236   2.870   0.372  0.0439 -0.1178 -0.2043
19119TIP3    H178772   6.182   2.792   0.382 -0.4222  0.2640  0.3874
19119TIP3    H278773   6.311   2.842   0.320 -0.5670 -0.7351 -0.7602
19120TIP3   OH278774   2.649   3.143  15.519  0.3239  0.0893  0.3411
19120TIP3    H178775   2.557   3.126  15.497  0.1386 -0.5706  1.5369
19120TIP3    H278776   2.695   3.131  15.436 -0.5108 -0.9019 -0.0131
19121TIP3   OH278777   1.692   0.780  11.519  0.8364 -0.0958  0.1021
19121TIP3    H178778   1.599   0.772  11.543  0.8990 -1.8400 -0.0799
19121TIP3    H278779   1.691   0.815  11.430  0.2093 -2.1704 -0.7721
19122TIP3   OH278780   2.714   6.132   5.771  0.3625 -0.4759 -0.4340
19122TIP3    H178781   2.773   6.068   5.732 -1.6608 -2.7173 -0.0098
19122TIP3    H278782   2.641   6.138   5.709  0.2315  1.0261 -0.1725
19123TIP3   OH278783   5.074   3.248   2.397 -0.0588 -0.2668  0.7384
19123TIP3    H178784   5.051   3.235   2.489  2.1830  1.5947  1.6833
19123TIP3    H278785   4.994   3.282   2.357 -0.5762  0.6566  2.4524
19124TIP3   OH278786   0.882   1.883   3.221 -0.1681  0.4489 -0.2981
19124TIP3    H178787   0.882   1.805   3.277  0.2600  1.0211  0.5115
19124TIP3    H278788   0.853   1.954   3.278  3.6269  1.7506  0.2572
19125TIP3   OH278789   3.594   5.478  12.910  0.1466 -0.2269 -0.7443
19125TIP3    H178790   3.573   5.397  12.864  1.0018 -0.8553 -0.0739
19125TIP3    H278791   3.689   5.476  12.920 -0.0989 -1.0226  2.5786
19126TIP3   OH278792   1.531   3.431  13.835  0.1159 -0.4376  0.1102
19126TIP3    H178793   1.584   3.465  13.907 -0.7192 -1.3845  1.2197
19126TIP3    H278794   1.490   3.508  13.796  1.2890  0.1798  0.0535
19127TIP3   OH278795   4.876   0.363  12.674  0.0663 -0.1980 -0.2852
19127TIP3    H178796   4.781   0.362  12.657 -0.3927 -1.0510  1.9457
19127TIP3    H278797   4.892   0.281  12.722  1.2053  1.6291  2.7166
19128TIP3   OH278798   1.198   2.376   5.919  0.7091  0.4516  0.3928
19128TIP3    H178799   1.232   2.440   5.981  0.8385 -0.5950  1.4351
19128TIP3    H278800   1.275   2.327   5.890  0.9341  2.1066 -2.0635
19129TIP3   OH278801   5.920   0.993   2.809 -0.4809 -0.4896 -0.0089
19129TIP3    H178802   5.856   1.031   2.749  1.7245  0.0978 -2.1934
19129TIP3    H278803   5.985   1.062   2.821  0.9443 -1.8072  0.2079
19130TIP3   OH278804   4.122   2.802   0.946  0.2525  0.1440 -0.3285
19130TIP3    H178805   4.027   2.800   0.936  0.4237  0.4789 -2.3668
19130TIP3    H278806   4.141   2.890   0.978 -0.1925 -0.3769  1.4943
19131TIP3   OH278807   6.429   0.816   3.469 -0.2211  0.3418 -0.6271
19131TIP3    H178808   6.341   0.850   3.486 -0.0152  1.2466 -1.2750
19131TIP3    H278809   6.481   0.894   3.448  0.7062 -0.1961 -0.3900
19132TIP3   OH278810   3.377   4.700  16.774  0.2928 -0.2048  0.0871
19132TIP3    H178811   3.375   4.643  16.850  1.4611 -1.6258 -0.9032
19132TIP3    H278812   3.360   4.642  16.699 -1.2139  1.2050 -0.7403
19133TIP3   OH278813   0.640   0.124  12.307 -0.3212 -0.7883 -0.6315
19133TIP3    H178814   0.696   0.201  12.295  1.7585 -2.5906 -3.9294
19133TIP3    H278815   0.667   0.089  12.392 -1.4828  2.0629  1.0752
19134TIP3   OH278816   1.797   2.349  10.485 -0.5681 -0.0881 -0.3025
19134TIP3    H178817   1.734   2.321  10.552 -1.1209  0.8234 -0.4282
19134TIP3    H278818   1.749   2.345  10.403  0.0922 -1.1393 -0.6697
19135TIP3   OH278819   5.522   3.487  11.645 -0.7877  0.8652  0.4398
19135TIP3    H178820   5.438   3.442  11.638  0.1304 -1.0204  0.9536
19135TIP3    H278821   5.517   3.557  11.580 -1.7610 -0.8665 -1.4611
19136TIP3   OH278822   6.488   3.536  10.998 -0.3759 -0.4470  0.2565
19136TIP3    H178823   6.570   3.541  11.048 -0.0994 -1.0827 -0.1220
19136TIP3    H278824   6.508   3.478  10.924 -0.8344  0.3132 -0.4905
19137TIP3   OH278825   6.559   4.578   4.315  0.2427 -0.4373 -0.1825
19137TIP3    H178826   6.499   4.640   4.272  1.1628 -1.1023 -2.6039
19137TIP3    H278827   6.505   4.500   4.331  0.0605 -0.4787 -0.9403
19138TIP3   OH278828   1.711   2.341   4.238 -0.4538  0.5279  0.0251
19138TIP3    H178829   1.783   2.278   4.237  0.2956  1.2420  2.3338
19138TIP3    H278830   1.743   2.416   4.188 -0.4733 -0.0193 -0.8210
19139TIP3   OH278831   4.084   4.714  17.140 -0.4617  0.1347  0.0056
19139TIP3    H178832   4.152   4.648  17.126  0.1313  1.1901 -2.6340
19139TIP3    H278833   4.006   4.678  17.098 -1.7043 -1.0888  3.0497
19140TIP3   OH278834   4.671   4.342   4.280 -0.4069  0.5517  0.8292
19140TIP3    H178835   4.657   4.397   4.358  1.3619  1.0561  0.8543
19140TIP3    H278836   4.763   4.356   4.258 -0.5925 -0.4366 -0.7230
19141TIP3   OH278837   0.239   2.053  15.281 -0.6818  0.0165 -0.5145
19141TIP3    H178838   0.234   2.096  15.366  0.3975  0.7944 -0.8224
19141TIP3    H278839   0.220   1.961  15.299  0.5440 -0.0219  0.7479
19142TIP3   OH278840   1.829   0.416   5.727  0.0211 -0.0051  0.5342
19142TIP3    H178841   1.740   0.414   5.762  0.1117  0.7947  0.8261
19142TIP3    H278842   1.828   0.486   5.663  0.2996 -0.3664  0.1298
19143TIP3   OH278843   3.573   5.281   4.766  0.0089  0.6546 -0.0133
19143TIP3    H178844   3.506   5.335   4.726 -0.3319 -0.0121 -0.3636
19143TIP3    H278845   3.651   5.295   4.711 -0.1476  0.5996 -0.2518
19144TIP3   OH278846   2.693   4.186   0.671  0.2606 -0.3906 -0.2043
19144TIP3    H178847   2.659   4.104   0.637 -0.0224 -0.4678  0.2548
19144TIP3    H278848   2.619   4.228   0.715  0.2582  0.3850 -0.9230
19145TIP3   OH278849   2.429   0.653   5.575  0.2503 -0.0768 -0.3935
19145TIP3    H178850   2.359   0.662   5.510 -0.3784  2.2853  0.5093
19145TIP3    H278851   2.384   0.620   5.653  0.7156 -1.3607 -0.6470
19146TIP3   OH278852   4.375   5.548  15.563 -0.0971 -0.2829 -0.1967
19146TIP3    H178853   4.298   5.602  15.543  1.3635  1.9884 -0.1146
19146TIP3    H278854   4.449   5.600  15.532  1.5998 -1.0908  2.1799
19147TIP3   OH278855   2.665   4.297  13.118  0.3480  0.4787  0.2102
19147TIP3    H178856   2.605   4.286  13.192 -0.6218  1.8366 -0.3274
19147TIP3    H278857   2.704   4.384  13.132 -0.1048  0.8964 -1.0238
19148TIP3   OH278858   2.173   0.760   1.029 -0.0058  0.2326 -0.0554
19148TIP3    H178859   2.083   0.729   1.024  0.1174 -0.3611  0.9979
19148TIP3    H278860   2.173   0.844   0.984 -1.4762  1.0492  1.3676
19149TIP3   OH278861   1.688   1.063   4.444  0.5196 -0.3349  0.6321
19149TIP3    H178862   1.746   1.080   4.518 -0.9171 -1.6338  2.1329
19149TIP3    H278863   1.633   0.990   4.473  1.2501 -2.3391 -2.4915
19150TIP3   OH278864   5.330   5.462  10.912 -0.6076 -0.5977  0.3694
19150TIP3    H178865   5.340   5.368  10.899 -0.2437 -0.7350  1.5640
19150TIP3    H278866   5.246   5.483  10.870 -1.1966 -1.6429  0.9815
19151TIP3   OH278867   4.827   5.603   5.441 -0.6165  0.2731  0.3252
19151TIP3    H178868   4.887   5.541   5.400 -1.2765 -0.5925  0.6330
19151TIP3    H278869   4.859   5.690   5.414 -0.2413 -0.2245 -0.8951
19152TIP3   OH278870   4.401   3.930   0.331  0.4026 -0.1247 -0.5207
19152TIP3    H178871   4.336   3.993   0.298  0.1793 -0.7546 -1.3177
19152TIP3    H278872   4.483   3.955   0.288  0.3972 -0.1524 -0.5467
19153TIP3   OH278873   3.852   4.895  17.240  0.3239  0.3293  0.1367
19153TIP3    H178874   3.839   4.850  17.157  3.5418 -2.5794  0.9475
19153TIP3    H278875   3.805   4.841  17.304  2.1844 -0.6310  0.7852
19154TIP3   OH278876   4.662   5.462  11.967  0.4089  0.0074  0.0541
19154TIP3    H178877   4.619   5.472  12.052 -0.2753  0.0314 -0.2830
19154TIP3    H278878   4.599   5.498  11.905  0.3020 -1.2929 -0.6075
19155TIP3   OH278879   0.994   5.114   4.683  0.1549  0.0859  0.2853
19155TIP3    H178880   0.985   5.124   4.778 -1.3740 -0.1871  0.1938
19155TIP3    H278881   0.906   5.128   4.649  0.6053 -0.2243 -1.0649
19156TIP3   OH278882   4.052   6.600   4.283  0.3622 -0.4879  0.1274
19156TIP3    H178883   4.057   6.641   4.369 -2.6364  0.4331 -0.0254
19156TIP3    H278884   4.093   6.663   4.224  0.2560  0.0005  0.5660
19157TIP3   OH278885   0.304   6.403   3.682 -0.2230  0.3241 -0.6033
19157TIP3    H178886   0.274   6.326   3.731  0.4728 -0.9410 -2.0919
19157TIP3    H278887   0.390   6.379   3.648  0.3468  2.0526 -0.5002
19158TIP3   OH278888   4.658   4.670   3.078  0.3352  0.7083  0.3199
19158TIP3    H178889   4.577   4.658   3.028  1.6302 -0.9943 -1.5740
19158TIP3    H278890   4.638   4.740   3.140 -2.7664 -0.0815  0.3945
19159TIP3   OH278891   5.905   2.423  17.260 -0.1263  0.3110 -0.0701
19159TIP3    H178892   5.945   2.395  17.342  0.5618  0.6069 -0.2986
19159TIP3    H278893   5.853   2.500  17.283  1.3215  1.3544 -0.1730
19160TIP3   OH278894   4.329   2.702  11.036  0.4285  0.7695 -0.3876
19160TIP3    H178895   4.391   2.716  11.108  0.3357 -2.5228  0.4746
19160TIP3    H278896   4.384   2.690  10.959  0.6826  0.8819 -0.2257
19161TIP3   OH278897   6.727   2.059   3.714  0.6997  0.0716  0.1920
19161TIP3    H178898   6.821   2.073   3.699  0.5793 -0.5766 -1.4073
19161TIP3    H278899   6.723   2.017   3.800  1.7442  1.4242  0.9421
19162TIP3   OH278900   2.311   1.617  13.194 -0.6163 -1.0603 -0.0392
19162TIP3    H178901   2.264   1.673  13.256  0.5428  1.4949 -1.2789
19162TIP3    H278902   2.275   1.641  13.109  0.6762 -1.4285 -0.7150
19163TIP3   OH278903   2.391   0.095   0.454 -0.5071 -0.3599 -0.3584
19163TIP3    H178904   2.308   0.114   0.410 -0.6885  0.4941  0.3147
19163TIP3    H278905   2.366   0.064   0.541 -0.1311 -0.5164 -0.3035
19164TIP3   OH278906   3.980   1.233   4.658  0.9311 -0.2787  0.1823
19164TIP3    H178907   3.992   1.292   4.732 -2.5872  0.5150  0.2913
19164TIP3    H278908   4.054   1.251   4.601  1.2548  2.5349  1.3143
19165TIP3   OH278909   1.427   5.781   5.633 -0.3568  0.2102  0.6188
19165TIP3    H178910   1.407   5.874   5.627 -0.3340  0.1687 -0.2918
19165TIP3    H278911   1.358   5.739   5.582  0.0208 -0.2155  0.4495
19166TIP3   OH278912   6.005   2.710   3.199  0.2615 -0.3283  0.3976
19166TIP3    H178913   5.929   2.679   3.150 -0.3641  2.3599 -0.5241
19166TIP3    H278914   6.074   2.717   3.134  0.5896 -0.5150  0.7275
19167TIP3   OH278915   0.183   5.242   0.178  0.0774 -0.8737  0.3131
19167TIP3    H178916   0.245   5.169   0.179 -0.4528 -1.3248  0.9715
19167TIP3    H278917   0.194   5.285   0.263  0.6625  0.0718 -0.2133
19168TIP3   OH278918   2.718   1.087  14.234 -0.5618 -0.6684 -0.1846
19168TIP3    H178919   2.686   1.000  14.257 -0.4100 -0.8548 -0.6642
19168TIP3    H278920   2.738   1.082  14.140  1.3820 -0.7254  0.1802
19169TIP3   OH278921   4.935   2.613  17.024 -0.3047  0.2291  0.2912
19169TIP3    H178922   4.990   2.550  16.978  0.7880  0.4515  1.2356
19169TIP3    H278923   4.895   2.563  17.095 -4.3410 -0.8637 -2.4316
19170TIP3   OH278924   5.263   4.623  14.409  0.1058  0.0231 -0.0877
19170TIP3    H178925   5.197   4.634  14.478  1.5001  0.3993  1.2284
19170TIP3    H278926   5.236   4.544  14.363 -2.3493  1.1991 -0.8505
19171TIP3   OH278927   4.270   1.554   5.054  0.1193  0.0604  0.2475
19171TIP3    H178928   4.328   1.478   5.047  1.8133  1.1240  1.7335
19171TIP3    H278929   4.204   1.541   4.986  1.6029 -1.6738 -0.9464
19172TIP3   OH278930   4.146   0.735  15.341 -0.1033  0.2028 -0.1553
19172TIP3    H178931   4.219   0.721  15.281 -0.0714  2.6403 -0.7666
19172TIP3    H278932   4.083   0.666  15.318  2.8720 -3.6276  2.0830
19173TIP3   OH278933   5.677   2.412  14.061 -0.4621  0.1105 -0.0917
19173TIP3    H178934   5.669   2.388  13.968  1.8552  1.6888 -0.8049
19173TIP3    H278935   5.720   2.336  14.101 -0.5678 -0.1844 -0.5252
19174TIP3   OH278936   6.408   3.713   4.250  0.2442  0.0503  0.3196
19174TIP3    H178937   6.421   3.690   4.342  1.6367  2.0788  0.6930
19174TIP3    H278938   6.471   3.659   4.202  0.7492  0.2412  0.7582
19175TIP3   OH278939   6.152   3.838   3.827  0.0757  0.6193 -0.6896
19175TIP3    H178940   6.076   3.840   3.886  1.0066 -1.1921  0.6559
19175TIP3    H278941   6.185   3.928   3.829 -1.7617  1.3588 -0.9855
19176TIP3   OH278942   5.470   6.154  14.545  0.3089  0.3138  0.1124
19176TIP3    H178943   5.457   6.093  14.618 -1.5451  0.3077 -0.1716
19176TIP3    H278944   5.483   6.098  14.469  1.2235  0.3194  0.2465
19177TIP3   OH278945   2.719   6.424   4.465  0.1969 -0.8518 -0.1850
19177TIP3    H178946   2.652   6.489   4.442  1.1374  0.3809  0.3872
19177TIP3    H278947   2.751   6.453   4.551  3.2126  0.1302 -1.4997
19178TIP3   OH278948   0.446   2.823   0.946  0.0848  0.3688 -0.3018
19178TIP3    H178949   0.517   2.874   0.986  1.4704 -1.9584  0.4398
19178TIP3    H278950   0.433   2.750   1.007 -1.4794 -0.4142 -1.5153
19179TIP3   OH278951   0.061   5.294   2.470  0.3232  0.2506 -0.4751
19179TIP3    H178952  -0.010   5.342   2.427 -1.1291 -1.1088  0.3147
19179TIP3    H278953   0.070   5.335   2.556  1.2775  1.1241 -0.9695
19180TIP3   OH278954   3.858   0.647  17.032 -0.0118 -0.6508  0.4241
19180TIP3    H178955   3.769   0.669  17.059 -0.1640  0.7597 -1.0673
19180TIP3    H278956   3.848   0.578  16.966 -0.0563 -0.0951 -0.1594
19181TIP3   OH278957   4.508   6.004  15.255  0.2665 -0.2697  0.3681
19181TIP3    H178958   4.562   6.075  15.289 -1.0956  1.0781 -0.2077
19181TIP3    H278959   4.557   5.924  15.277  2.6085  0.8780 -0.3779
19182TIP3   OH278960   3.457   5.823  14.125  0.0392  0.2935 -0.1897
19182TIP3    H178961   3.370   5.797  14.094 -0.5314 -0.5344  1.9621
19182TIP3    H278962   3.518   5.770  14.073 -0.8893 -1.3442  0.3405
19183TIP3   OH278963   5.146   5.191  16.829 -0.1577  0.1663  0.7055
19183TIP3    H178964   5.143   5.096  16.836 -1.3004  0.2527  1.7058
19183TIP3    H278965   5.185   5.208  16.744  0.1676 -1.1939  0.5688
19184TIP3   OH278966   0.654   2.505   1.312 -0.0687  0.1812  0.0615
19184TIP3    H178967   0.559   2.494   1.306 -0.1549  0.4345  0.7700
19184TIP3    H278968   0.676   2.476   1.401  0.8382 -2.0049 -0.8115
19185TIP3   OH278969   6.012   0.480   1.253  0.4129 -0.3713  0.4946
19185TIP3    H178970   6.096   0.464   1.209  1.0149  0.9716  1.0857
19185TIP3    H278971   6.018   0.431   1.334 -0.2038 -1.8726 -0.3338
19186TIP3   OH278972   4.280   2.824   3.959 -0.0955  0.2288  0.6015
19186TIP3    H178973   4.200   2.866   3.990 -1.7324 -0.8441 -1.8649
19186TIP3    H278974   4.258   2.731   3.956  1.5684 -0.2024  0.6426
19187TIP3   OH278975   4.702   0.203  12.945  0.1726 -0.4334  0.4445
19187TIP3    H178976   4.634   0.263  12.916  0.4875 -0.8261 -1.2586
19187TIP3    H278977   4.765   0.258  12.991 -1.1700 -0.0435  1.8809
19188TIP3   OH278978   3.323   5.778  13.078 -0.2303 -0.2227  0.1209
19188TIP3    H178979   3.395   5.827  13.118  1.2340 -0.6629 -1.8360
19188TIP3    H278980   3.244   5.821  13.109  0.9012  0.9964  1.4311
19189TIP3   OH278981   4.752   0.605   5.111 -0.3246 -0.4760 -0.2038
19189TIP3    H178982   4.782   0.520   5.078 -3.0738 -2.0269  0.9473
19189TIP3    H278983   4.735   0.589   5.204 -0.0770  1.6054  0.2301
19190TIP3   OH278984   3.699   5.140   1.369  0.1127  0.4453 -0.0035
19190TIP3    H178985   3.690   5.173   1.458 -3.9381 -2.1775  0.8348
19190TIP3    H278986   3.652   5.203   1.315 -1.4066 -0.2063  0.5006
19191TIP3   OH278987   3.291   0.367  11.834  0.4266  0.0502  0.1633
19191TIP3    H178988   3.241   0.415  11.901 -0.5680  0.3205 -0.7302
19191TIP3    H278989   3.228   0.304  11.798  1.3546 -1.0604  0.4321
19192TIP3   OH278990   4.352   3.880   3.171  0.1409 -0.3524 -0.1431
19192TIP3    H178991   4.328   3.847   3.257  0.7462 -0.3796  0.0191
19192TIP3    H278992   4.269   3.896   3.127 -0.2135  1.0252  0.9624
19193TIP3   OH278993   2.815   6.291  15.217 -0.0708  0.5515 -0.2611
19193TIP3    H178994   2.897   6.319  15.258 -1.5739  4.8332  0.3368
19193TIP3    H278995   2.765   6.251  15.289  1.2064 -1.7938 -0.5626
19194TIP3   OH278996   1.377   4.219   0.680  0.0101  0.1697  0.0847
19194TIP3    H178997   1.392   4.155   0.750 -0.2497 -0.3708 -0.3451
19194TIP3    H278998   1.292   4.257   0.701 -0.2702 -0.3055 -0.1666
19195TIP3   OH278999   3.531   1.152   1.841 -0.2313 -0.0876  0.0310
19195TIP3    H179000   3.536   1.233   1.790 -0.7315 -0.9812 -1.5277
19195TIP3    H279001   3.461   1.167   1.904  1.3345  1.5525  1.4756
19196TIP3   OH279002   5.098   5.477  13.374  0.0835 -0.2254 -0.0944
19196TIP3    H179003   5.033   5.443  13.435 -0.1674  0.5765  0.1066
19196TIP3    H279004   5.135   5.400  13.332 -1.5907 -0.6690 -0.8288
19197TIP3   OH279005   5.271   4.244  16.837  1.4074 -0.2578 -0.5117
19197TIP3    H179006   5.206   4.269  16.772 -0.1149 -0.1359  0.9796
19197TIP3    H279007   5.336   4.314  16.834 -0.4635  1.6519  0.4525
19198TIP3   OH279008   0.489   3.944  14.254 -0.5689  0.3267  0.0481
19198TIP3    H179009   0.555   3.877  14.270 -2.0312 -0.7941  1.8087
19198TIP3    H279010   0.454   3.922  14.167 -1.4255 -1.6159  0.8309
19199TIP3   OH279011   4.298   6.255  13.424  0.7803 -0.5347 -0.4013
19199TIP3    H179012   4.280   6.174  13.374 -1.9825 -0.4569  0.2951
19199TIP3    H279013   4.256   6.324  13.373 -1.2000 -0.3032  1.4005
19200TIP3   OH279014   0.292   6.170   0.318  0.1307  0.2330  0.4203
19200TIP3    H179015   0.350   6.138   0.387  1.5399  0.0790 -0.8010
19200TIP3    H279016   0.328   6.134   0.237 -2.5048 -1.0695 -0.2797
19201TIP3   OH279017   0.062   4.811   0.672 -0.1611 -0.4639 -0.3530
19201TIP3    H179018   0.097   4.813   0.582 -2.4534  1.2735 -1.3060
19201TIP3    H279019  -0.030   4.789   0.661 -0.7691  0.9776  1.4423
19202TIP3   OH279020   5.903   0.612  12.725 -0.1962 -0.1065  0.5749
19202TIP3    H179021   5.973   0.649  12.672 -0.3885 -1.4166 -0.6536
19202TIP3    H279022   5.942   0.534  12.765 -0.3526  0.3170  1.5738
19203TIP3   OH279023   0.087   5.109  16.882  0.3041 -0.1662  0.9283
19203TIP3    H179024   0.059   5.026  16.844  2.4290 -0.5286  0.0356
19203TIP3    H279025   0.019   5.172  16.855 -0.2447 -1.1898 -0.1736
19204TIP3   OH279026   1.789   2.735  16.392 -0.2545 -0.2615  0.1930
19204TIP3    H179027   1.857   2.721  16.326  1.6229  3.8035  0.9145
19204TIP3    H279028   1.708   2.745  16.342  0.3644 -1.3971 -1.0744
19205TIP3   OH279029   3.724   4.549   2.533 -0.0222 -0.3145  0.3325
19205TIP3    H179030   3.698   4.624   2.479 -1.7054 -1.0373  0.0816
19205TIP3    H279031   3.749   4.588   2.617  0.3330  0.6266 -0.1909
19206TIP3   OH279032   3.054   1.303  14.785 -0.5544 -0.1975 -0.5919
19206TIP3    H179033   3.027   1.377  14.731  0.0523 -1.0106 -2.0595
19206TIP3    H279034   3.143   1.283  14.756 -0.6271 -1.3702 -0.0821
19207TIP3   OH279035   0.245   3.199   2.628  0.2503  0.0606 -0.4056
19207TIP3    H179036   0.165   3.230   2.585  0.1783 -0.4147 -0.6221
19207TIP3    H279037   0.216   3.131   2.688  0.4921 -0.1337 -0.5040
19208TIP3   OH279038   6.634   6.359  13.336 -0.2559  0.2220  0.2267
19208TIP3    H179039   6.587   6.360  13.420 -1.0544 -0.6027 -0.2009
19208TIP3    H279040   6.659   6.268  13.323 -0.1183  0.3487 -0.4303
19209TIP3   OH279041   6.072   0.455  12.130  0.3668 -0.6192 -1.0618
19209TIP3    H179042   6.066   0.482  12.221  0.9271 -0.2922 -1.1122
19209TIP3    H279043   6.043   0.364  12.129 -0.2862 -0.4167 -0.6677
19210TIP3   OH279044   4.391   0.166   2.287  0.2490 -0.4133 -0.3148
19210TIP3    H179045   4.379   0.220   2.209  0.9545 -2.2235 -1.7316
19210TIP3    H279046   4.368   0.224   2.360 -0.7921  1.2121 -1.8683
19211TIP3   OH279047   2.019   5.733  11.218  0.0629 -0.1617 -0.0838
19211TIP3    H179048   1.959   5.806  11.208  0.8583  0.7608  1.4359
19211TIP3    H279049   2.079   5.761  11.287  2.2046 -1.0503 -1.4775
19212TIP3   OH279050   3.376   1.789  15.919 -0.4102  0.3459  0.0946
19212TIP3    H179051   3.362   1.851  15.848 -0.9879 -0.7003 -0.7329
19212TIP3    H279052   3.318   1.818  15.988 -0.8511  0.5897 -0.3746
19213TIP3   OH279053   1.904   4.144  16.126  0.1841 -0.2472 -0.5676
19213TIP3    H179054   1.899   4.073  16.061 -0.6926  1.3375 -2.3438
19213TIP3    H279055   1.939   4.219  16.077  1.4475  0.5001  1.3413
19214TIP3   OH279056   5.674   0.220   6.522  0.6504  0.2496 -0.1787
19214TIP3    H179057   5.620   0.295   6.546 -1.3080 -0.6561 -1.4046
19214TIP3    H279058   5.689   0.173   6.604  0.8087  1.2933  0.4003
19215TIP3   OH279059   5.184   4.233  16.167  0.2904 -0.0582 -0.1435
19215TIP3    H179060   5.155   4.171  16.234 -0.5540  0.8595  0.3480
19215TIP3    H279061   5.173   4.185  16.085  1.6799 -1.3282  0.3598
19216TIP3   OH279062   6.223   2.680   4.415  0.8724  0.2048  0.1870
19216TIP3    H179063   6.243   2.745   4.348 -0.1280  0.4658  0.1273
19216TIP3    H279064   6.303   2.628   4.423  0.8616 -0.1054 -1.4960
19217TIP3   OH279065   1.312   2.171   5.226  0.6663 -0.2986  0.3228
19217TIP3    H179066   1.314   2.263   5.250 -1.6222 -0.4705  1.3792
19217TIP3    H279067   1.220   2.153   5.208  0.9738 -2.5285  0.7300
19218TIP3   OH279068   5.422   6.375   0.520  0.5534 -0.6991 -0.2654
19218TIP3    H179069   5.373   6.321   0.458  0.2364  0.4167 -1.0026
19218TIP3    H279070   5.412   6.329   0.604  1.1797 -2.3561 -1.0432
19219TIP3   OH279071   2.361   5.512   5.560 -0.5054  0.5345  0.6451
19219TIP3    H179072   2.299   5.585   5.571 -0.3108  0.8296 -0.1191
19219TIP3    H279073   2.310   5.434   5.582 -0.7003  0.9012  1.5486
19220TIP3   OH279074   2.559   2.299   3.606  0.3070 -0.3205  0.2587
19220TIP3    H179075   2.621   2.352   3.557 -0.0349 -0.4395 -0.3223
19220TIP3    H279076   2.500   2.363   3.646  0.1424 -0.2402 -0.1017
19221TIP3   OH279077   0.878   3.621   2.597  0.3050  0.2591  0.5884
19221TIP3    H179078   0.850   3.539   2.555 -0.7489 -0.2109  2.1399
19221TIP3    H279079   0.919   3.593   2.678  0.7319  1.2413  0.7160
19222TIP3   OH279080   1.286   5.609   4.765 -0.2046 -0.3725 -0.5934
19222TIP3    H179081   1.195   5.622   4.789  0.4805  2.7181  0.8271
19222TIP3    H279082   1.303   5.673   4.696  1.0961 -0.2661 -0.2101
19223TIP3   OH279083   0.225   2.882   4.113  0.3407 -0.6362 -0.0078
19223TIP3    H179084   0.188   2.806   4.158 -1.5136  0.7142  0.8760
19223TIP3    H279085   0.297   2.911   4.168  0.5810 -1.3125  0.0361
19224TIP3   OH279086   1.887   0.491  16.643 -0.2888  0.3803 -0.3357
19224TIP3    H179087   1.935   0.458  16.567  1.2754  0.2730  0.6497
19224TIP3    H279088   1.890   0.419  16.706 -1.2016  0.6181 -0.0036
19225TIP3   OH279089   3.706   3.208  15.191  0.2768  0.2237 -0.5378
19225TIP3    H179090   3.723   3.127  15.239 -2.2922  0.1226  0.3454
19225TIP3    H279091   3.707   3.277  15.258  0.0562  0.5752 -0.8872
19226TIP3   OH279092   3.899   2.102   2.025  0.3940  0.2962 -0.6614
19226TIP3    H179093   3.835   2.090   2.095  1.8282  0.0233  0.6746
19226TIP3    H279094   3.971   2.043   2.048  1.3549  0.9668 -1.8208
19227TIP3   OH279095   5.249   6.474  16.352 -0.6649 -0.7274 -0.2242
19227TIP3    H179096   5.214   6.388  16.376  1.7534 -2.3482 -2.0846
19227TIP3    H279097   5.336   6.456  16.318 -0.2899  2.4284 -1.2263
19228TIP3   OH279098   2.476   3.881   2.247 -0.0736  0.0374 -0.1972
19228TIP3    H179099   2.524   3.803   2.218  0.6017  0.8444 -1.3618
19228TIP3    H279100   2.532   3.954   2.220 -1.7040  0.9930 -1.1396
19229TIP3   OH279101   4.111   1.253   5.085 -0.5495  0.2581  0.2998
19229TIP3    H179102   4.105   1.167   5.044 -0.8116  0.4005  0.0342
19229TIP3    H279103   4.205   1.268   5.096 -0.3918  0.8643 -1.6291
19230TIP3   OH279104   3.068   3.022  14.129  0.4554  0.1088 -0.2001
19230TIP3    H179105   3.085   2.955  14.195  1.9921  0.5848 -0.0955
19230TIP3    H279106   3.074   2.974  14.046 -0.2575 -0.2355 -0.0647
19231TIP3   OH279107   6.355   3.858  16.457 -0.0607  0.4193  0.6992
19231TIP3    H179108   6.431   3.869  16.401 -0.8644 -1.1185 -0.8063
19231TIP3    H279109   6.330   3.947  16.482  1.4745  1.0142  0.2252
19232TIP3   OH279110   2.780   2.068   3.252 -0.8810 -0.3412 -0.1255
19232TIP3    H179111   2.782   1.973   3.247 -0.4919 -0.2930 -1.6215
19232TIP3    H279112   2.833   2.090   3.328  0.5932 -1.2862 -0.8257
19233TIP3   OH279113   5.088   2.656   3.900  0.5088 -0.2027  0.3791
19233TIP3    H179114   5.113   2.746   3.920 -0.5559  0.1854  0.0169
19233TIP3    H279115   5.134   2.636   3.818  0.8478 -0.0450  0.5271
19234TIP3   OH279116   4.255   0.527   3.656 -0.3259  0.5199 -0.1755
19234TIP3    H179117   4.170   0.553   3.693 -1.1400  0.3735 -1.8538
19234TIP3    H279118   4.311   0.512   3.733 -2.6553 -2.3684  1.1531
19235TIP3   OH279119   2.300   1.585  15.619  0.1875  0.1677  1.0612
19235TIP3    H179120   2.205   1.591  15.626  0.0029 -0.0937 -0.7782
19235TIP3    H279121   2.316   1.494  15.592  0.8146  0.6906 -0.4032
19236TIP3   OH279122   2.511   5.717  17.241  0.1990 -0.1501  0.0759
19236TIP3    H179123   2.417   5.698  17.241 -0.2599  1.8634 -0.3268
19236TIP3    H279124   2.528   5.753  17.328  1.1309 -2.5330  0.9788
19237TIP3   OH279125   6.654   1.709   3.424  0.3087  0.1869 -0.4915
19237TIP3    H179126   6.621   1.620   3.417  0.3775  0.2220 -1.3431
19237TIP3    H279127   6.583   1.758   3.466 -0.3694  0.0718 -1.4815
19238TIP3   OH279128   5.754   5.044  15.296 -0.2040 -0.1601  0.2509
19238TIP3    H179129   5.672   5.022  15.341  0.5906 -0.1777  1.7737
19238TIP3    H279130   5.816   4.976  15.325  0.6846  0.5976  0.1848
19239TIP3   OH279131   1.602   5.640  11.567 -0.5445 -0.9455 -0.5175
19239TIP3    H179132   1.532   5.700  11.542  1.8030  1.6958 -1.2209
19239TIP3    H279133   1.624   5.666  11.657  1.8614  0.8320 -1.5189
19240TIP3   OH279134   1.076   3.380   2.551  0.1222  0.4586  0.1323
19240TIP3    H179135   1.161   3.393   2.509  1.1802 -1.4354  1.5103
19240TIP3    H279136   1.077   3.440   2.625  0.4253  0.1944  0.3463
19241TIP3   OH279137   3.713   5.228  11.770  0.4278 -0.4914  0.1145
19241TIP3    H179138   3.648   5.266  11.829  1.3793  0.4916  0.5536
19241TIP3    H279139   3.731   5.297  11.707  1.5591 -0.5007  0.4134
19242TIP3   OH279140   3.503   2.942  15.331 -0.1125  0.5741  0.0153
19242TIP3    H179141   3.478   2.890  15.255 -0.8061  0.9175  0.0011
19242TIP3    H279142   3.441   3.015  15.332 -2.1494 -1.0328  2.6930
19243TIP3   OH279143   3.917   3.737   2.318 -0.2096 -0.4180 -0.0604
19243TIP3    H179144   3.933   3.722   2.411  0.8768 -2.0085 -0.4634
19243TIP3    H279145   3.828   3.705   2.303 -0.6329  0.4343  0.5271
19244TIP3   OH279146   2.955   6.541  13.432 -0.0701  0.1348  0.7336
19244TIP3    H179147   2.967   6.520  13.339  1.0936  0.0981  0.8653
19244TIP3    H279148   2.940   6.457  13.474  1.2781 -0.0948  0.8118
19245TIP3   OH279149   2.575   1.122  16.003  0.6714  0.2204 -0.0823
19245TIP3    H179150   2.647   1.185  16.008  2.4542 -1.7282  0.0702
19245TIP3    H279151   2.596   1.055  16.068 -1.4911 -0.2665  0.2189
19246TIP3   OH279152   2.919   4.159   3.576  0.6567 -0.2095  0.0296
19246TIP3    H179153   2.835   4.205   3.574  1.0208  0.6207  1.9935
19246TIP3    H279154   2.958   4.178   3.490 -0.4229  0.8214 -0.2643
19247TIP3   OH279155   0.593   5.587   6.065 -0.1426  0.0672  0.1646
19247TIP3    H179156   0.668   5.620   6.017 -0.6119 -0.5107 -1.0121
19247TIP3    H279157   0.526   5.655   6.055 -0.3669 -0.2212 -0.3488
19248TIP3   OH279158   4.413   4.486   2.820 -0.4643 -0.2137 -0.5293
19248TIP3    H179159   4.420   4.574   2.857 -1.6281  0.0191 -0.8354
19248TIP3    H279160   4.490   4.478   2.763 -0.3088  0.5726 -0.4372
19249TIP3   OH279161   5.744   4.350   3.513 -0.4951  0.2749  0.3063
19249TIP3    H179162   5.825   4.396   3.535  0.5663 -1.0344 -0.7339
19249TIP3    H279163   5.714   4.392   3.432 -1.2226  1.1721  1.0192
19250TIP3   OH279164   5.627   4.616   2.243 -0.0098 -0.1846  0.0127
19250TIP3    H179165   5.588   4.529   2.254 -0.7798  0.0959 -0.4394
19250TIP3    H279166   5.583   4.653   2.167  2.2272 -0.4524 -1.5303
19251TIP3   OH279167   2.231   0.150  11.538 -0.2311  0.2152 -0.3693
19251TIP3    H179168   2.224   0.078  11.600  1.7462  0.5275  0.2799
19251TIP3    H279169   2.140   0.178  11.524 -1.0638 -2.3016 -0.5853
19252TIP3   OH279170   0.618   2.654  14.168  0.3096 -0.3170 -0.5062
19252TIP3    H179171   0.693   2.598  14.189  1.3763  1.5466  0.9828
19252TIP3    H279172   0.558   2.642  14.242 -1.1674 -2.1471 -1.9040
19253TIP3   OH279173   6.254   0.318  10.520 -0.4293 -0.4473  0.7269
19253TIP3    H179174   6.177   0.286  10.568 -1.5031 -0.4452 -0.9264
19253TIP3    H279175   6.247   0.278  10.434  1.1002  0.0728  0.3361
19254TIP3   OH279176   2.918   3.981  14.163 -0.5685 -0.0434 -0.4884
19254TIP3    H179177   2.904   4.038  14.239 -0.2357 -0.5091 -0.0751
19254TIP3    H279178   2.891   3.894  14.192  0.2257 -0.3594 -0.6711
19255TIP3   OH279179   1.382   5.386  16.875 -0.0000 -0.5575 -0.3016
19255TIP3    H179180   1.407   5.322  16.809  1.7245  0.2354 -0.4530
19255TIP3    H279181   1.301   5.350  16.912 -0.4436 -1.5435 -2.0872
19256TIP3   OH279182   3.603   3.402   2.447 -0.4029 -0.2466  0.4680
19256TIP3    H179183   3.581   3.378   2.537 -1.4650 -4.0449 -0.6249
19256TIP3    H279184   3.689   3.364   2.432 -0.2402  0.3365 -0.1306
19257TIP3   OH279185   3.073   3.113  14.879 -0.0688  0.3396 -0.1205
19257TIP3    H179186   3.079   3.199  14.920 -1.9258 -0.3343  1.7725
19257TIP3    H279187   2.992   3.117  14.827 -1.1449 -0.7534  1.4008
19258TIP3   OH279188   4.586   4.399  16.607 -0.2814  0.1574  0.5584
19258TIP3    H179189   4.567   4.426  16.517 -0.3189 -1.2700  0.1191
19258TIP3    H279190   4.619   4.310  16.599 -0.5520 -0.0948  1.9901
19259TIP3   OH279191   2.084   0.205   4.628  0.5496  0.1280  0.7589
19259TIP3    H179192   2.078   0.278   4.689  1.0644 -0.7644  1.9053
19259TIP3    H279193   2.169   0.166   4.645  1.2369  0.5722 -1.3866
19260TIP3   OH279194   5.510   3.682  16.696  0.2411 -0.3621 -0.0926
19260TIP3    H179195   5.596   3.640  16.702 -0.6873 -2.2781  0.7409
19260TIP3    H279196   5.468   3.640  16.621  0.6850  1.9872 -1.7826
19261TIP3   OH279197   1.894   4.812  13.438  0.6623 -0.0883 -0.5194
19261TIP3    H179198   1.868   4.805  13.347  0.4909 -0.1027 -0.4699
19261TIP3    H279199   1.959   4.743  13.450  0.7358 -0.0401 -0.6496
19262TIP3   OH279200   0.454   2.835  11.810 -0.5412 -0.6752 -0.4608
19262TIP3    H179201   0.550   2.836  11.819 -0.5232 -1.4624 -0.4562
19262TIP3    H279202   0.436   2.895  11.738 -0.0851 -0.1133 -0.1121
19263TIP3   OH279203   4.067   4.663  15.662 -0.3814  0.4974 -0.2711
19263TIP3    H179204   4.129   4.699  15.599  1.4622  0.4140  1.4202
19263TIP3    H279205   4.088   4.570  15.666 -1.3880  0.2467 -0.4829
19264TIP3   OH279206   6.730   0.794  13.909 -0.3258 -0.0332  0.0080
19264TIP3    H179207   6.810   0.741  13.913 -0.8497 -0.7852  0.7000
19264TIP3    H279208   6.756   0.877  13.950 -0.0418 -0.4756  0.7502
19265TIP3   OH279209   2.011   2.203  15.874  0.1723 -0.3815 -0.6024
19265TIP3    H179210   2.073   2.140  15.911  0.9359 -0.3827 -1.8416
19265TIP3    H279211   2.064   2.260  15.819 -0.6306  0.8593 -0.1464
19266TIP3   OH279212   0.880   3.111  16.837  0.7673  0.1204 -0.2982
19266TIP3    H179213   0.956   3.063  16.869  0.6358  0.2077  0.1699
19266TIP3    H279214   0.806   3.052  16.852  0.5291  0.6675  0.8107
19267TIP3   OH279215   5.084   4.774  11.261  0.0487  0.2367  0.5135
19267TIP3    H179216   5.064   4.684  11.234  1.7674 -0.7999  2.4822
19267TIP3    H279217   5.170   4.792  11.224 -0.7946  1.6245 -0.9407
19268TIP3   OH279218   0.999   0.897  16.198 -0.0499 -0.3752 -0.6673
19268TIP3    H179219   0.983   0.843  16.276  1.0517 -1.5037 -1.1845
19268TIP3    H279220   0.996   0.835  16.125  0.1256  0.4661 -1.4030
19269TIP3   OH279221   0.399   1.473   1.816  0.5536  0.5921 -0.1387
19269TIP3    H179222   0.351   1.406   1.865 -1.2547 -0.3547 -2.9966
19269TIP3    H279223   0.460   1.510   1.880 -2.4341  0.3368  3.1582
19270TIP3   OH279224   1.715   4.196  13.120 -0.4561 -0.6321  0.1019
19270TIP3    H179225   1.752   4.261  13.060  0.5805 -0.6986  0.6510
19270TIP3    H279226   1.750   4.112  13.089  1.3922 -0.5214  1.6931
19271TIP3   OH279227   6.066   1.530  15.164 -0.7860  0.0146 -0.0678
19271TIP3    H179228   6.039   1.621  15.173  1.1776  0.6459 -0.2688
19271TIP3    H279229   6.076   1.517  15.070  3.3111  1.0336  0.0500
19272TIP3   OH279230   2.847   0.731  13.612  0.1543 -0.2612  1.0158
19272TIP3    H179231   2.890   0.646  13.600 -0.4731 -0.4565  0.0410
19272TIP3    H279232   2.916   0.795  13.596  1.0399 -0.5604  3.3253
19273TIP3   OH279233   5.373   4.848  14.266 -0.0733 -0.1901  0.3950
19273TIP3    H179234   5.460   4.851  14.305 -0.5723 -0.7180  1.6316
19273TIP3    H279235   5.326   4.782  14.318 -0.8053 -0.8947 -1.0911
19274TIP3   OH279236   1.920   3.453  16.426  0.1927 -0.2192 -0.1000
19274TIP3    H179237   1.829   3.436  16.402 -0.0272 -0.3230  0.7652
19274TIP3    H279238   1.969   3.445  16.344 -0.5050 -0.6591 -0.4823
19275TIP3   OH279239   0.814   2.374  11.898  0.4455  0.0097  0.4116
19275TIP3    H179240   0.908   2.375  11.917  0.6974  1.0629 -0.7413
19275TIP3    H279241   0.782   2.457  11.934  0.3868  0.6537 -1.0494
19276TIP3   OH279242   5.527   3.951   6.227 -0.2107 -0.2422 -0.8066
19276TIP3    H179243   5.542   4.045   6.222 -0.6799  0.0183  1.4815
19276TIP3    H279244   5.527   3.921   6.136  3.1635  1.4067 -1.4994
19277TIP3   OH279245   0.712   0.475  15.760  0.1472  0.2818  0.0938
19277TIP3    H179246   0.645   0.411  15.783  0.6180  0.3950  1.8987
19277TIP3    H279247   0.663   0.545  15.716 -0.4919 -0.8736 -1.1052
19278TIP3   OH279248   3.676   1.894   3.181  0.0686 -0.1212 -0.7454
19278TIP3    H179249   3.630   1.974   3.207 -1.4831 -0.3739 -2.4453
19278TIP3    H279250   3.766   1.922   3.165 -0.2875  1.1593 -0.6508
19279TIP3   OH279251   6.581   6.604  13.755  0.4679  0.4499  0.0942
19279TIP3    H179252   6.593   6.690  13.714  1.0501  1.3830  2.0725
19279TIP3    H279253   6.611   6.616  13.845 -3.1760 -0.7297  1.6668
19280TIP3   OH279254   3.410   4.086   1.672  1.1611  0.1565  0.2944
19280TIP3    H179255   3.468   4.096   1.596  0.4209  0.6058 -0.2226
19280TIP3    H279256   3.464   4.113   1.746  1.8187 -0.0481 -0.0960
19281TIP3   OH279257   4.910   3.893   6.087 -0.6903 -0.9886  0.4725
19281TIP3    H179258   4.993   3.861   6.050 -0.5203 -1.4440  1.2298
19281TIP3    H279259   4.901   3.846   6.170 -1.6433 -0.8417  0.4640
19282TIP3   OH279260   2.291   0.446  14.972 -0.1924 -0.2200  0.0134
19282TIP3    H179261   2.288   0.352  14.989 -0.1460  0.0134  1.4458
19282TIP3    H279262   2.339   0.454  14.890  2.9081 -1.3089  1.5536
19283TIP3   OH279263   0.086   4.650   1.479  0.5101 -0.1662 -0.2789
19283TIP3    H179264   0.107   4.677   1.389  1.1360 -1.1949 -0.4581
19283TIP3    H279265   0.149   4.697   1.534 -0.3508  1.0418 -0.2907
19284TIP3   OH279266   4.723   6.684  17.049 -0.0757 -0.1072 -0.0897
19284TIP3    H179267   4.674   6.692  16.967  1.8216 -0.2802 -1.3080
19284TIP3    H279268   4.693   6.601  17.086 -2.1152  0.7166  0.2686
19285TIP3   OH279269   1.690   3.630  13.979  0.4020  0.0453  0.3244
19285TIP3    H179270   1.604   3.667  14.000 -0.8840 -1.9956 -1.0221
19285TIP3    H279271   1.725   3.688  13.911 -1.1201 -0.5210 -1.0134
19286TIP3   OH279272   6.457   0.804   3.896  0.6834 -0.0193 -0.4509
19286TIP3    H179273   6.409   0.849   3.826  1.1932  1.5585  0.1599
19286TIP3    H279274   6.526   0.865   3.920  1.4208 -1.1698  0.4350
19287TIP3   OH279275   2.957   6.688  16.242  0.5763 -0.1484 -0.1134
19287TIP3    H179276   2.999   6.771  16.222  1.7389 -0.4397  0.9650
19287TIP3    H279277   2.864   6.709  16.254  0.6217  0.7331 -1.2377
19288TIP3   OH279278   4.709   0.994  13.113  0.5444  0.2400 -0.1986
19288TIP3    H179279   4.688   1.043  13.034 -1.7070  1.1164  0.8390
19288TIP3    H279280   4.740   0.910  13.082 -1.1526  0.2219 -2.0591
19289TIP3   OH279281   2.751   2.419   3.417 -0.2994 -0.0104 -0.1850
19289TIP3    H179282   2.717   2.436   3.329  0.6096  0.1751 -0.5056
19289TIP3    H279283   2.846   2.418   3.407 -0.0220  2.6800  1.2542
19290TIP3   OH279284   2.465   5.539  12.548 -0.2361 -0.0583 -0.0118
19290TIP3    H179285   2.452   5.519  12.455  2.7312  0.9839 -0.7593
19290TIP3    H279286   2.549   5.499  12.570  0.6999  2.4073  1.2923
19291TIP3   OH279287   6.169   1.896   0.482 -0.1132  0.2806 -0.0308
19291TIP3    H179288   6.097   1.856   0.530 -0.0346  0.7036  0.4371
19291TIP3    H279289   6.189   1.832   0.413 -0.0127 -0.4725  0.6830
19292TIP3   OH279290   5.982   4.863  12.813  0.3527  0.2520 -0.1759
19292TIP3    H179291   5.962   4.835  12.723  0.3149 -0.6751  0.1112
19292TIP3    H279292   5.905   4.837  12.864  0.0066  1.5445 -0.0140
19293TIP3   OH279293   5.983   6.732  14.190  0.4293 -0.6902  0.7022
19293TIP3    H179294   6.001   6.807  14.245  1.2960 -0.9644  0.8193
19293TIP3    H279295   6.052   6.735  14.123  0.1108 -1.0324  0.3554
19294TIP3   OH279296   3.260   3.725  10.988 -0.4950  0.2391 -0.3143
19294TIP3    H179297   3.208   3.805  10.980  0.6947  1.2875  1.6106
19294TIP3    H279298   3.323   3.730  10.916  0.9825  2.2244  0.9909
19295TIP3   OH279299   5.308   2.856  14.395 -0.4039 -0.1677 -0.3124
19295TIP3    H179300   5.302   2.762  14.380 -0.0359 -0.0431 -1.3179
19295TIP3    H279301   5.401   2.872  14.414 -0.6477 -0.1437  0.9896
19296TIP3   OH279302   2.412   3.837  16.633 -0.2680  0.7249  0.7680
19296TIP3    H179303   2.388   3.777  16.561  1.8025  1.9945 -1.1124
19296TIP3    H279304   2.369   3.919  16.611  0.3242  1.1062  1.0144
19297TIP3   OH279305   3.558   3.326   0.743  0.4123  0.3417 -0.0522
19297TIP3    H179306   3.570   3.380   0.821 -0.1373 -0.5577  0.6783
19297TIP3    H279307   3.617   3.365   0.677  0.0351  1.8062  0.4370
19298TIP3   OH279308   0.723   3.090   3.861  0.1711  0.3914 -0.2285
19298TIP3    H179309   0.802   3.076   3.809 -0.9414 -2.3252 -1.3914
19298TIP3    H279310   0.666   3.142   3.804  0.2390  0.3237 -0.3591
19299TIP3   OH279311   0.385   6.036  14.310 -0.1516  0.3410  0.4943
19299TIP3    H179312   0.402   5.942  14.302  0.5298  0.0904  3.5127
19299TIP3    H279313   0.408   6.072  14.225 -1.9893 -2.3855 -1.3428
19300TIP3   OH279314   2.884   1.529  15.617 -0.0076 -0.1661  0.0738
19300TIP3    H179315   2.819   1.480  15.668  1.2769 -0.7198  1.2358
19300TIP3    H279316   2.854   1.521  15.526  0.6216 -3.9672  0.0439
19301TIP3   OH279317   2.207   0.432   6.156 -0.6862  0.1381  0.2031
19301TIP3    H179318   2.271   0.434   6.226 -1.2442  3.0030  0.7417
19301TIP3    H279319   2.130   0.391   6.196 -0.4251  0.1424  0.7213
19302TIP3   OH279320   3.849   1.829   1.450 -0.1813  0.3217  0.0640
19302TIP3    H179321   3.869   1.737   1.470 -0.9140  0.3738  1.0915
19302TIP3    H279322   3.817   1.827   1.360 -1.6635 -0.6654  0.5817
19303TIP3   OH279323   6.653   0.350  15.286  0.4130  0.2024  0.2948
19303TIP3    H179324   6.660   0.445  15.297  0.9572 -0.0621  2.5747
19303TIP3    H279325   6.563   0.336  15.255  0.7964  1.5222 -1.6325
19304TIP3   OH279326   1.362   2.581  16.576  0.0927 -0.1597 -0.4747
19304TIP3    H179327   1.306   2.609  16.648  0.9279 -1.9697  0.9694
19304TIP3    H279328   1.304   2.532  16.519 -0.2790  0.0143 -0.2549
19305TIP3   OH279329   3.121   2.148   0.321  0.5884  0.0698  0.5482
19305TIP3    H179330   3.058   2.098   0.270  0.3656  1.1776 -0.2961
19305TIP3    H279331   3.206   2.108   0.299  0.4290  0.1220 -0.1904
19306TIP3   OH279332   4.096   5.339   0.603  0.6174  0.5355 -0.5032
19306TIP3    H179333   4.074   5.432   0.608  1.3776  0.7472 -0.9250
19306TIP3    H279334   4.103   5.322   0.509 -0.0749 -0.0898 -0.4490
19307TIP3   OH279335   3.269   2.572  16.397  0.1412 -0.1055 -0.0286
19307TIP3    H179336   3.240   2.609  16.314  3.0497  0.6802 -0.8276
19307TIP3    H279337   3.311   2.645  16.443 -0.5413 -0.7630  1.7224
19308TIP3   OH279338   6.318   0.779   6.448  0.7113  0.8436 -0.3995
19308TIP3    H179339   6.257   0.714   6.415  1.0022 -0.1072  0.8610
19308TIP3    H279340   6.277   0.863   6.426 -0.7481  0.2333 -0.1330
19309TIP3   OH279341   0.033   3.315   4.778  0.2893  0.1888  0.0070
19309TIP3    H179342   0.021   3.381   4.709  3.5817  0.2295 -0.7088
19309TIP3    H279343   0.078   3.242   4.734  0.3236 -0.8031  1.6114
19310TIP3   OH279344   0.219   3.483  17.293  0.2976 -0.3436 -0.3939
19310TIP3    H179345   0.277   3.532  17.235 -1.0178 -0.1864 -1.6554
19310TIP3    H279346   0.146   3.543  17.310 -0.0689 -0.9441  0.1757
19311TIP3   OH279347   4.255   6.404  11.484  0.1170  0.2869 -0.0436
19311TIP3    H179348   4.211   6.443  11.559  0.4011  0.4881  0.0164
19311TIP3    H279349   4.339   6.449  11.478 -0.7246  1.7510 -1.7430
19312TIP3   OH279350   0.542   1.658   6.199 -0.6809  0.0325  0.2027
19312TIP3    H179351   0.560   1.646   6.106  0.7914 -2.1136  0.6916
19312TIP3    H279352   0.603   1.727   6.227 -0.5775  0.1327 -0.2685
19313TIP3   OH279353   4.050   1.648   1.718  0.7258 -0.1720  0.3886
19313TIP3    H179354   4.023   1.612   1.802  1.8127 -2.0983 -0.0281
19313TIP3    H279355   3.996   1.603   1.654 -0.1577  1.3502  0.0233
19314TIP3   OH279356   3.872   6.456  15.568  0.0195 -0.2461 -0.0104
19314TIP3    H179357   3.896   6.473  15.477  0.9345 -0.1631  0.2332
19314TIP3    H279358   3.790   6.406  15.563 -1.2599  1.8194 -0.8150
19315TIP3   OH279359   2.204   5.696   0.158  0.0758  0.0965  0.0307
19315TIP3    H179360   2.128   5.679   0.102  0.3903  0.8709 -0.6641
19315TIP3    H279361   2.179   5.773   0.209  0.5199  0.5882 -0.4747
19316TIP3   OH279362   5.409   5.148  14.448  0.3431 -0.0315 -0.1816
19316TIP3    H179363   5.474   5.189  14.505 -0.2865  1.0903 -0.2447
19316TIP3    H279364   5.347   5.218  14.429  0.3957 -0.4450 -2.0346
19317TIP3   OH279365   0.158   2.655  13.950 -0.4158  0.3587 -0.1937
19317TIP3    H179366   0.251   2.671  13.962 -0.3920 -0.7101  1.3561
19317TIP3    H279367   0.121   2.741  13.929  0.7891  0.9377 -0.0241
19318TIP3   OH279368   3.620   2.405  10.889 -0.0825  0.0007  0.0073
19318TIP3    H179369   3.697   2.447  10.850 -0.9984  0.4497 -1.3911
19318TIP3    H279370   3.649   2.317  10.912  1.2083  0.5943  0.7445
19319TIP3   OH279371   4.012   4.723   2.103  0.1790 -0.0310 -0.0423
19319TIP3    H179372   3.986   4.764   2.021 -2.4751 -0.9432  0.2506
19319TIP3    H279373   4.094   4.765   2.126  1.5912 -0.4568 -3.6562
19320TIP3   OH279374   1.867   6.211   2.761 -0.8968  0.3370 -0.6273
19320TIP3    H179375   1.923   6.134   2.773  0.3294  1.1065 -1.2097
19320TIP3    H279376   1.881   6.237   2.670 -1.3704  1.1918 -0.4652
19321TIP3   OH279377   6.495   1.546   4.377  0.1578  0.4755 -0.1637
19321TIP3    H179378   6.575   1.534   4.326 -0.0765  0.0082 -0.4289
19321TIP3    H279379   6.489   1.640   4.392  0.5239  0.5554 -0.5258
19322TIP3   OH279380   2.415   0.479   1.610 -0.7717 -0.5884  0.4973
19322TIP3    H179381   2.376   0.468   1.696 -3.7355 -1.0681 -0.8074
19322TIP3    H279382   2.407   0.393   1.569 -2.3101  0.3682 -1.3330
19323TIP3   OH279383   5.607   0.807  13.274 -0.2399  0.2608 -0.5560
19323TIP3    H179384   5.630   0.801  13.366  1.0333  0.4101 -0.8439
19323TIP3    H279385   5.680   0.766  13.228 -0.9786 -0.0550 -1.4896
19324TIP3   OH279386   3.682   0.704  12.852 -0.5815 -0.1762  0.1252
19324TIP3    H179387   3.742   0.647  12.900 -0.0808  0.7512  0.6367
19324TIP3    H279388   3.677   0.783  12.905  0.7603  1.2839 -1.7903
19325TIP3   OH279389   4.008   4.478   6.046 -0.2620 -0.2257  0.6861
19325TIP3    H179390   4.067   4.421   6.095  2.4811  0.1030 -1.9601
19325TIP3    H279391   3.951   4.418   5.998  1.4916 -0.7613 -0.7913
19326TIP3   OH279392   2.400   0.298   0.826  0.0514 -0.3736 -0.7217
19326TIP3    H179393   2.472   0.289   0.889 -0.0165 -1.0623 -0.7264
19326TIP3    H279394   2.436   0.350   0.755  1.0962 -2.0581 -1.4976
19327TIP3   OH279395   6.692   0.017   6.011 -0.4362  0.4449  0.5239
19327TIP3    H179396   6.784   0.038   6.024 -0.5751  1.2575  0.2453
19327TIP3    H279397   6.677  -0.061   6.064  0.7695 -0.5709 -0.5586
19328TIP3   OH279398   4.959   3.284  14.019  0.0324 -0.0637 -0.2340
19328TIP3    H179399   4.890   3.315  14.079 -1.6574  0.4037 -2.2655
19328TIP3    H279400   5.036   3.335  14.042 -1.7391  3.3750 -1.1885
19329TIP3   OH279401   4.090   4.593   1.527 -0.6753  0.0996 -0.1311
19329TIP3    H179402   4.119   4.656   1.593 -0.5293  0.4514 -0.5312
19329TIP3    H279403   4.001   4.621   1.504 -0.2106  0.8316 -1.1143
19330TIP3   OH279404   1.451   4.034  16.272 -0.8249  0.0434  0.0081
19330TIP3    H179405   1.546   4.042  16.265 -0.7435 -1.4102 -1.1407
19330TIP3    H279406   1.419   4.124  16.274  0.5175  0.5516 -0.4815
19331TIP3   OH279407   3.679   2.796  12.122 -0.1676 -0.0498 -0.2052
19331TIP3    H179408   3.683   2.749  12.205  0.0149  0.8398  0.3009
19331TIP3    H279409   3.586   2.798  12.100 -0.4767  1.6101  1.1075
19332TIP3   OH279410   0.281   4.221   4.529 -0.2940  0.0025 -0.8964
19332TIP3    H179411   0.188   4.247   4.526 -0.2193  0.2288 -1.3727
19332TIP3    H279412   0.327   4.293   4.485  0.5115  1.6412  2.3448
19333TIP3   OH279413   2.812   4.430   6.154 -0.1728 -0.1359 -0.4544
19333TIP3    H179414   2.775   4.510   6.190 -1.4341 -1.5028  1.5479
19333TIP3    H279415   2.879   4.404   6.217 -1.9170 -2.1982  0.7068
19334TIP3   OH279416   5.560   2.687   1.330 -0.4483 -0.2636 -0.2421
19334TIP3    H179417   5.627   2.644   1.384  0.9387 -0.6643 -2.1821
19334TIP3    H279418   5.520   2.751   1.389  0.9982 -0.6704  1.2643
19335TIP3   OH279419   3.037   5.165   5.654 -0.1495 -0.4429  0.4706
19335TIP3    H179420   2.961   5.198   5.605 -0.7728 -1.7167  0.5464
19335TIP3    H279421   3.099   5.138   5.586 -0.8894 -1.9246  0.3528
19336TIP3   OH279422   0.277   5.224  12.967 -0.0067  0.0812 -0.0560
19336TIP3    H179423   0.372   5.226  12.962 -0.0427  0.9734 -0.5355
19336TIP3    H279424   0.251   5.316  12.969 -0.8962 -0.1348 -0.8923
19337TIP3   OH279425   3.009   2.043   6.068 -0.1466  0.1464  0.2238
19337TIP3    H179426   3.077   2.018   6.132  0.5183  1.6794  0.1625
19337TIP3    H279427   2.932   2.063   6.122  0.1850  0.7071  0.5023
19338TIP3   OH279428   2.661   5.599   4.064  0.3569 -0.2714  0.3782
19338TIP3    H179429   2.744   5.642   4.085  0.3369  0.2463 -0.5577
19338TIP3    H279430   2.645   5.540   4.138  1.0535  0.3595  1.0441
19339TIP3   OH279431   0.509   4.569  16.419  0.5735 -0.3362  0.4103
19339TIP3    H179432   0.520   4.650  16.469  1.2806  0.7323 -1.3809
19339TIP3    H279433   0.414   4.559  16.409  0.5031  0.8802 -0.2583
19340TIP3   OH279434   0.011   4.973  14.858 -0.3116 -0.4493  0.2239
19340TIP3    H179435  -0.009   5.062  14.885  0.3954 -0.5470  1.1109
19340TIP3    H279436  -0.016   4.918  14.931 -0.7737 -0.9728 -0.3281
19341TIP3   OH279437   2.467   1.432  12.467  0.1808 -0.1545 -0.1278
19341TIP3    H179438   2.542   1.393  12.422 -0.2455 -0.8649 -0.2323
19341TIP3    H279439   2.505   1.487  12.535  0.7935 -0.6552 -0.0636
19342TIP3   OH279440   5.126   1.619  16.220 -0.4161  0.1791  0.0494
19342TIP3    H179441   5.212   1.618  16.179  0.0296 -1.5256  0.9176
19342TIP3    H279442   5.089   1.533  16.201 -0.0733 -0.8457  3.2558
19343TIP3   OH279443   3.180   0.416  15.005 -0.2280  0.0938 -0.4971
19343TIP3    H179444   3.214   0.489  14.954 -0.0202 -0.3827 -1.0522
19343TIP3    H279445   3.089   0.441  15.024 -0.6781 -0.1975 -2.0704
19344TIP3   OH279446   1.723   2.607  11.565  0.0742 -0.0266  0.4317
19344TIP3    H179447   1.776   2.532  11.540  0.4500  0.5505 -0.5688
19344TIP3    H279448   1.634   2.572  11.573  0.0499 -0.3935 -1.0996
19345TIP3   OH279449   0.804   5.302  12.961 -0.0734  0.0019  0.2507
19345TIP3    H179450   0.898   5.283  12.951 -0.2508 -1.1612  0.5868
19345TIP3    H279451   0.788   5.375  12.901  1.1574  0.6078  0.6186
19346TIP3   OH279452   3.484   1.071   5.429 -0.4862 -0.4217 -0.1873
19346TIP3    H179453   3.476   1.107   5.341 -1.1555 -2.2816 -0.9546
19346TIP3    H279454   3.575   1.086   5.453  0.2858 -1.7017 -2.0882
19347TIP3   OH279455   4.576   2.716  16.920 -0.3371 -0.3673  0.1850
19347TIP3    H179456   4.633   2.769  16.977 -1.1859  1.1967 -0.3648
19347TIP3    H279457   4.492   2.717  16.965 -0.2349 -1.7838  0.4535
19348TIP3   OH279458   2.734   1.858  12.716  0.3375 -0.1217  0.3301
19348TIP3    H179459   2.780   1.940  12.736  0.6191 -0.2700  0.3033
19348TIP3    H279460   2.669   1.849  12.785 -0.3277  0.5964 -0.1919
19349TIP3   OH279461   6.755   0.356   4.664  0.0404 -1.1467  0.1044
19349TIP3    H179462   6.691   0.319   4.725  0.1538 -1.8443 -0.1800
19349TIP3    H279463   6.702   0.389   4.592 -0.1078 -0.1162  0.6768
19350TIP3   OH279464   0.658   2.282  14.203  0.0677  0.0147 -0.3513
19350TIP3    H179465   0.711   2.228  14.145  0.5023 -1.0672  1.0289
19350TIP3    H279466   0.708   2.287  14.284 -0.9347  0.7994  0.2378
19351TIP3   OH279467   4.401   5.050  11.180 -0.3451  0.4159 -0.3261
19351TIP3    H179468   4.491   5.076  11.201 -1.2149  2.1204  1.6145
19351TIP3    H279469   4.370   5.119  11.122 -0.7672  0.4539 -0.0549
19352TIP3   OH279470   5.267   5.554   4.946 -0.0591 -0.0379  0.4848
19352TIP3    H179471   5.282   5.558   5.040 -0.1917 -0.2095  0.5143
19352TIP3    H279472   5.207   5.480   4.934  0.8297 -0.7435  0.1707
19353TIP3   OH279473   5.653   0.358   1.966  0.2928  0.6507 -0.2329
19353TIP3    H179474   5.638   0.289   2.031  1.0033  1.7781  1.1992
19353TIP3    H279475   5.629   0.439   2.012  1.4365  1.5404 -1.1554
19354TIP3   OH279476   1.628   6.546  15.120 -0.4872 -0.5128 -0.0896
19354TIP3    H179477   1.704   6.560  15.176 -0.1569  1.1920 -0.9022
19354TIP3    H279478   1.553   6.570  15.174 -0.2702 -0.0821  0.0212
19355TIP3   OH279479   4.288   2.969  11.686 -0.3774 -0.3977  0.0752
19355TIP3    H179480   4.379   2.993  11.708 -0.1599 -0.0499 -1.1136
19355TIP3    H279481   4.244   3.053  11.676 -0.4259 -0.5351 -0.9246
19356TIP3   OH279482   0.757   2.150  15.998 -0.2497 -0.1237  0.1964
19356TIP3    H179483   0.736   2.110  15.913  0.7504 -0.5470  0.1330
19356TIP3    H279484   0.674   2.150  16.045 -0.2444 -2.6978  0.3534
19357TIP3   OH279485   4.030   3.694  16.960  0.6014  0.3320  0.3808
19357TIP3    H179486   4.018   3.772  16.907  0.6603  0.6602  0.8467
19357TIP3    H279487   4.059   3.727  17.045 -1.6482 -0.0259  1.3460
19358TIP3   OH279488   2.817   0.918   0.262  0.0279 -0.0469 -0.1196
19358TIP3    H179489   2.874   0.854   0.303  1.3906 -0.0305 -1.8672
19358TIP3    H279490   2.872   0.961   0.196 -1.1870  2.0492  0.1275
19359TIP3   OH279491   0.244   1.378   5.240 -0.5858 -0.0866 -1.0110
19359TIP3    H179492   0.219   1.304   5.184  1.3865 -1.1625 -0.5382
19359TIP3    H279493   0.309   1.426   5.189 -0.0690 -0.0790 -0.3538
19360TIP3   OH279494   5.266   2.830   1.729 -0.1087 -0.1685  0.5146
19360TIP3    H179495   5.197   2.839   1.663  0.7679  0.0459 -0.3984
19360TIP3    H279496   5.256   2.907   1.785  0.5692  0.9134 -0.7746
19361TIP3   OH279497   6.422   6.137  11.303  0.0150 -0.2156  0.2566
19361TIP3    H179498   6.360   6.155  11.233 -2.4171 -1.7733  1.8409
19361TIP3    H279499   6.496   6.094  11.260 -0.3172  0.9551 -1.5971
19362TIP3   OH279500   4.172   4.612   6.239  0.0646 -0.3875  0.5892
19362TIP3    H179501   4.228   4.554   6.187 -0.1797 -1.1665  1.1682
19362TIP3    H279502   4.111   4.651   6.176 -0.2205 -1.3091  0.2849
19363TIP3   OH279503   1.964   4.625   2.182  0.2009 -0.4357  0.5500
19363TIP3    H179504   2.033   4.691   2.189 -0.6498  0.6854 -0.9709
19363TIP3    H279505   1.884   4.676   2.168 -0.2750 -1.7635 -2.2227
19364TIP3   OH279506   1.801   3.609  16.630 -0.0173  0.0502  0.3595
19364TIP3    H179507   1.759   3.656  16.558  0.4215 -1.3255 -0.8577
19364TIP3    H279508   1.865   3.552  16.587  0.9567 -0.1146  1.9323
19365TIP3   OH279509   4.625   4.087   5.383  0.3032  0.4689  0.0091
19365TIP3    H179510   4.599   4.097   5.475 -0.3472 -3.5777  0.4532
19365TIP3    H279511   4.720   4.098   5.383  0.1638  1.9515  0.8474
19366TIP3   OH279512   0.215   2.214  12.638 -0.2817  0.6864 -0.3591
19366TIP3    H179513   0.134   2.262  12.659 -1.1777 -1.8533  2.7601
19366TIP3    H279514   0.188   2.149  12.574 -0.4373  0.6432 -0.2507
19367TIP3   OH279515   2.251   1.934   4.170  0.1356 -0.5886  0.3467
19367TIP3    H179516   2.177   1.874   4.179 -1.2545  1.1868  1.4746
19367TIP3    H279517   2.214   2.011   4.127  2.1193 -0.8725 -2.0790
19368TIP3   OH279518   0.255   3.942   4.487 -0.2381 -0.1556 -0.7057
19368TIP3    H179519   0.166   3.960   4.517  0.3089 -0.6774  1.4075
19368TIP3    H279520   0.300   4.026   4.494  0.1736 -0.4885  1.1535
19369TIP3   OH279521   6.750   4.404  11.621  0.1421  0.1086 -0.0162
19369TIP3    H179522   6.669   4.355  11.605 -0.7114  1.3162  0.4575
19369TIP3    H279523   6.781   4.426  11.533 -0.6063  0.5212 -0.1826
19370TIP3   OH279524   6.690   3.377  17.013  0.3211 -0.1233  0.3811
19370TIP3    H179525   6.681   3.447  17.077 -0.1271  0.2099 -0.0430
19370TIP3    H279526   6.731   3.419  16.937  1.1363 -0.5834  0.5557
19371TIP3   OH279527   5.414   5.720  15.869 -0.0918  0.4077  0.0561
19371TIP3    H179528   5.420   5.745  15.777  0.1773  0.5174  0.1016
19371TIP3    H279529   5.483   5.772  15.912  0.4609 -0.3922  0.1597
19372TIP3   OH279530   3.464   4.312  16.325  0.1276  0.2053  0.0648
19372TIP3    H179531   3.476   4.278  16.237  2.3865 -0.0987  0.4410
19372TIP3    H279532   3.515   4.393  16.328 -1.2177  1.0694  0.6404
19373TIP3   OH279533   0.184   3.327  17.056 -0.2290 -0.5434  0.5229
19373TIP3    H179534   0.154   3.355  17.143 -3.7878 -0.2404 -0.6469
19373TIP3    H279535   0.160   3.399  16.998  0.4201 -1.5063 -0.9844
19374TIP3   OH279536   0.941   6.241   3.908  0.8790 -0.1069 -0.1175
19374TIP3    H179537   0.981   6.293   3.978  1.1214 -1.2393  0.6097
19374TIP3    H279538   1.012   6.229   3.844  0.9123  0.1905 -0.1360
19375TIP3   OH279539   0.027   5.762  15.197  0.2475  0.2812 -0.7746
19375TIP3    H179540   0.122   5.752  15.190  0.2497  1.0352 -2.4911
19375TIP3    H279541   0.015   5.838  15.255  0.5927 -0.9793  1.0231
19376TIP3   OH279542   6.615   5.129   0.274 -0.0292  0.6597  0.1108
19376TIP3    H179543   6.696   5.143   0.322  0.8905 -1.3257 -0.7422
19376TIP3    H279544   6.554   5.095   0.339  0.4709  0.1894  0.3383
19377TIP3   OH279545   1.010   2.005  11.578 -0.0686 -0.3383 -1.1230
19377TIP3    H179546   0.933   2.040  11.534  1.2397 -0.8870 -4.1345
19377TIP3    H279547   1.018   1.915  11.546  0.7850 -0.9203  0.6074
19378TIP3   OH279548   1.041   3.475  15.475 -0.5048 -0.2853  0.2302
19378TIP3    H179549   0.985   3.407  15.436  1.2226 -1.4650 -0.3268
19378TIP3    H279550   1.075   3.435  15.554  0.9414 -0.3067 -0.3701
19379TIP3   OH279551   5.189   0.286   4.726  0.9665  0.5519 -0.5995
19379TIP3    H179552   5.226   0.355   4.781 -1.1049 -0.2175  1.9142
19379TIP3    H279553   5.241   0.208   4.747  1.6692  0.7363 -1.5565
19380TIP3   OH279554   0.950   5.044  16.591  0.4014 -0.2621 -0.0471
19380TIP3    H179555   0.987   5.127  16.561 -1.6369  0.4241 -0.8338
19380TIP3    H279556   1.019   4.980  16.575  1.8426  1.1845  0.1296
19381TIP3   OH279557   1.536   5.520  12.171  0.0460 -0.5592  0.1485
19381TIP3    H179558   1.467   5.575  12.135  1.2840  0.6047 -0.5152
19381TIP3    H279559   1.527   5.437  12.125 -0.8475 -0.3846  0.0020
19382TIP3   OH279560   3.639   4.485  14.509  0.0169 -0.1967 -0.5901
19382TIP3    H179561   3.722   4.442  14.489  0.3986  1.3855 -2.7594
19382TIP3    H279562   3.658   4.537  14.588  0.2326 -1.9393  0.5664
19383TIP3   OH279563   1.453   4.466  13.771  0.2362  0.3664  0.6425
19383TIP3    H179564   1.413   4.452  13.857  0.2720 -1.3929  0.4095
19383TIP3    H279565   1.399   4.414  13.711  0.2952  1.4610 -0.3932
19384TIP3   OH279566   5.834   6.327   4.849  0.3861  0.1431  0.4201
19384TIP3    H179567   5.820   6.410   4.804 -2.3265 -1.3165 -1.7766
19384TIP3    H279568   5.886   6.349   4.926  1.0072  3.5974 -0.8368
19385TIP3   OH279569   0.287   0.649  16.323 -0.1427 -0.2491  0.2331
19385TIP3    H179570   0.247   0.628  16.407  0.7711  0.1145  0.7724
19385TIP3    H279571   0.259   0.739  16.305 -0.0723 -0.2094  0.3174
19386TIP3   OH279572   4.297   1.057  11.493 -0.4114  0.1891 -0.0126
19386TIP3    H179573   4.275   1.150  11.500  1.8095  0.9693 -1.8952
19386TIP3    H279574   4.314   1.044  11.399  0.7770 -1.7412  0.4224
19387TIP3   OH279575   5.428   0.191  14.157  0.5831 -0.1157  0.2794
19387TIP3    H179576   5.518   0.220  14.168  0.6297 -0.1377 -0.0404
19387TIP3    H279577   5.400   0.229  14.074  0.8485 -1.4689 -0.4556
19388TIP3   OH279578   2.984   2.841  11.949 -0.5000 -0.1411 -0.1841
19388TIP3    H179579   2.909   2.899  11.936 -1.4994 -1.3856 -0.1735
19388TIP3    H279580   2.951   2.773  12.007  0.3733 -1.1997 -0.9006
19389TIP3   OH279581   4.723   5.788   2.946  0.3356 -0.6746 -0.8379
19389TIP3    H179582   4.749   5.800   3.037 -1.0091 -1.3598 -0.3433
19389TIP3    H279583   4.782   5.720   2.913  2.1041  0.8763 -1.0913
19390TIP3   OH279584   6.347   0.208  12.358 -0.4072  0.0935 -0.3744
19390TIP3    H179585   6.348   0.303  12.370 -0.9866 -0.0037  0.5849
19390TIP3    H279586   6.398   0.193  12.279  1.1038  1.0794  0.3740
19391TIP3   OH279587   4.938   1.823  15.559  0.1170 -0.0189 -0.1700
19391TIP3    H179588   4.889   1.891  15.605  1.0285  0.2763  0.3842
19391TIP3    H279589   4.879   1.796  15.488 -0.7301  0.5161  0.3073
19392TIP3   OH279590   6.186   6.542  11.751  0.5121  0.3554 -0.0416
19392TIP3    H179591   6.187   6.479  11.823  2.1670 -1.2141 -1.3323
19392TIP3    H279592   6.242   6.503  11.685 -0.6654  1.8977 -2.0663
19393TIP3   OH279593   5.911   2.240   5.745  0.7951  0.3535 -0.0886
19393TIP3    H179594   5.937   2.196   5.826  0.9507 -0.1954 -0.4276
19393TIP3    H279595   5.816   2.225   5.738  0.8453  0.0791 -0.1949
19394TIP3   OH279596   5.221   0.729  13.572  0.1746  0.1523 -0.1777
19394TIP3    H179597   5.187   0.700  13.657  2.0392 -1.3590  0.1381
19394TIP3    H279598   5.173   0.809  13.553 -2.0732 -0.7899  1.1011
19395TIP3   OH279599   2.592   1.269  13.077 -0.2646  0.2867  0.1752
19395TIP3    H179600   2.610   1.196  13.136  0.1662  1.1776  1.1899
19395TIP3    H279601   2.497   1.281  13.082 -0.3670 -0.3217 -0.1652
19396TIP3   OH279602   4.996   5.846  14.638 -0.2103 -0.0506 -0.1787
19396TIP3    H179603   4.971   5.877  14.551  1.8161  0.0171 -0.8034
19396TIP3    H279604   5.013   5.926  14.688  1.1627 -0.0788 -0.5623
19397TIP3   OH279605   6.409   4.156  16.427  0.1742 -0.0742  0.1576
19397TIP3    H179606   6.489   4.203  16.450 -0.6649  1.6999 -0.4241
19397TIP3    H279607   6.338   4.208  16.464 -0.9665  0.6816 -2.8052
19398TIP3   OH279608   5.448   5.441   4.247 -0.4131  0.9456 -0.2953
19398TIP3    H179609   5.425   5.351   4.272  0.4833  0.7015 -0.3138
19398TIP3    H279610   5.366   5.478   4.214 -0.5510 -0.2645 -1.4341
19399TIP3   OH279611   3.724   0.496  12.257  0.2071  0.2210  0.2364
19399TIP3    H179612   3.750   0.487  12.166  0.0054  0.9083  0.1025
19399TIP3    H279613   3.720   0.406  12.291 -2.0633 -0.2383 -1.0751
19400TIP3   OH279614   5.713   4.748  16.869 -0.0389  0.1319  0.1236
19400TIP3    H179615   5.651   4.693  16.822 -0.8955  0.3465  0.9650
19400TIP3    H279616   5.706   4.834  16.828  1.1503 -0.3104 -1.0567
19401TIP3   OH279617   2.135   1.749   5.180 -0.1254  0.3128 -0.1144
19401TIP3    H179618   2.052   1.767   5.225 -1.2608  2.7307 -2.8752
19401TIP3    H279619   2.196   1.728   5.251 -2.3409  1.4830  2.3225
19402TIP3   OH279620   6.722   1.881   3.924 -0.1577 -0.0215  0.4061
19402TIP3    H179621   6.729   1.795   3.965 -0.6078 -1.5897 -2.4963
19402TIP3    H279622   6.631   1.887   3.896 -0.2512  1.6473  0.9561
19403TIP3   OH279623   0.987   1.157   2.612 -0.2045  0.2284 -0.2873
19403TIP3    H179624   0.909   1.201   2.581 -0.9518 -0.9868 -0.1971
19403TIP3    H279625   1.050   1.227   2.629 -0.3963  1.0688 -2.7014
19404TIP3   OH279626   1.317   3.772  12.503  0.5020 -0.6471 -0.2503
19404TIP3    H179627   1.303   3.779  12.598  2.1645 -2.5162  0.1788
19404TIP3    H279628   1.333   3.863  12.475 -2.5030  0.3218  0.7392
19405TIP3   OH279629   3.492   5.597   3.304 -0.1798 -0.4413  0.1601
19405TIP3    H179630   3.534   5.670   3.349 -0.9666  0.6930 -0.8737
19405TIP3    H279631   3.474   5.630   3.216  0.0615 -2.1233 -0.5547
19406TIP3   OH279632   6.047   2.565   4.996 -0.3058 -0.0677  0.1273
19406TIP3    H179633   6.075   2.584   4.906  0.4486 -0.7604  0.2068
19406TIP3    H279634   6.099   2.624   5.050  0.7796 -1.0775  0.2442
19407TIP3   OH279635   0.581   2.723  16.156  1.1231  0.0558  0.0305
19407TIP3    H179636   0.564   2.704  16.248  2.2864  1.9761  0.6980
19407TIP3    H279637   0.580   2.638  16.113 -1.4801 -0.7274  1.4253
19408TIP3   OH279638   2.278   2.440   6.335 -0.1040  0.8927  0.4513
19408TIP3    H179639   2.186   2.447   6.361 -0.3298 -0.8964  0.2762
19408TIP3    H279640   2.281   2.361   6.280  1.7103  0.3308  1.2948
19409TIP3   OH279641   6.473   2.137   1.212  0.0421 -0.1766 -0.0454
19409TIP3    H179642   6.556   2.133   1.164  0.3127 -0.9971  0.4570
19409TIP3    H279643   6.495   2.180   1.294  0.1232 -0.9530  0.3529
19410TIP3   OH279644   5.282   0.320   0.095  0.7659  0.0368 -0.6192
19410TIP3    H179645   5.256   0.377   0.167 -2.3756 -1.5807 -0.2904
19410TIP3    H279646   5.356   0.365   0.054 -1.5114  4.4192 -0.5044
19411TIP3   OH279647   6.337   0.782  12.256 -0.5608  0.4308 -0.0805
19411TIP3    H179648   6.257   0.833  12.240 -0.7010  0.6187  1.1521
19411TIP3    H279649   6.314   0.693  12.228 -1.0541  0.5699 -0.1308
19412TIP3   OH279650   4.463   0.249   0.590 -0.3382 -0.2202 -0.4361
19412TIP3    H179651   4.514   0.326   0.617 -1.0972 -0.1192  0.8197
19412TIP3    H279652   4.513   0.174   0.622 -0.6153 -0.1455  0.2036
19413TIP3   OH279653   3.152   3.003  16.501 -0.2062  0.0511  0.5216
19413TIP3    H179654   3.082   3.057  16.536 -1.0418 -1.2694  0.9328
19413TIP3    H279655   3.192   3.058  16.433 -3.0124  0.0793 -1.2561
19414TIP3   OH279656   5.805   2.848  14.760  0.6702 -0.1272 -0.7761
19414TIP3    H179657   5.772   2.771  14.713  0.5748 -0.1932 -0.6009
19414TIP3    H279658   5.893   2.823  14.788 -0.6675 -1.5988  2.5305
19415TIP3   OH279659   2.270   2.208   2.828 -0.1134 -0.4316  0.2729
19415TIP3    H179660   2.269   2.115   2.806  2.1963 -0.2896 -0.7544
19415TIP3    H279661   2.229   2.251   2.753  0.4140 -0.5312 -0.0831
19416TIP3   OH279662   5.330   3.117   0.616 -0.5747 -0.6074 -0.0535
19416TIP3    H179663   5.253   3.141   0.565  0.5297  0.3858 -1.3201
19416TIP3    H279664   5.398   3.180   0.589  0.7831 -1.6625  0.7550
19417TIP3   OH279665   6.445   2.541   0.072 -0.0806 -0.0449  0.4157
19417TIP3    H179666   6.403   2.493   0.001  1.2826  0.1770 -0.5775
19417TIP3    H279667   6.526   2.575   0.034  1.0993 -0.5918  2.2860
19418TIP3   OH279668   1.623   5.759  11.830 -0.0982  0.1075 -0.2401
19418TIP3    H179669   1.563   5.714  11.890 -0.3259  0.8831  0.1196
19418TIP3    H279670   1.606   5.852  11.843  0.3071  0.3071 -1.0451
19419TIP3   OH279671   1.338   6.339  12.967  0.4269  0.1201  0.1894
19419TIP3    H179672   1.353   6.275  12.897 -2.2890 -0.4456  0.0327
19419TIP3    H279673   1.302   6.289  13.039  0.1531  1.1903  0.8240
19420TIP3   OH279674   5.162   5.529  13.968 -0.0912 -0.1799 -0.3487
19420TIP3    H179675   5.077   5.567  13.948 -0.4798  0.6232  2.4435
19420TIP3    H279676   5.145   5.435  13.978 -0.1750 -0.3590 -1.9710
19421TIP3   OH279677   4.671   4.856   0.728 -0.4885 -0.2756 -0.4253
19421TIP3    H179678   4.643   4.764   0.727 -2.9975  0.3567  1.5912
19421TIP3    H279679   4.626   4.894   0.803  3.1219  1.8809  0.8979
19422TIP3   OH279680   3.211   2.128   5.343 -0.1077  0.4303 -0.1487
19422TIP3    H179681   3.249   2.053   5.390  2.8721  1.5171 -0.6147
19422TIP3    H279682   3.239   2.115   5.252 -0.1939  1.7253 -0.3710
19423TIP3   OH279683   4.815   2.894   1.357  0.4431  0.1243  0.3929
19423TIP3    H179684   4.788   2.967   1.301  1.6368  0.2400 -0.0602
19423TIP3    H279685   4.891   2.857   1.313  0.9589 -0.2514  1.5593
19424TIP3   OH279686   5.254   0.859  12.301 -0.1513 -0.2271  0.1466
19424TIP3    H179687   5.248   0.925  12.232 -2.3861 -1.7601 -1.2824
19424TIP3    H279688   5.264   0.909  12.382 -1.9816  1.8965 -0.8314
19425TIP3   OH279689   2.642   3.479   0.359  0.0864  0.3624 -0.6843
19425TIP3    H179690   2.642   3.550   0.423 -2.0503 -1.0381  0.9927
19425TIP3    H279691   2.705   3.415   0.393  1.2526  0.9278 -1.6711
19426TIP3   OH279692   1.116   6.112  17.206 -0.2830 -0.5251 -0.1916
19426TIP3    H179693   1.057   6.093  17.133 -0.8746 -1.1045  0.4236
19426TIP3    H279694   1.115   6.032  17.259  1.1886 -0.6243 -0.2458
19427TIP3   OH279695   1.463   6.540   5.145  0.1359 -0.3991  0.1700
19427TIP3    H179696   1.551   6.536   5.182 -0.2402 -1.9711  0.9555
19427TIP3    H279697   1.476   6.522   5.052  0.9640  2.5441 -0.3823
19428TIP3   OH279698   4.979   6.546  13.513 -0.2199 -0.5537 -0.3122
19428TIP3    H179699   4.975   6.640  13.530 -1.4545 -0.9194  1.9079
19428TIP3    H279700   5.073   6.526  13.509  0.0774  0.6009  0.3546
19429TIP3   OH279701   4.915   3.981   5.197  0.1272 -0.6172 -0.2107
19429TIP3    H179702   4.887   3.982   5.289 -0.4816 -0.7694 -0.3912
19429TIP3    H279703   4.886   4.065   5.162 -0.1831 -0.8115 -0.4222
19430TIP3   OH279704   1.230   6.389   2.612 -0.3924 -0.3303 -0.2484
19430TIP3    H179705   1.153   6.332   2.612 -1.4578  0.9878 -1.8898
19430TIP3    H279706   1.234   6.424   2.523 -0.0278  2.4007  0.7331
19431TIP3   OH279707   6.365   2.024   3.467 -0.1885 -0.1834  0.4609
19431TIP3    H179708   6.361   1.991   3.377 -0.3102  0.2661  0.2994
19431TIP3    H279709   6.355   2.119   3.458  2.4659  0.2190  0.6841
19432TIP3   OH279710   2.278   0.949  12.803  0.4269  0.4889  0.1438
19432TIP3    H179711   2.366   0.961  12.768  0.4463  0.5893  0.2258
19432TIP3    H279712   2.240   0.879  12.750 -0.1328  1.7364 -1.1952
19433TIP3   OH279713   3.781   1.885   4.745 -0.1175 -0.3462  0.0783
19433TIP3    H179714   3.802   1.890   4.651 -0.4199 -0.4486  0.0039
19433TIP3    H279715   3.748   1.796   4.757  0.5807 -0.5642  0.4251
19434TIP3   OH279716   1.255   0.814   1.191 -0.1594 -0.1717  0.2127
19434TIP3    H179717   1.266   0.888   1.251  0.3742  0.6464 -0.8527
19434TIP3    H279718   1.339   0.767   1.195 -1.6505 -2.9696  3.6673
19435TIP3   OH279719   2.464   5.165   0.902 -0.3857 -0.5763  0.2027
19435TIP3    H179720   2.377   5.147   0.938 -0.7585 -0.8633 -0.7972
19435TIP3    H279721   2.478   5.094   0.839 -0.1483  0.3996 -0.8693
19436TIP3   OH279722   6.271   3.496   5.390 -0.7135  0.4316 -0.0887
19436TIP3    H179723   6.345   3.446   5.425 -0.4628 -0.1210 -1.3532
19436TIP3    H279724   6.269   3.576   5.443 -0.6906 -0.5900  1.5211
19437TIP3   OH279725   0.981   4.420  17.033 -0.5091 -0.4716 -0.0318
19437TIP3    H179726   1.005   4.489  17.096 -1.2977  0.4968 -0.7626
19437TIP3    H279727   1.017   4.451  16.950  1.9301 -2.4935  0.1417
19438TIP3   OH279728   5.407   2.942  17.323  0.3889 -0.2479 -0.8508
19438TIP3    H179729   5.457   2.949  17.242 -0.9979  0.8321 -1.6735
19438TIP3    H279730   5.373   2.853  17.324  1.2481 -0.5776 -0.9323
19439TIP3   OH279731   1.147   0.923   4.706 -0.0048  0.1352 -0.0112
19439TIP3    H179732   1.116   0.994   4.649  0.7992  1.1201  0.7434
19439TIP3    H279733   1.102   0.937   4.789 -0.1922 -0.5269  0.0040
19440TIP3   OH279734   2.370   3.846  16.248  0.1017  0.3321 -0.0140
19440TIP3    H179735   2.288   3.811  16.280  0.8945 -1.8983 -0.2182
19440TIP3    H279736   2.367   3.939  16.269 -0.7927 -0.3567  3.5657
19441TIP3   OH279737   3.566   5.827  13.570  0.0148  0.3843 -0.3226
19441TIP3    H179738   3.535   5.815  13.480 -0.4194  0.2225 -0.1579
19441TIP3    H279739   3.581   5.921  13.579 -0.4809  0.4759 -0.3990
19442TIP3   OH279740   0.640   2.179  11.083  0.0749  0.3707  0.6456
19442TIP3    H179741   0.616   2.091  11.113 -1.0451  0.5352  0.2751
19442TIP3    H279742   0.556   2.223  11.071  0.6361  1.8254  1.7770
19443TIP3   OH279743   5.743   5.930   4.474  0.6381  0.2936  0.7701
19443TIP3    H179744   5.754   5.901   4.564  2.2245  0.1469  0.5591
19443TIP3    H279745   5.786   6.015   4.471  1.2956 -0.0629 -0.0353
19444TIP3   OH279746   4.519   1.857  13.713 -0.4313  0.2750  0.4371
19444TIP3    H179747   4.507   1.762  13.715  2.3116 -0.1957 -0.6863
19444TIP3    H279748   4.511   1.880  13.620 -0.1292  0.9902  0.5846
19445TIP3   OH279749   5.261   5.481  12.448  0.1926 -0.1265  0.5464
19445TIP3    H179750   5.180   5.473  12.397 -0.0830  1.3392  0.7027
19445TIP3    H279751   5.287   5.391  12.466  0.0347 -0.7007 -1.7669
19446TIP3   OH279752   4.046   6.628   0.217  0.7286 -0.7854 -0.4648
19446TIP3    H179753   4.005   6.561   0.272  0.0647  0.1668  0.2183
19446TIP3    H279754   3.985   6.640   0.144 -1.7434  2.5419  1.8748
19447TIP3   OH279755   2.083   0.415  15.509  0.2305 -0.0622  0.0726
19447TIP3    H179756   2.125   0.386  15.428 -0.1324  0.4053 -0.2893
19447TIP3    H279757   1.995   0.440  15.483 -0.5670 -1.7607  0.9515
19448TIP3   OH279758   3.211   0.512  16.141  0.8909 -0.2126  0.3605
19448TIP3    H179759   3.292   0.483  16.183  0.9053 -0.8837 -0.1131
19448TIP3    H279760   3.170   0.571  16.205  1.9252  0.4153  0.4524
19449TIP3   OH279761   2.130   3.002  13.887  0.4968 -0.6090  0.5845
19449TIP3    H179762   2.085   3.087  13.883  0.0915 -0.7614  1.7308
19449TIP3    H279763   2.206   3.018  13.943  0.7788 -0.8529  0.2792
19450TIP3   OH279764   6.158   3.605  11.511 -0.5770  0.0318  0.9918
19450TIP3    H179765   6.179   3.673  11.576  0.4576  2.1816 -1.4089
19450TIP3    H279766   6.063   3.612  11.500 -0.3179  2.7011 -0.6565
19451TIP3   OH279767   0.495   0.744   0.503 -0.0032 -0.4073  0.2950
19451TIP3    H179768   0.401   0.733   0.520  0.2056 -0.7453  1.2856
19451TIP3    H279769   0.500   0.760   0.409 -1.1781  0.9499  0.4179
19452TIP3   OH279770   6.129   6.305  12.221 -0.2192 -0.4087  0.0351
19452TIP3    H179771   6.221   6.298  12.245  0.4916 -0.3183 -2.3484
19452TIP3    H279772   6.081   6.304  12.304  1.8819 -0.9840  1.2953
19453TIP3   OH279773   1.039   2.689   0.328  0.2068  0.0347 -0.1558
19453TIP3    H179774   1.124   2.680   0.284 -0.2301 -0.4471 -0.9409
19453TIP3    H279775   0.988   2.614   0.296 -0.1876 -0.2400  1.0743
19454TIP3   OH279776   3.463   0.417  15.041  0.6756 -0.0252 -0.3959
19454TIP3    H179777   3.491   0.329  15.064  1.1251 -0.2235 -1.6289
19454TIP3    H279778   3.368   0.409  15.026  0.3763  0.1049  1.2493
19455TIP3   OH279779   1.115   3.343  16.104 -0.1560  0.3128 -0.1561
19455TIP3    H179780   1.175   3.358  16.177 -0.3833  0.5536 -0.0140
19455TIP3    H279781   1.060   3.421  16.103 -2.3399 -1.0668  1.5317
19456TIP3   OH279782   3.984   5.005  12.991 -0.4650  0.2229  0.2785
19456TIP3    H179783   3.919   5.075  12.996 -1.1444 -0.1873 -1.8198
19456TIP3    H279784   3.952   4.938  13.051 -1.0633  0.7367  0.5451
19457TIP3   OH279785   1.087   0.660   3.504 -0.0354 -0.2562 -0.0090
19457TIP3    H179786   1.024   0.628   3.569 -1.3154  0.3641 -0.9107
19457TIP3    H279787   1.042   0.651   3.420  2.3184 -2.9948 -1.1399
19458TIP3   OH279788   1.331   1.806  14.347  0.5363 -0.3693 -0.0407
19458TIP3    H179789   1.277   1.877  14.311  0.5373  0.8718  2.2332
19458TIP3    H279790   1.269   1.750  14.393  0.7861 -0.7846 -0.2054
19459TIP3   OH279791   2.763   1.660   3.811  0.2284  0.1983 -0.6006
19459TIP3    H179792   2.790   1.730   3.752  0.7209 -1.1261 -2.0030
19459TIP3    H279793   2.669   1.670   3.820  0.3367  1.2393 -0.4752
19460TIP3   OH279794   2.583   0.524   1.343 -0.9952 -0.3906  0.1557
19460TIP3    H179795   2.513   0.483   1.395 -0.0684 -2.0913  0.1449
19460TIP3    H279796   2.633   0.450   1.309  0.0472  0.7693 -0.9055
19461TIP3   OH279797   5.146   2.603  16.700 -0.3717  0.6643 -0.0521
19461TIP3    H179798   5.122   2.557  16.780  2.1819 -1.1180 -0.2120
19461TIP3    H279799   5.064   2.643  16.670 -2.3566 -2.2024  1.1157
19462TIP3   OH279800   6.716   0.344  11.370 -0.3143 -0.4468  0.8970
19462TIP3    H179801   6.731   0.328  11.277 -0.8763  1.6484  0.3814
19462TIP3    H279802   6.804   0.352  11.408 -0.0866 -1.1804  0.5290
19463TIP3   OH279803   3.147   1.151  14.523 -0.4988  0.2162 -0.4092
19463TIP3    H179804   3.060   1.114  14.513 -0.1947 -0.8523  0.6108
19463TIP3    H279805   3.206   1.075  14.521  0.1198  0.5267  2.1091
19464TIP3   OH279806   0.437   3.187  16.026  0.5035 -0.3333  0.6071
19464TIP3    H179807   0.428   3.092  16.027  1.6801 -0.5035 -1.0761
19464TIP3    H279808   0.352   3.218  15.995 -0.5749 -0.6410  2.9667
19465TIP3   OH279809   3.107   3.840   1.496  0.3444 -0.0262  0.0015
19465TIP3    H179810   3.138   3.750   1.503 -0.5871 -0.2374  2.2093
19465TIP3    H279811   3.128   3.880   1.580 -0.5407  1.4011 -0.4020
19466TIP3   OH279812   5.569   4.096   1.728 -0.2772 -0.4423  0.3398
19466TIP3    H179813   5.538   4.158   1.794 -0.2052 -0.4015  0.3349
19466TIP3    H279814   5.607   4.150   1.660  1.7907 -0.5521  1.3267
19467TIP3   OH279815   1.903   1.196   3.453  0.2827  0.4538  0.0755
19467TIP3    H179816   1.934   1.274   3.407 -1.1736 -0.2876 -2.3652
19467TIP3    H279817   1.931   1.123   3.397 -1.6591 -0.5107  0.2705
19468TIP3   OH279818   2.862   4.455  15.655  0.5143  0.1302  0.2997
19468TIP3    H179819   2.908   4.460  15.572  0.4446  1.5731  0.3197
19468TIP3    H279820   2.838   4.363  15.665 -2.3840  0.3508 -2.8874
19469TIP3   OH279821   0.391   2.809   4.673 -0.6044 -0.6429 -0.0826
19469TIP3    H179822   0.358   2.861   4.746  0.9822  0.1548  0.1141
19469TIP3    H279823   0.331   2.829   4.601 -0.3446  1.1046  0.1382
19470TIP3   OH279824   3.730   5.183   1.666  0.1059 -0.1969  0.0668
19470TIP3    H179825   3.651   5.130   1.651  1.1929 -1.6621 -0.7945
19470TIP3    H279826   3.719   5.218   1.754 -0.5095 -2.2422  0.8781
19471TIP3   OH279827   0.926   5.385  11.871 -1.2162 -0.2375 -0.1749
19471TIP3    H179828   0.976   5.408  11.792  0.0310 -0.3855  0.5385
19471TIP3    H279829   0.869   5.460  11.886 -1.0370  0.0515 -0.8800
19472TIP3   OH279830   3.202   4.230  16.897 -0.4311  0.1670 -0.2820
19472TIP3    H179831   3.289   4.254  16.929 -1.0008  0.2056  1.3665
19472TIP3    H279832   3.211   4.139  16.870  0.2654  0.3612 -0.7393
19473TIP3   OH279833   0.855   0.064   2.177  0.5047 -0.2062 -0.5515
19473TIP3    H179834   0.949   0.069   2.195  0.7509 -0.9385 -1.5129
19473TIP3    H279835   0.850   0.041   2.084 -0.6143 -1.2509 -0.2616
19474TIP3   OH279836   3.475   3.804   0.476 -0.3959  0.5560 -0.7117
19474TIP3    H179837   3.521   3.881   0.511  0.3785 -0.5047  0.6948
19474TIP3    H279838   3.393   3.840   0.440  0.1741  2.0955 -0.5717
19475TIP3   OH279839   2.911   6.032  11.564 -0.0326  0.4008  0.1886
19475TIP3    H179840   2.878   6.105  11.511 -0.7225  0.9168  1.2858
19475TIP3    H279841   2.999   6.060  11.591  0.3637  0.0907 -0.7436
19476TIP3   OH279842   5.112   3.267  14.614  0.1037  0.0270  0.2850
19476TIP3    H179843   5.132   3.238  14.703 -0.9433  0.5118  0.6890
19476TIP3    H279844   5.126   3.189  14.560  1.5700 -0.0556  0.7338
19477TIP3   OH279845   4.008   6.136   1.007  0.2198  0.3412  0.1290
19477TIP3    H179846   4.095   6.121   0.971  0.2818  1.5662 -0.2655
19477TIP3    H279847   3.949   6.124   0.932  0.0727 -0.1201  0.3138
19478TIP3   OH279848   3.795   1.935   1.701  0.0978  0.8748 -0.8066
19478TIP3    H179849   3.720   1.876   1.708  1.4887 -0.7462  2.0958
19478TIP3    H279850   3.836   1.911   1.618  0.0767 -1.6577 -0.1690
19479TIP3   OH279851   6.210   4.127  14.889  0.8105  0.3296  0.0340
19479TIP3    H179852   6.275   4.171  14.944  1.9692 -0.2106 -0.8473
19479TIP3    H279853   6.184   4.193  14.825 -0.7964  1.0685  1.3708
19480TIP3   OH279854   4.480   1.352  12.731  0.0914  0.1030 -0.8451
19480TIP3    H179855   4.511   1.343  12.641 -0.7333 -2.4706 -0.9401
19480TIP3    H279856   4.428   1.433  12.730 -0.4943 -0.2514 -2.8662
19481TIP3   OH279857   5.988   4.904  16.345 -0.0565 -0.2986  0.0292
19481TIP3    H179858   5.899   4.937  16.355 -0.0062 -0.0566 -0.3255
19481TIP3    H279859   6.044   4.976  16.376  0.0178 -0.4198  0.1773
19482TIP3   OH279860   3.510   5.632  12.684  0.7127 -0.5404 -0.6276
19482TIP3    H179861   3.480   5.574  12.614  0.8339 -1.4167  0.0374
19482TIP3    H279862   3.568   5.578  12.737 -0.3127 -0.2460  0.8531
19483TIP3   OH279863   5.391   0.282  11.361 -0.2392  0.2701  0.5043
19483TIP3    H179864   5.370   0.253  11.450 -3.4779 -0.2101 -0.2845
19483TIP3    H279865   5.332   0.356  11.345  1.1132  1.1179 -0.8624
19484TIP3   OH279866   4.254   4.762  15.468  0.2951 -0.3214 -0.2464
19484TIP3    H179867   4.267   4.826  15.398  3.2707  0.7014  1.0470
19484TIP3    H279868   4.279   4.678  15.429  1.3179  0.1437 -0.6211
19485TIP3   OH279869   0.264   6.120   2.565  0.3019  0.2627 -0.1529
19485TIP3    H179870   0.349   6.103   2.524  0.5653  1.2024 -0.0207
19485TIP3    H279871   0.266   6.070   2.647  1.0882  0.9673  0.2736
19486TIP3   OH279872   4.951   6.094   1.934 -0.3967 -0.1462  0.1175
19486TIP3    H179873   4.875   6.100   1.992 -0.4102 -2.4754  0.4451
19486TIP3    H279874   4.956   6.001   1.911  2.1803 -0.0206 -0.1245
19487TIP3   OH279875   5.925   0.311  11.167  0.4579 -0.0382 -0.8852
19487TIP3    H179876   5.979   0.367  11.222 -0.9051  0.7720 -0.3268
19487TIP3    H279877   5.914   0.361  11.086  1.0645 -0.4860 -1.2496
19488TIP3   OH279878   3.099   2.565   4.789 -0.1504 -0.8636  0.0671
19488TIP3    H179879   3.095   2.531   4.878  0.1584  1.7640  1.1568
19488TIP3    H279880   3.013   2.606   4.776  0.2145 -0.2415 -0.4151
19489TIP3   OH279881   0.712   1.671  11.494 -0.1105 -0.9388 -0.2313
19489TIP3    H179882   0.806   1.686  11.485 -0.4679  0.3081 -2.7656
19489TIP3    H279883   0.675   1.758  11.507 -0.9060 -1.5070  1.7678
19490TIP3   OH279884   2.253   3.108   1.331 -0.1963 -0.4799 -0.1123
19490TIP3    H179885   2.342   3.125   1.299  0.3702 -0.4725  1.3935
19490TIP3    H279886   2.240   3.014   1.318 -0.6015 -0.2242 -1.8051
19491TIP3   OH279887   1.054   5.441  11.641 -0.3534  0.2853  0.1316
19491TIP3    H179888   1.149   5.442  11.652 -0.1642  0.7587 -1.3246
19491TIP3    H279889   1.037   5.369  11.580 -0.8203  0.8292 -0.3948
19492TIP3   OH279890   1.803   5.996  16.642 -0.1731  0.4505 -0.2308
19492TIP3    H179891   1.859   5.949  16.580 -0.1388  0.0932  0.0638
19492TIP3    H279892   1.737   6.039  16.587 -0.6022 -0.4847 -0.4735
19493TIP3   OH279893   4.405   5.076   5.080  0.1996  0.3942  0.4756
19493TIP3    H179894   4.363   5.059   5.164 -0.1197 -0.2109  0.1972
19493TIP3    H279895   4.395   5.170   5.066  0.9572  0.6398  1.4857
19494TIP3   OH279896   3.608   0.905  13.024 -0.7227  0.2278 -0.4319
19494TIP3    H179897   3.592   0.992  12.988 -0.2242  0.3510 -0.3596
19494TIP3    H279898   3.657   0.921  13.105  1.3129 -0.2001 -1.5100
19495TIP3   OH279899   6.387   3.497  11.836  0.7966  0.3129 -0.1659
19495TIP3    H179900   6.421   3.529  11.752  0.3336  1.0407 -0.0900
19495TIP3    H279901   6.321   3.432  11.812  1.5148 -0.3796 -0.3287
19496TIP3   OH279902   1.604   0.294   0.398  0.4608  0.3438  0.0543
19496TIP3    H179903   1.655   0.234   0.342 -0.9688 -0.4495 -0.4427
19496TIP3    H279904   1.661   0.309   0.474  1.0872 -1.2431 -0.0474
19497TIP3   OH279905   3.723   2.175   4.710  0.4329 -0.2620  0.3731
19497TIP3    H179906   3.800   2.193   4.655  0.3107  0.9046  0.5559
19497TIP3    H279907   3.713   2.080   4.707 -0.0535 -0.2314 -2.3344
19498TIP3   OH279908   0.117   1.599   3.573  0.1124 -0.3187 -0.2927
19498TIP3    H179909   0.067   1.533   3.621  2.1221 -1.0630  0.8547
19498TIP3    H279910   0.050   1.646   3.522 -2.4735  1.4733  4.1323
19499TIP3   OH279911   1.310   5.192  12.196  0.2863  0.0543  0.1195
19499TIP3    H179912   1.265   5.115  12.231 -0.4597  0.6812  0.5798
19499TIP3    H279913   1.276   5.265  12.248  2.0812  0.5179  0.7026
19500TIP3   OH279914   2.379   3.610   3.996  0.9516 -0.3400 -0.6680
19500TIP3    H179915   2.405   3.702   3.999 -0.3352  0.0370 -0.4482
19500TIP3    H279916   2.367   3.585   4.088  0.9082 -0.6123 -0.7446
19501TIP3   OH279917   6.578   5.356   0.095 -0.1023 -0.1956  0.3545
19501TIP3    H179918   6.577   5.275   0.146 -0.1843 -0.6977 -0.4229
19501TIP3    H279919   6.518   5.339   0.022  0.1188  0.4539  0.0149
19502TIP3   OH279920   6.073   5.437  14.629  0.4118 -0.5322 -0.0806
19502TIP3    H179921   6.020   5.372  14.674 -0.5984  0.2253 -0.1354
19502TIP3    H279922   6.009   5.500  14.595  1.3532  0.4043 -0.1523
19503TIP3   OH279923   2.814   1.494   2.373 -0.0385 -0.3169 -0.0692
19503TIP3    H179924   2.768   1.528   2.296 -0.5541  1.9239  1.1294
19503TIP3    H279925   2.746   1.455   2.427  0.1097 -0.6498 -0.1206
19504TIP3   OH279926   6.169   4.152   0.492  0.0727  0.1187 -0.4463
19504TIP3    H179927   6.257   4.170   0.459  1.1632 -2.5758  0.7106
19504TIP3    H279928   6.127   4.103   0.422 -0.7439  1.8076 -1.1897
19505TIP3   OH279929   2.194   0.711   2.310 -0.3894 -0.4947  0.0664
19505TIP3    H179930   2.118   0.715   2.251 -1.0233  1.8949  0.9606
19505TIP3    H279931   2.214   0.802   2.330  2.4668 -1.0823  0.2455
19506TIP3   OH279932   4.408   4.871  16.165  0.8860 -0.8073  0.1800
19506TIP3    H179933   4.493   4.880  16.207  0.5297 -0.9057  0.9333
19506TIP3    H279934   4.344   4.879  16.236  0.2003  0.6732 -0.5615
19507TIP3   OH279935   2.425   1.118   6.184 -0.2069  0.5390 -0.2347
19507TIP3    H179936   2.337   1.111   6.148 -0.7400  1.8826  0.7419
19507TIP3    H279937   2.416   1.090   6.275  0.4353  0.4073 -0.2070
19508TIP3   OH279938   1.412   6.251  12.242  0.2532 -0.4602 -0.0328
19508TIP3    H179939   1.421   6.158  12.226 -3.1519 -1.5484  3.0327
19508TIP3    H279940   1.427   6.292  12.157  0.9737 -3.8206 -1.6863
19509TIP3   OH279941   2.904   0.306   3.360  0.5073 -0.2638 -0.1153
19509TIP3    H179942   2.950   0.374   3.310  1.1381 -0.8429 -0.3438
19509TIP3    H279943   2.973   0.245   3.386 -0.3604 -2.5225 -2.6027
19510TIP3   OH279944   3.332   6.286   2.896  0.0236  0.6623  0.3800
19510TIP3    H179945   3.364   6.355   2.955  1.6190  1.8423 -1.7309
19510TIP3    H279946   3.244   6.313   2.872 -0.3683  0.5407  1.5989
19511TIP3   OH279947   1.818   0.863  11.258 -0.1662 -0.5396 -0.3019
19511TIP3    H179948   1.782   0.785  11.216  1.6468 -1.4699 -0.2672
19511TIP3    H279949   1.892   0.830  11.310 -0.8194  0.9056  1.6500
19512TIP3   OH279950   5.645   3.095   4.596  0.1425  0.0099 -0.1950
19512TIP3    H179951   5.625   3.172   4.650 -2.0245 -1.4688  1.2757
19512TIP3    H279952   5.615   3.021   4.648  2.0345 -1.8693 -1.6225
19513TIP3   OH279953   1.231   1.296   4.195  0.7334  0.0649 -0.0772
19513TIP3    H179954   1.147   1.329   4.227  0.0114 -0.2516 -1.5197
19513TIP3    H279955   1.240   1.210   4.236  0.2717  0.0369 -0.0271
19514TIP3   OH279956   5.834   5.106   0.865  0.3888 -0.5052  0.1880
19514TIP3    H179957   5.754   5.054   0.855 -0.2202  0.3962  0.1682
19514TIP3    H279958   5.837   5.160   0.786  1.3661 -0.9695 -0.1096
19515TIP3   OH279959   3.515   0.011   5.802  0.3111 -0.0878 -0.2287
19515TIP3    H179960   3.442   0.059   5.841  0.0647 -1.0208  0.4828
19515TIP3    H279961   3.582   0.078   5.789 -0.4133  0.6579 -0.2694
19516TIP3   OH279962   1.401   3.945   1.620 -0.1964  0.8737 -0.1510
19516TIP3    H179963   1.323   3.971   1.570  0.8803 -0.5030 -2.6747
19516TIP3    H279964   1.377   3.860   1.658 -0.8315  1.6902  1.3746
19517TIP3   OH279965   4.450   2.549   4.175 -0.4241 -0.1856 -0.4749
19517TIP3    H179966   4.356   2.545   4.191 -0.0841 -1.6869  1.6532
19517TIP3    H279967   4.489   2.546   4.262  1.6304 -1.8193 -1.3580
19518TIP3   OH279968   1.661   5.606  15.757  0.3339  0.4311  0.4638
19518TIP3    H179969   1.736   5.655  15.725  0.2976 -0.0563 -0.3836
19518TIP3    H279970   1.600   5.673  15.787  0.4384  0.8887 -0.3233
19519TIP3   OH279971   2.772   1.313   4.530  0.1432  0.1879 -0.2929
19519TIP3    H179972   2.739   1.403   4.529  1.6395  0.7947  0.9704
19519TIP3    H279973   2.694   1.260   4.546 -0.4879  1.4393  1.0536
19520TIP3   OH279974   3.264   3.968  16.804  0.4084  0.0943 -0.3915
19520TIP3    H179975   3.203   3.896  16.821  1.6540 -0.5148  1.9024
19520TIP3    H279976   3.313   3.940  16.726  0.0522 -0.9869 -0.2469
19521TIP3   OH279977   2.373   4.815  12.266 -0.0690 -0.1640 -0.1395
19521TIP3    H179978   2.315   4.740  12.254  0.3830 -0.6215  0.4306
19521TIP3    H279979   2.319   4.881  12.311 -1.1301  0.7486 -2.5788
19522TIP3   OH279980   1.495   4.795   5.054  1.0570  0.2056 -0.5236
19522TIP3    H179981   1.578   4.765   5.091  0.6276 -0.5383 -0.1472
19522TIP3    H279982   1.450   4.715   5.027  0.1557  0.5398 -0.0662
19523TIP3   OH279983   3.954   5.628   3.127 -0.1570  0.1005 -0.0880
19523TIP3    H179984   4.009   5.550   3.132 -0.6857 -0.3189 -0.6132
19523TIP3    H279985   3.985   5.685   3.197 -0.3942 -0.9990  0.9285
19524TIP3   OH279986   6.369   3.189  14.685 -0.5891 -0.3557  0.4410
19524TIP3    H179987   6.311   3.229  14.620 -0.2428 -0.8388 -0.1730
19524TIP3    H279988   6.384   3.259  14.749 -0.1820  0.4332 -0.4835
19525TIP3   OH279989   4.435   5.825  11.872  0.2255  0.4408 -0.4154
19525TIP3    H179990   4.461   5.769  11.945  0.4342 -0.1329 -0.9192
19525TIP3    H279991   4.511   5.882  11.858 -0.1083  1.0738  0.3012
19526TIP3   OH279992   4.041   0.976  14.274 -0.1782  0.5076  0.2326
19526TIP3    H179993   4.050   0.945  14.364 -0.5579  1.7743  0.7391
19526TIP3    H279994   4.066   0.901  14.220 -1.1158 -0.6793  1.3703
19527TIP3   OH279995   0.440   0.576  14.476 -0.2167  0.1233 -0.2018
19527TIP3    H179996   0.444   0.524  14.556 -3.5542 -1.3334 -0.7826
19527TIP3    H279997   0.410   0.514  14.409 -0.0777  1.8659 -1.9588
19528TIP3   OH279998   0.596   4.206  10.995 -0.2235 -0.3319 -0.2341
19528TIP3    H179999   0.650   4.175  11.068  1.0822  1.9637 -0.1393
19528TIP3    H280000   0.506   4.191  11.024  0.2858 -0.5088  1.3530
19529TIP3   OH280001   0.006   2.226  15.363 -0.2882  0.5157 -1.0129
19529TIP3    H180002  -0.070   2.169  15.348  0.3182 -0.2854 -1.0888
19529TIP3    H280003   0.023   2.219  15.457 -0.7509  1.2825 -0.8580
19530TIP3   OH280004   4.146   2.179  13.487  0.1909  0.3120  0.1342
19530TIP3    H180005   4.239   2.170  13.506  0.4656  0.1187 -1.2731
19530TIP3    H280006   4.104   2.113  13.542  0.4806  2.6101  3.4731
19531TIP3   OH280007   3.974   4.423   2.498  0.2034  0.2638  0.4074
19531TIP3    H180008   3.887   4.457   2.517  1.3083  3.0944  0.9790
19531TIP3    H280009   3.977   4.414   2.403 -0.2045  1.8977  0.2055
19532TIP3   OH280010   1.324   4.346  14.998  0.2373 -0.3028  0.5897
19532TIP3    H180011   1.317   4.321  14.906  0.2098  0.7829  0.2858
19532TIP3    H280012   1.243   4.314  15.038  0.0303 -0.3537  0.1314
19533TIP3   OH280013   1.306   5.486  17.292  0.7486 -0.0027 -0.0686
19533TIP3    H180014   1.262   5.478  17.376 -1.4608 -1.4473 -1.2762
19533TIP3    H280015   1.393   5.521  17.313  0.5964 -1.1712  2.8898
19534TIP3   OH280016   4.729   4.141  16.612 -0.1093 -0.0834  0.3519
19534TIP3    H180017   4.793   4.154  16.542  0.7634 -0.1241  1.1197
19534TIP3    H280018   4.727   4.046  16.626 -0.6456 -0.1172  0.0507
19535TIP3   OH280019   5.330   2.672  11.934 -0.1446 -0.1208  0.0053
19535TIP3    H180020   5.366   2.733  11.869 -0.2607  0.5271  0.5309
19535TIP3    H280021   5.273   2.615  11.884 -0.6643  0.7240 -0.3974
19536TIP3   OH280022   5.353   5.320   1.543  0.1552  0.0276 -0.6093
19536TIP3    H180023   5.330   5.339   1.634 -0.3552  1.1290 -0.9428
19536TIP3    H280024   5.433   5.370   1.528  0.3879 -0.3659 -0.6941
19537TIP3   OH280025   6.709   4.366  12.325 -0.3092 -0.1062  0.1170
19537TIP3    H180026   6.737   4.456  12.339 -0.3168 -0.3119  1.6884
19537TIP3    H280027   6.791   4.316  12.321 -0.1486  0.2403 -3.5137
19538TIP3   OH280028   4.036   0.916  13.100  0.1214 -0.0552 -0.3177
19538TIP3    H180029   4.026   1.003  13.138  2.9277 -0.2679  1.1196
19538TIP3    H280030   4.011   0.927  13.008 -1.9553  1.6423  0.3754
19539TIP3   OH280031   5.843   2.346   1.248  0.3348  0.3067 -0.4931
19539TIP3    H180032   5.756   2.360   1.287 -0.0035 -0.0161 -1.1226
19539TIP3    H280033   5.865   2.429   1.207  0.3865  0.4298 -0.2218
19540TIP3   OH280034   2.856   6.208   3.395  0.0146  0.0947 -0.7566
19540TIP3    H180035   2.923   6.153   3.355  0.1241 -1.1757  1.0317
19540TIP3    H280036   2.840   6.168   3.480 -1.2212  1.8212 -0.1087
19541TIP3   OH280037   3.590   1.438  11.737 -0.3679  0.2847  0.1480
19541TIP3    H180038   3.621   1.359  11.781  0.4520 -0.8834 -2.2896
19541TIP3    H280039   3.635   1.510  11.782 -1.2488 -0.5738  2.5195
19542TIP3   OH280040   4.655   4.152   2.801 -0.5694  0.3145 -0.2848
19542TIP3    H180041   4.693   4.202   2.729 -0.8998  0.2702 -0.4898
19542TIP3    H280042   4.710   4.074   2.808 -0.0193  0.7305  0.0722
19543TIP3   OH280043   1.014   4.755  15.961  0.0306 -0.2920 -0.0410
19543TIP3    H180044   1.109   4.742  15.949  0.3066 -0.1557  1.7438
19543TIP3    H280045   1.007   4.803  16.044 -1.6731 -1.6551  0.6560
19544TIP3   OH280046   5.518   4.181  16.381 -0.0021 -0.1229 -0.4798
19544TIP3    H180047   5.574   4.202  16.306  1.1641  0.2351  0.4613
19544TIP3    H280048   5.480   4.096  16.359  1.3094 -0.6213 -0.9587
19545TIP3   OH280049   2.751   3.225   4.583  0.1409  0.0135 -0.2744
19545TIP3    H180050   2.808   3.294   4.550 -0.0570 -1.0712 -3.1530
19545TIP3    H280051   2.690   3.270   4.640  0.4047  2.1431 -1.5718
19546TIP3   OH280052   4.306   2.079  16.869  0.3095 -0.2030  0.5870
19546TIP3    H180053   4.249   2.130  16.926 -2.2447 -1.7164 -0.4527
19546TIP3    H280054   4.300   1.990  16.902  2.1366 -0.4318  0.4326
19547TIP3   OH280055   1.657   2.439  14.040 -0.1140  0.6217 -0.0394
19547TIP3    H180056   1.670   2.347  14.063  0.4123  0.9911  1.2463
19547TIP3    H280057   1.721   2.456  13.971  1.3910  0.5731  1.2778
19548TIP3   OH280058   4.320   5.302   4.514 -0.3548 -0.0244  0.3347
19548TIP3    H180059   4.253   5.301   4.446 -0.8104 -0.2912  0.7836
19548TIP3    H280060   4.375   5.226   4.495  1.6219  1.7705 -1.7804
19549TIP3   OH280061   2.097   1.854   6.551 -0.2177  0.3684  0.2661
19549TIP3    H180062   2.176   1.840   6.604 -0.1360  0.3545  0.1402
19549TIP3    H280063   2.039   1.782   6.575 -0.2031  0.3940  0.3794
19550TIP3   OH280064   2.591   2.542   0.058  0.2582  0.3068 -0.3423
19550TIP3    H180065   2.658   2.480   0.030  0.1680  1.0126 -2.3373
19550TIP3    H280066   2.586   2.532   0.153  1.3172 -1.6133 -0.4470
19551TIP3   OH280067   3.793   0.841  13.223 -0.3937 -0.1550 -0.2396
19551TIP3    H180068   3.870   0.832  13.166  0.0248 -0.3245  0.3419
19551TIP3    H280069   3.828   0.880  13.303 -0.9909  0.1505 -0.1246
19552TIP3   OH280070   0.246   1.656   3.206 -0.2734  0.6416 -0.5378
19552TIP3    H180071   0.179   1.709   3.250 -0.6051  0.1943 -0.4870
19552TIP3    H280072   0.216   1.566   3.218  1.0120  0.3281  0.6346
19553TIP3   OH280073   5.148   5.806   5.736  0.5814  0.1139 -0.3273
19553TIP3    H180074   5.067   5.846   5.767  0.4603  0.4089 -1.0063
19553TIP3    H280075   5.201   5.879   5.706  1.1610 -0.0676  0.2325
19554TIP3   OH280076   0.364   0.420   6.099 -0.5975 -0.6420  0.1043
19554TIP3    H180077   0.326   0.435   6.185  0.5238 -1.4020  0.7504
19554TIP3    H280078   0.308   0.471   6.039 -0.2484  1.4985  1.4947
19555TIP3   OH280079   2.234   2.168  14.580  0.2953 -0.0759  0.0931
19555TIP3    H180080   2.312   2.206  14.540 -1.3540  2.6485 -0.7833
19555TIP3    H280081   2.232   2.204  14.668  0.0272 -0.1432  0.1150
19556TIP3   OH280082   5.121   3.286   5.032  0.6875 -0.2071 -0.1139
19556TIP3    H180083   5.175   3.335   5.093  1.2428 -0.7591 -0.1586
19556TIP3    H280084   5.084   3.215   5.083 -0.4193  0.4464  0.0419
19557TIP3   OH280085   4.269   1.299  16.431 -0.4424 -0.2961  0.1351
19557TIP3    H180086   4.207   1.335  16.367 -0.7294 -1.4813 -0.2852
19557TIP3    H280087   4.239   1.210  16.446 -1.7667  0.6022  3.7278
19558TIP3   OH280088   1.253   0.750  16.026  0.6544 -0.4070  0.1278
19558TIP3    H180089   1.308   0.677  16.054  0.2810 -1.7908 -2.3983
19558TIP3    H280090   1.169   0.710  16.004  0.3350  0.7996 -0.9939
19559TIP3   OH280091   0.105   4.640   2.681 -0.4263 -0.1488  0.6556
19559TIP3    H180092   0.199   4.640   2.666 -0.4918  0.7397  0.2288
19559TIP3    H280093   0.071   4.570   2.625 -0.1772  0.4111 -0.1975
19560TIP3   OH280094   5.651   2.295   4.397 -0.1758  0.3767 -0.1227
19560TIP3    H180095   5.686   2.384   4.394 -0.4132  0.4699 -0.1616
19560TIP3    H280096   5.728   2.239   4.389 -0.1226  0.5798 -1.1832
19561TIP3   OH280097   0.517   2.251  15.512  0.7093 -0.9230 -0.2210
19561TIP3    H180098   0.586   2.242  15.446 -0.3751 -1.0929 -1.3661
19561TIP3    H280099   0.454   2.312  15.473  0.1779 -0.8096  0.7806
19562TIP3   OH280100   5.622   5.139   3.808 -0.3876 -0.7539 -0.3235
19562TIP3    H180101   5.670   5.219   3.785  1.5768 -1.8948 -0.4031
19562TIP3    H280102   5.535   5.152   3.771 -0.1187  1.3368 -0.3343
19563TIP3   OH280103   0.597   1.715   0.785 -0.3237  0.1480 -0.2075
19563TIP3    H180104   0.611   1.630   0.743  0.2062  0.4162 -0.5786
19563TIP3    H280105   0.526   1.755   0.735  0.3947  0.5220 -0.9437
19564TIP3   OH280106   0.115   6.502  16.543  0.1426  0.8727 -0.8576
19564TIP3    H180107   0.067   6.437  16.595 -0.5522  1.3334 -0.9003
19564TIP3    H280108   0.122   6.463  16.456 -0.8137  1.1008 -1.0471
19565TIP3   OH280109   6.408   3.161   2.155  0.5775  0.3211  0.0581
19565TIP3    H180110   6.428   3.248   2.189  0.6139  0.6007 -0.6481
19565TIP3    H280111   6.338   3.175   2.091  0.1150 -0.2630  0.4210
19566TIP3   OH280112   2.471   5.111  15.987  0.0267 -0.1542 -0.0349
19566TIP3    H180113   2.397   5.124  15.927  1.0752  2.3766 -0.9466
19566TIP3    H280114   2.547   5.101  15.930  0.7175 -0.3337  0.8841
19567TIP3   OH280115   3.271   0.276  13.267  0.1341  0.0727  0.5601
19567TIP3    H180116   3.277   0.338  13.339 -2.3324  1.2586 -0.1265
19567TIP3    H280117   3.248   0.330  13.191  2.4442 -1.1455 -1.1421
19568TIP3   OH280118   3.865   6.517   2.542 -0.2413 -0.1291  0.0736
19568TIP3    H180119   3.870   6.436   2.492 -1.0090 -1.1083  1.5182
19568TIP3    H280120   3.905   6.583   2.486 -0.1607 -1.3840 -1.3829
19569TIP3   OH280121   5.726   6.364  11.270 -0.3311 -0.1718  0.3166
19569TIP3    H180122   5.740   6.375  11.176  0.4092 -0.4799  0.3788
19569TIP3    H280123   5.698   6.273  11.279 -2.5013  0.4355  0.1990
19570TIP3   OH280124   0.203   6.741  15.341 -0.0180 -0.0112  0.3993
19570TIP3    H180125   0.279   6.768  15.392  0.3874 -0.0219 -0.2012
19570TIP3    H280126   0.173   6.821  15.298 -0.1029 -0.0868  0.3157
19571TIP3   OH280127   0.411   2.702   1.180 -0.1612  0.2546  0.5801
19571TIP3    H180128   0.451   2.763   1.242 -0.9346  0.9041  0.4547
19571TIP3    H280129   0.394   2.623   1.231  0.0657  0.4508  0.9624
19572TIP3   OH280130   5.971   3.665   6.388 -0.4252 -0.6361  0.0597
19572TIP3    H180131   5.954   3.690   6.479 -0.7730 -1.6556  0.2888
19572TIP3    H280132   6.055   3.704   6.368 -1.2859  1.3772  0.1256
19573TIP3   OH280133   4.068   3.101   0.812  0.1790  0.1960  0.0027
19573TIP3    H180134   4.125   3.154   0.868  1.1855 -0.0957 -0.7027
19573TIP3    H280135   4.025   3.164   0.754  1.3527  0.2787 -0.8167
19574TIP3   OH280136   3.889   1.758   3.971 -0.0974  0.2385 -0.0604
19574TIP3    H180137   3.802   1.758   3.932  0.3383  0.0148 -1.0677
19574TIP3    H280138   3.904   1.849   3.996  0.2901  0.7861 -2.0525
19575TIP3   OH280139   2.919   3.984   1.357  0.1447 -0.3878 -0.5375
19575TIP3    H180140   2.888   3.910   1.306  0.5577 -2.1835  1.6663
19575TIP3    H280141   2.974   3.946   1.425  0.0767  1.8970  0.9364
19576TIP3   OH280142   5.003   0.089   0.284  0.0631  0.0805  0.2124
19576TIP3    H180143   5.085   0.108   0.330  0.6151 -0.1861 -0.6399
19576TIP3    H280144   5.023   0.014   0.229 -1.3058 -1.2663  1.4492
19577TIP3   OH280145   5.362   0.531  13.439  0.3610  0.1999 -0.0662
19577TIP3    H180146   5.417   0.577  13.375 -0.1967  0.7641 -0.1453
19577TIP3    H280147   5.314   0.600  13.484 -1.0230 -0.3423 -0.6743
19578TIP3   OH280148   6.462   5.634  14.098 -0.1810  0.2553  0.3177
19578TIP3    H180149   6.500   5.653  14.184  1.9470 -1.3235 -0.1991
19578TIP3    H280150   6.387   5.577  14.117  1.5315 -1.8875  1.1032
19579TIP3   OH280151   5.990   3.184   2.202 -0.2237 -0.0929  0.1949
19579TIP3    H180152   5.960   3.144   2.284 -0.9000 -0.4603 -0.2265
19579TIP3    H280153   5.917   3.239   2.174 -0.2414 -0.4531 -0.4808
19580TIP3   OH280154   4.532   4.099   3.812 -0.1049 -0.9873 -0.1324
19580TIP3    H180155   4.617   4.086   3.855 -0.4781  1.1957  1.4094
19580TIP3    H280156   4.479   4.146   3.877 -1.4360  0.4914 -2.1652
19581TIP3   OH280157   4.001   0.960  12.815 -0.1217 -0.0731  0.3363
19581TIP3    H180158   3.914   0.964  12.775  0.5033 -0.6520 -1.1697
19581TIP3    H280159   4.044   0.887  12.771  0.9339 -0.1926  1.4927
19582TIP3   OH280160   0.457   0.832  15.015 -0.1493  0.1745  0.0291
19582TIP3    H180161   0.550   0.826  15.035 -0.1531 -0.0104 -0.0010
19582TIP3    H280162   0.453   0.872  14.928 -0.0660 -0.4820 -0.2843
19583TIP3   OH280163   5.419   3.705  11.481 -0.1126 -0.0170  0.0429
19583TIP3    H180164   5.436   3.764  11.407 -0.7451  1.5250  1.0663
19583TIP3    H280165   5.326   3.685  11.476 -0.3655  0.8504  0.9147
19584TIP3   OH280166   0.265   2.564   5.345 -0.0888  0.4270 -0.4387
19584TIP3    H180167   0.213   2.612   5.281  1.1441  1.8689 -0.4099
19584TIP3    H280168   0.206   2.497   5.379 -2.0402  2.2369 -0.1331
19585TIP3   OH280169   1.046   4.450  13.891 -0.0492 -0.8316  0.1101
19585TIP3    H180170   0.994   4.530  13.900  0.5833 -0.3959 -0.0472
19585TIP3    H280171   1.078   4.433  13.980  0.7006 -0.2924 -0.0440
19586TIP3   OH280172   2.313   3.506   2.836  0.5246 -0.2965 -0.2321
19586TIP3    H180173   2.376   3.559   2.884  0.4487  1.0563 -1.5762
19586TIP3    H280174   2.366   3.436   2.797  0.7411 -0.7788  0.8639
19587TIP3   OH280175   3.783   5.666  13.622 -0.5782 -0.5297 -0.5847
19587TIP3    H180176   3.707   5.710  13.660 -0.5665 -0.7070 -0.3532
19587TIP3    H280177   3.759   5.652  13.530 -1.6228 -2.2796 -0.0954
19588TIP3   OH280178   2.913   3.919   0.850 -0.4441  0.0512  0.4317
19588TIP3    H180179   2.930   4.012   0.864  0.4048 -0.2399  1.4567
19588TIP3    H280180   2.940   3.876   0.931  0.8654 -1.2850 -0.6420
19589TIP3   OH280181   4.625   0.806  12.369  0.5076 -0.4917  0.0633
19589TIP3    H180182   4.594   0.735  12.425 -1.9356  1.1324  0.9098
19589TIP3    H280183   4.628   0.768  12.281 -3.3903 -1.0414  0.0078
19590TIP3   OH280184   1.073   4.658  12.825 -0.5719  0.1263 -0.0675
19590TIP3    H180185   1.010   4.691  12.889  0.3761  0.5715  0.6637
19590TIP3    H280186   1.142   4.724  12.823 -0.3593 -0.1058 -1.2218
19591TIP3   OH280187   6.733   3.932   4.520 -0.3436 -0.1386 -0.0505
19591TIP3    H180188   6.723   3.842   4.490 -1.1146 -0.4278  1.0254
19591TIP3    H280189   6.644   3.965   4.527 -0.0468  0.9323 -1.0523
19592TIP3   OH280190   3.096   3.382   2.913  0.3545 -0.0147 -0.9171
19592TIP3    H180191   3.003   3.402   2.901 -0.1864 -1.8850 -0.2911
19592TIP3    H280192   3.133   3.388   2.825 -1.0515 -2.1773 -1.7548
19593TIP3   OH280193   5.166   3.698   4.826 -0.0363 -0.7130  0.5056
19593TIP3    H180194   5.209   3.716   4.910  0.3333 -0.5154  0.2765
19593TIP3    H280195   5.233   3.715   4.760  0.5105 -3.4096  0.2625
19594TIP3   OH280196   6.004   3.736   5.605 -0.2831 -0.0522 -0.0514
19594TIP3    H180197   5.976   3.826   5.594  2.0535  0.5626 -1.6684
19594TIP3    H280198   5.986   3.694   5.520  0.1943 -0.6334  0.1234
19595TIP3   OH280199   1.468   6.446   4.882 -0.6549 -0.4138 -0.0119
19595TIP3    H180200   1.373   6.455   4.884 -0.6181  1.1928 -2.0061
19595TIP3    H280201   1.485   6.390   4.806 -0.0187 -0.9867  0.5506
19596TIP3   OH280202   2.456   3.546  12.789 -0.2821  0.1681 -0.1912
19596TIP3    H180203   2.449   3.473  12.727 -0.0556 -0.1482  0.1545
19596TIP3    H280204   2.430   3.509  12.873  0.6411  0.2701  0.1471
19597TIP3   OH280205   1.561   3.844  11.682 -0.0950  0.0897 -0.3407
19597TIP3    H180206   1.486   3.892  11.716 -0.0850  0.6212 -1.0586
19597TIP3    H280207   1.566   3.868  11.590  0.8090 -0.1309 -0.3611
19598TIP3   OH280208   6.293   2.132   3.880 -0.4995 -0.4842  0.2054
19598TIP3    H180209   6.248   2.165   3.802 -1.3546 -1.1168  0.4244
19598TIP3    H280210   6.381   2.171   3.875 -1.0986  0.8946 -0.1479
19599TIP3   OH280211   5.460   2.538  15.895 -0.0047 -0.1272 -0.1213
19599TIP3    H180212   5.495   2.561  15.809 -0.8772  0.9031 -0.2188
19599TIP3    H280213   5.536   2.538  15.952  0.2225  2.0444 -0.3319
19600TIP3   OH280214   0.537   0.925   4.882  0.3906 -0.0344  0.1146
19600TIP3    H180215   0.533   0.876   4.964  3.6812 -2.0646 -0.7773
19600TIP3    H280216   0.524   0.859   4.814  0.0315  1.2181 -1.0898
19601TIP3   OH280217   1.601   2.740   3.817 -0.7425 -0.0818 -0.3248
19601TIP3    H180218   1.671   2.692   3.860  0.1009  0.0515 -1.4976
19601TIP3    H280219   1.627   2.832   3.824 -0.1846 -0.1020 -1.7534
19602TIP3   OH280220   3.513   1.559   3.695 -0.6863  0.8168 -0.5962
19602TIP3    H180221   3.566   1.629   3.733 -0.5614  0.6787 -0.5133
19602TIP3    H280222   3.425   1.573   3.728 -0.7574  1.2021 -0.9400
19603TIP3   OH280223   2.490   5.363   4.080  0.2083 -0.4320 -0.1006
19603TIP3    H180224   2.585   5.365   4.090  0.1561 -1.2873  0.7301
19603TIP3    H280225   2.474   5.394   3.991  1.2484 -0.0418 -0.1615
19604TIP3   OH280226   3.344   3.078  13.108  0.0161  0.0867  0.4245
19604TIP3    H180227   3.370   2.990  13.134  1.1701 -0.3598 -2.0089
19604TIP3    H280228   3.426   3.127  13.102 -0.2035  0.2945 -1.6740
19605TIP3   OH280229   5.368   6.294  15.535 -0.4424  0.1875 -0.4173
19605TIP3    H180230   5.288   6.247  15.512 -0.1901 -0.2776 -0.3534
19605TIP3    H280231   5.348   6.386  15.518 -0.5219 -0.0557 -1.7977
19606TIP3   OH280232   2.004   3.681  15.634  0.8636 -0.4668 -0.4445
19606TIP3    H180233   1.951   3.606  15.659 -3.7169  2.4195 -0.4183
19606TIP3    H280234   2.000   3.683  15.538 -0.6879  0.6833 -0.3911
19607TIP3   OH280235   3.833   4.567   3.667  0.4080  0.4821 -0.0876
19607TIP3    H180236   3.847   4.651   3.622 -0.9747  0.2001 -1.1180
19607TIP3    H280237   3.784   4.591   3.745 -1.7300  0.4945 -1.3595
19608TIP3   OH280238   1.494   6.006  11.361 -0.1694 -0.7243 -0.7594
19608TIP3    H180239   1.585   6.018  11.389  0.9180 -1.8062 -3.5616
19608TIP3    H280240   1.489   6.048  11.275 -3.0003  1.3293  0.2395
19609TIP3   OH280241   5.199   1.339  14.013 -0.4246  0.1104  0.1512
19609TIP3    H180242   5.128   1.394  14.044  0.4774  1.4933 -0.1506
19609TIP3    H280243   5.243   1.308  14.092 -0.7556  0.0619  0.3150
19610TIP3   OH280244   1.113   5.277  15.437 -0.4559  0.2877  0.5272
19610TIP3    H180245   1.066   5.354  15.404 -1.0520 -0.4788 -0.4888
19610TIP3    H280246   1.059   5.246  15.510 -0.8744  0.1432  0.1657
19611TIP3   OH280247   6.131   6.038  15.664 -0.2897  0.9208  0.2482
19611TIP3    H180248   6.091   6.122  15.640 -0.8304  1.1247  1.7676
19611TIP3    H280249   6.225   6.054  15.659 -0.3883  1.6321  0.5667
19612TIP3   OH280250   2.998   5.734   0.999  0.0270 -0.8198  0.6148
19612TIP3    H180251   2.917   5.755   1.045 -0.3762 -1.9486  0.4590
19612TIP3    H280252   2.987   5.643   0.970  0.9770 -0.7039 -0.2006
19613TIP3   OH280253   4.614   0.293  11.695  0.0393 -0.2118 -0.4512
19613TIP3    H180254   4.536   0.298  11.640 -0.4136 -3.4433 -0.2860
19613TIP3    H280255   4.685   0.323  11.638 -0.8853 -0.3229 -1.7159
19614TIP3   OH280256   2.120   2.386  14.396 -0.4530 -0.5809  0.0255
19614TIP3    H180257   2.059   2.451  14.363 -1.0962 -1.1000  0.1750
19614TIP3    H280258   2.140   2.414  14.485  0.5084  0.2719 -0.4372
19615TIP3   OH280259   1.301   4.201   1.689 -0.1755 -0.3763  0.4147
19615TIP3    H180260   1.377   4.193   1.631 -0.4592 -0.4856  0.0578
19615TIP3    H280261   1.275   4.111   1.708 -1.4040 -0.3525 -1.0310
19616TIP3   OH280262   1.437   4.697   2.891  0.4411  0.0174 -0.2002
19616TIP3    H180263   1.532   4.710   2.894  0.4084  0.1350  1.6995
19616TIP3    H280264   1.424   4.605   2.913  0.0811  0.4003  1.3283
19617TIP3   OH280265   4.386   2.300  16.069 -1.2679 -0.0788  0.0646
19617TIP3    H180266   4.411   2.318  16.160 -0.8956 -0.2554  0.0016
19617TIP3    H280267   4.295   2.328  16.063 -1.4587 -0.5572  0.6328
19618TIP3   OH280268   5.352   0.225  14.940  0.2041  0.1917  0.6254
19618TIP3    H180269   5.274   0.186  14.980  0.9845 -1.5849  0.5515
19618TIP3    H280270   5.366   0.306  14.988 -2.9133  1.7211 -0.8173
19619TIP3   OH280271   6.163   1.751  14.231 -0.4430  0.7964 -0.0142
19619TIP3    H180272   6.197   1.714  14.149 -0.4724  3.1650 -1.1531
19619TIP3    H280273   6.240   1.757  14.288 -0.3187 -0.3241 -0.0357
19620TIP3   OH280274   6.090   5.698  14.994 -0.3023  0.0795  0.3157
19620TIP3    H180275   6.079   5.621  15.051 -1.5533  0.5062  0.6925
19620TIP3    H280276   6.011   5.750  15.010  0.3130  1.2184 -0.2850
19621TIP3   OH280277   4.835   6.734  11.346 -0.3283 -0.1662  0.3820
19621TIP3    H180278   4.877   6.669  11.290 -0.2366 -0.4927  0.8313
19621TIP3    H280279   4.762   6.767  11.293  0.9020  0.9361 -0.6881
19622TIP3   OH280280   2.647   0.517   2.682  0.4057  0.1766  0.2983
19622TIP3    H180281   2.679   0.445   2.735  1.5725  0.4097 -0.0695
19622TIP3    H280282   2.562   0.487   2.650  0.4402 -0.6347  0.9385
19623TIP3   OH280283   3.978   0.520   2.195 -0.0165 -0.2398 -0.0074
19623TIP3    H180284   3.915   0.497   2.127 -0.7073 -1.8346  1.0980
19623TIP3    H280285   3.937   0.594   2.241  1.7173  2.8207 -2.9064
19624TIP3   OH280286   2.329   2.205   2.452 -0.4718  0.2285  0.4240
19624TIP3    H180287   2.350   2.298   2.442  0.0727 -0.1139 -2.4143
19624TIP3    H280288   2.392   2.173   2.516  1.1336  1.3119 -0.5323
19625TIP3   OH280289   1.341   1.273   0.369 -0.2821  0.2174 -0.4034
19625TIP3    H180290   1.427   1.244   0.398 -0.0182  0.9028 -0.5000
19625TIP3    H280291   1.351   1.366   0.349 -1.7844  1.1203  2.5514
19626TIP3   OH280292   4.787   5.215   1.472  0.1465  0.2816 -0.5653
19626TIP3    H180293   4.822   5.208   1.383 -0.6571  0.3758 -0.8914
19626TIP3    H280294   4.862   5.194   1.529  0.8298  0.8344 -1.2390
19627TIP3   OH280295   5.743   6.436  16.045 -0.4009  0.0954 -0.0538
19627TIP3    H180296   5.795   6.461  16.122  0.8647 -1.3854 -0.3684
19627TIP3    H280297   5.797   6.459  15.970 -1.3886  1.0082 -0.5140
19628TIP3   OH280298   5.467   1.398  16.329 -0.7151 -0.2362 -0.2091
19628TIP3    H180299   5.444   1.308  16.307 -0.2429 -0.9165  1.8669
19628TIP3    H280300   5.398   1.426  16.389 -0.6468  0.6855 -0.5356
19629TIP3   OH280301   5.427   5.030   1.214  0.2076  0.1402 -0.0648
19629TIP3    H180302   5.402   4.950   1.261 -0.6615  1.5048  1.9159
19629TIP3    H280303   5.347   5.083   1.212  1.2285  1.7702  0.4112
19630TIP3   OH280304   4.143   4.551   5.237  0.0274 -0.0862  0.1884
19630TIP3    H180305   4.157   4.457   5.233  0.8129  0.0497 -0.4865
19630TIP3    H280306   4.115   4.567   5.328 -0.8109 -1.0431  0.1116
19631TIP3   OH280307   5.853   5.701   0.886  0.1591 -0.0018  0.2215
19631TIP3    H180308   5.850   5.651   0.968  1.6131  0.7219  0.7491
19631TIP3    H280309   5.783   5.766   0.896 -0.7291 -0.9283  0.1817
19632TIP3   OH280310   0.184   4.116  11.498 -0.5862 -0.0361 -0.3742
19632TIP3    H180311   0.271   4.143  11.467 -0.2024 -2.0004 -1.1627
19632TIP3    H280312   0.132   4.197  11.496  1.3691  1.3314  0.7734
19633TIP3   OH280313   6.584   6.606  15.573  0.1021 -0.0003 -0.4680
19633TIP3    H180314   6.603   6.693  15.608 -0.4224 -0.9322  2.3472
19633TIP3    H280315   6.627   6.605  15.487 -0.5959  3.3015 -0.9893
19634TIP3   OH280316   2.003   6.356  16.866 -0.4342  0.0125 -0.2978
19634TIP3    H180317   1.947   6.278  16.856  0.0065 -0.6832  2.0192
19634TIP3    H280318   1.942   6.426  16.889 -0.5797 -0.2923  0.2747
19635TIP3   OH280319   4.296   1.577   3.398  0.5039  0.0729 -0.0728
19635TIP3    H180320   4.230   1.571   3.329  0.6064 -0.8269 -0.1033
19635TIP3    H280321   4.360   1.509   3.377 -0.6689 -1.8835  2.1426
19636TIP3   OH280322   5.787   6.706  16.780 -0.1471  0.1394  0.6562
19636TIP3    H180323   5.752   6.714  16.869 -1.2176  0.3401  0.2280
19636TIP3    H280324   5.865   6.652  16.790 -1.0947 -1.1176  1.5164
19637TIP3   OH280325   4.490   0.547   3.833  0.4126  0.0823  0.0573
19637TIP3    H180326   4.584   0.548   3.815  0.5514 -0.1748  0.7270
19637TIP3    H280327   4.480   0.600   3.913  0.1668 -0.9928  0.7586
19638TIP3   OH280328   3.414   4.086   5.168 -0.6365 -0.1436 -0.0695
19638TIP3    H180329   3.322   4.061   5.175 -0.6718 -0.2451 -0.7952
19638TIP3    H280330   3.419   4.138   5.088  0.2243 -1.5749 -0.9995
19639TIP3   OH280331   6.417   4.994   2.160  1.0053  0.2589 -0.3068
19639TIP3    H180332   6.402   4.994   2.255  0.9642 -1.2444 -0.2811
19639TIP3    H280333   6.511   4.983   2.151  0.9542 -0.1269 -0.4184
19640TIP3   OH280334   4.143   0.032  11.463  0.2085  0.1586 -0.2129
19640TIP3    H180335   4.171   0.019  11.553  0.7465 -3.0574 -0.7163
19640TIP3    H280336   4.219   0.006  11.411 -0.3341  1.2570 -1.6053
19641TIP3   OH280337   2.114   6.583   6.462 -0.2012  0.5343 -0.4716
19641TIP3    H180338   2.064   6.646   6.514 -0.2133 -0.3700  0.6718
19641TIP3    H280339   2.205   6.599   6.487 -0.2048  0.1164 -0.1674
19642TIP3   OH280340   1.568   2.860  12.105  0.1867 -0.3221 -0.0515
19642TIP3    H180341   1.475   2.874  12.124 -0.4778 -0.8521 -2.5160
19642TIP3    H280342   1.578   2.765  12.105  0.7020 -0.2716  0.0524
19643TIP3   OH280343   6.688   2.970   4.613  0.4748 -0.1677 -0.0938
19643TIP3    H180344   6.635   3.048   4.599  1.0579  0.6154  1.6980
19643TIP3    H280345   6.634   2.914   4.670  0.7756 -0.2629  0.1012
19644TIP3   OH280346   5.958   3.214  13.985 -0.1040  0.0586  0.1610
19644TIP3    H180347   5.874   3.168  13.980 -0.0901  0.1436 -1.1268
19644TIP3    H280348   5.953   3.265  14.066 -0.4907 -1.4671  1.1360
19645TIP3   OH280349   2.451   1.778  16.516  0.4388 -0.3849  0.7547
19645TIP3    H180350   2.503   1.858  16.520 -0.1976  0.0830  0.0508
19645TIP3    H280351   2.425   1.771  16.424 -0.3019 -0.8855  0.9941
19646TIP3   OH280352   2.984   6.090  16.259  0.4745  0.2690  0.7214
19646TIP3    H180353   2.937   6.057  16.183  1.9119 -0.4368  0.1154
19646TIP3    H280354   2.929   6.065  16.334 -0.1524 -0.4489  0.0378
19647TIP3   OH280355   6.645   3.973  16.673  0.4526  0.3317 -0.0242
19647TIP3    H180356   6.567   3.975  16.729 -0.0325  0.3056 -0.6904
19647TIP3    H280357   6.627   3.904  16.609  0.5815  0.9970 -0.7987
19648TIP3   OH280358   2.365   1.097   4.025  0.0959 -0.0085 -0.3241
19648TIP3    H180359   2.397   1.157   3.958  0.1879 -0.4233 -0.6499
19648TIP3    H280360   2.437   1.035   4.039  0.4225  0.5963  0.7960
19649TIP3   OH280361   1.970   0.836   2.767  0.3099 -0.5148 -0.0598
19649TIP3    H180362   1.922   0.754   2.752 -0.5374 -0.0950  0.3395
19649TIP3    H280363   2.045   0.830   2.708 -0.2739 -1.1354 -0.7562
19650TIP3   OH280364   5.178   2.429   5.807 -0.2545  0.1724 -0.2969
19650TIP3    H180365   5.245   2.430   5.738 -1.3638 -0.4444 -1.4292
19650TIP3    H280366   5.098   2.402   5.762 -1.2342  0.7029  1.0569
19651TIP3   OH280367   1.020   6.691  15.554 -0.2164  0.0273  0.4142
19651TIP3    H180368   0.926   6.700  15.570 -0.5111  0.3982 -1.3763
19651TIP3    H280369   1.050   6.781  15.539  0.0398 -0.2562 -0.9059
19652TIP3   OH280370   6.082   2.171  14.046  0.0223  0.3092  0.1736
19652TIP3    H180371   6.080   2.079  14.019  1.5333  0.7020 -1.4507
19652TIP3    H280372   6.111   2.168  14.137 -2.0176 -0.8907  0.8569
19653TIP3   OH280373   0.667   6.053  16.431 -0.3345  0.8989 -0.2707
19653TIP3    H180374   0.689   6.133  16.480 -0.0291 -0.7281  2.4485
19653TIP3    H280375   0.749   6.005  16.425 -0.9668 -0.3222  0.3908
19654TIP3   OH280376   6.066   3.102  16.002  0.6010 -0.3355  0.3086
19654TIP3    H180377   6.052   3.087  15.909 -0.0662  1.0099  0.1624
19654TIP3    H280378   6.159   3.090  16.015  1.0445  1.3237 -0.9396
19655TIP3   OH280379   0.008   5.941   1.920  0.3119 -0.7615 -0.1571
19655TIP3    H180380   0.031   5.878   1.988  0.1139 -0.2923  0.3516
19655TIP3    H280381  -0.037   6.012   1.966 -0.6784 -0.8795 -0.9097
19656TIP3   OH280382   4.534   0.387  13.152  0.5784 -0.2070 -0.0596
19656TIP3    H180383   4.505   0.298  13.172 -2.4008  0.8227  0.7166
19656TIP3    H280384   4.567   0.420  13.235  0.2860 -0.1150  0.0216
19657TIP3   OH280385   0.465   5.800  14.551 -0.1243  0.4702  0.0572
19657TIP3    H180386   0.420   5.878  14.583  0.5097  0.8748 -0.0193
19657TIP3    H280387   0.412   5.770  14.477 -0.0817  1.1456 -0.2523
19658TIP3   OH280388   0.308   3.085  11.265 -0.8718 -0.0006 -0.0506
19658TIP3    H180389   0.272   2.996  11.268  1.4171 -1.0870 -1.6258
19658TIP3    H280390   0.315   3.105  11.172 -0.3738  1.4189  0.2650
19659TIP3   OH280391   6.558   6.720  14.269 -0.4853 -0.0838 -0.6125
19659TIP3    H180392   6.564   6.648  14.331  1.7407 -0.3924 -1.0738
19659TIP3    H280393   6.465   6.731  14.253 -0.9858 -1.4752  1.0449
19660TIP3   OH280394   5.687   6.528   2.618 -0.7533 -0.1750  0.7804
19660TIP3    H180395   5.699   6.619   2.645 -0.6700  0.0179  0.1170
19660TIP3    H280396   5.759   6.512   2.557 -1.9007 -0.0575 -0.6500
19661TIP3   OH280397   3.825   4.730  14.930  0.0521  0.2301  0.2205
19661TIP3    H180398   3.818   4.667  15.002  2.7145  1.1130  1.3799
19661TIP3    H280399   3.805   4.815  14.971  1.0123  0.6755 -0.2091
19662TIP3   OH280400   4.838   2.938  14.582  0.0179 -0.6361 -0.2960
19662TIP3    H180401   4.925   2.974  14.599 -0.5938 -0.0249  1.8915
19662TIP3    H280402   4.783   3.015  14.566 -0.0376 -1.0524 -2.3973
19663TIP3   OH280403   4.807   6.092  16.610  0.2198 -0.4540  0.3830
19663TIP3    H180404   4.791   6.056  16.697 -1.8145 -0.8818 -0.1120
19663TIP3    H280405   4.767   6.028  16.550 -1.0749  1.2415 -0.6782
19664TIP3   OH280406   1.267   4.300  15.907  0.0289 -0.1405 -0.2888
19664TIP3    H180407   1.220   4.359  15.966  1.3504  0.9513 -0.2641
19664TIP3    H280408   1.212   4.295  15.829  0.1794  1.7061 -0.5693
19665TIP3   OH280409   3.947   2.622  12.179 -0.0118 -0.1754  0.1676
19665TIP3    H180410   3.960   2.620  12.084 -3.2049 -0.6125 -0.3594
19665TIP3    H280411   3.929   2.530  12.202  0.7683 -0.0797  1.2406
19666TIP3   OH280412   4.143   2.454  12.777 -0.0344 -0.6660 -0.0882
19666TIP3    H180413   4.134   2.549  12.772  0.8947 -0.3762  2.2842
19666TIP3    H280414   4.088   2.420  12.706 -0.8576  1.6111 -0.6006
19667TIP3   OH280415   6.599   3.468  13.715  0.4501 -0.1537  0.2033
19667TIP3    H180416   6.529   3.497  13.773 -1.5586 -1.3926 -1.4371
19667TIP3    H280417   6.584   3.516  13.633  0.5232 -1.5714 -0.6837
19668TIP3   OH280418   0.033   6.425   1.893  0.3043  0.2132 -0.7638
19668TIP3    H180419   0.079   6.365   1.834  1.5286 -2.1027  2.2345
19668TIP3    H280420  -0.059   6.399   1.888  0.4927 -0.3987 -1.1665
19669TIP3   OH280421   5.404   0.592   5.977 -0.3909 -0.9922  0.1004
19669TIP3    H180422   5.359   0.675   5.989  0.2853 -0.6993  0.6390
19669TIP3    H280423   5.334   0.526   5.978 -0.7128 -0.6578  2.1112
19670TIP3   OH280424   6.762   3.579  11.478  0.2301  0.1556 -0.3034
19670TIP3    H180425   6.797   3.668  11.470 -2.1392  1.2095  0.0427
19670TIP3    H280426   6.767   3.544  11.389  1.5806  0.4586 -0.3687
19671TIP3   OH280427   5.108   5.940   0.398 -0.2984  0.3667 -0.5418
19671TIP3    H180428   5.046   5.893   0.342  0.7458 -2.4477  0.4882
19671TIP3    H280429   5.084   5.916   0.487  1.0393  0.8593 -0.0202
19672TIP3   OH280430   1.655   1.307   2.030 -0.7647  0.2668 -0.0049
19672TIP3    H180431   1.577   1.346   2.070 -0.0312  0.7080  1.0611
19672TIP3    H280432   1.728   1.339   2.084  0.1716  0.0070 -1.0813
19673TIP3   OH280433   5.522   4.393  12.513  0.1107 -0.2914  0.5806
19673TIP3    H180434   5.505   4.302  12.538  2.7820 -0.7744  0.9694
19673TIP3    H280435   5.595   4.420  12.569 -0.8725  2.2711  0.7800
19674TIP3   OH280436   5.476   6.761   1.314  0.0550 -0.3566 -0.9496
19674TIP3    H180437   5.565   6.736   1.336 -0.7581 -1.4899  1.4158
19674TIP3    H280438   5.485   6.840   1.261  2.4246 -0.3173 -0.5837
19675TIP3   OH280439   4.670   3.493  14.934  0.3727  0.0409  0.5718
19675TIP3    H180440   4.649   3.566  14.876 -0.7031 -1.0138 -0.4155
19675TIP3    H280441   4.745   3.524  14.985  0.8618  1.2913 -0.8333
19676TIP3   OH280442   1.808   2.166  15.680  0.2618  0.4011  0.4507
19676TIP3    H180443   1.864   2.121  15.617  1.0483  1.6740  0.2057
19676TIP3    H280444   1.868   2.223  15.728 -0.2880 -0.5776  2.4334
19677TIP3   OH280445   4.187   5.040  15.470 -0.4055  0.6829  0.0519
19677TIP3    H180446   4.116   4.986  15.437 -0.3464  1.4666 -1.4993
19677TIP3    H280447   4.254   5.036  15.401  0.4758  1.0463  0.8609
19678TIP3   OH280448   4.989   1.967   2.047 -0.1835 -0.0350 -0.3425
19678TIP3    H180449   4.961   1.988   1.958 -1.5528  1.6549  0.4269
19678TIP3    H280450   5.052   2.036   2.068 -3.1221  2.3622  1.4571
19679TIP3   OH280451   3.433   3.206   3.929 -0.1050  0.0005  0.0044
19679TIP3    H180452   3.398   3.243   4.009 -0.5036  0.1116 -0.2200
19679TIP3    H280453   3.441   3.281   3.869  3.2002  0.5567  0.9423
19680TIP3   OH280454   2.717   0.714  11.708  0.8285 -0.1672 -0.0605
19680TIP3    H180455   2.630   0.680  11.727  1.3213 -0.8310  1.0694
19680TIP3    H280456   2.734   0.687  11.618 -0.4477  0.6931 -0.6019
19681TIP3   OH280457   4.097   2.033   4.366  0.1167  0.8562  0.0828
19681TIP3    H180458   4.171   2.012   4.423  0.9696 -0.1279 -1.3247
19681TIP3    H280459   4.137   2.058   4.282 -1.1292  1.0033 -0.4986
19682TIP3   OH280460   6.221   0.690   4.671 -0.6546  0.2576  0.4800
19682TIP3    H180461   6.245   0.682   4.764  0.3581 -0.0312  0.2103
19682TIP3    H280462   6.175   0.773   4.665  1.3033  1.4367  0.8650
19683TIP3   OH280463   0.722   5.942   2.547 -0.0990 -0.3450  0.4077
19683TIP3    H180464   0.766   5.881   2.607  0.0992  0.9539  1.6473
19683TIP3    H280465   0.785   5.955   2.476  0.3047 -0.7383  0.6864
19684TIP3   OH280466   4.654   0.471  13.376  0.3951  0.2275  0.1019
19684TIP3    H180467   4.687   0.381  13.373  0.2799 -0.0149  3.2397
19684TIP3    H280468   4.729   0.523  13.403  0.2001  0.9356 -0.6922
19685TIP3   OH280469   6.432   1.120   3.981  0.1892  0.4565  0.0314
19685TIP3    H180470   6.446   1.177   3.905  1.3980  1.7298  1.1498
19685TIP3    H280471   6.488   1.045   3.966  0.8983  0.9946 -0.0680
19686TIP3   OH280472   5.350   4.058  15.999 -0.0569  0.2633 -0.4848
19686TIP3    H180473   5.394   4.010  15.928  1.1278  2.5614 -1.4218
19686TIP3    H280474   5.371   4.008  16.078 -1.6005 -2.5091 -1.6931
19687TIP3   OH280475   4.473   3.913  16.556 -0.0277 -0.2256 -0.0456
19687TIP3    H180476   4.402   3.909  16.491 -0.1406 -0.5537  0.0955
19687TIP3    H280477   4.430   3.943  16.636  0.3540  1.5243 -0.4460
19688TIP3   OH280478   0.542   5.500   2.981  0.2812 -0.1676 -0.5384
19688TIP3    H180479   0.525   5.490   3.075  1.1456 -0.1907 -0.3761
19688TIP3    H280480   0.568   5.592   2.972  0.3673 -0.2114 -0.7261
19689TIP3   OH280481   2.953   6.269  13.466 -0.1970  0.8094 -0.5090
19689TIP3    H180482   2.982   6.202  13.528 -0.0889  1.3401  0.0259
19689TIP3    H280483   2.989   6.241  13.381  0.4299  0.5531 -0.1676
19690TIP3   OH280484   4.579   5.801  13.117 -0.7105 -0.4044  0.4014
19690TIP3    H180485   4.654   5.796  13.058 -0.1615 -1.3394  1.1520
19690TIP3    H280486   4.615   5.788  13.204 -1.3611  1.9832  1.1122
19691TIP3   OH280487   2.168   0.448   1.779  0.1236 -0.1349 -0.2649
19691TIP3    H180488   2.229   0.485   1.842  0.1783 -1.7209  0.6708
19691TIP3    H280489   2.099   0.513   1.770  1.2799  1.1111 -0.3557
19692TIP3   OH280490   3.257   5.415   1.604 -0.5125 -0.1947  0.4909
19692TIP3    H180491   3.309   5.494   1.588 -2.3594  0.9565 -0.2524
19692TIP3    H280492   3.169   5.449   1.622 -0.9874 -2.0388  1.9052
19693TIP3   OH280493   0.249   5.169  14.253  0.1498 -0.1494 -0.1932
19693TIP3    H180494   0.174   5.201  14.303  0.4659  0.0801  0.1383
19693TIP3    H280495   0.251   5.225  14.175 -0.0691 -0.2078 -0.2423
19694TIP3   OH280496   6.606   3.252   5.945  0.2791  0.7474 -0.2648
19694TIP3    H180497   6.550   3.175   5.936 -1.8343  2.0467  0.8632
19694TIP3    H280498   6.650   3.259   5.860 -1.0698 -0.5019 -1.1253
19695TIP3   OH280499   0.477   1.413   6.291 -0.0364 -0.0228  0.0262
19695TIP3    H180500   0.472   1.502   6.257  0.1987 -0.1313 -0.2910
19695TIP3    H280501   0.407   1.366   6.247  1.0600 -0.4837 -1.2734
19696TIP3   OH280502   4.210   4.035  15.387  0.8689  0.4783 -0.2999
19696TIP3    H180503   4.162   4.097  15.442 -0.4835  0.4878 -1.4345
19696TIP3    H280504   4.268   3.988  15.448  0.2765  1.2881  0.9220
19697TIP3   OH280505   1.472   2.660  17.167  0.6775 -0.0621 -0.3319
19697TIP3    H180506   1.416   2.736  17.147  0.3754  0.1791  1.3061
19697TIP3    H280507   1.560   2.697  17.174  0.8625 -0.2184 -1.5118
19698TIP3   OH280508   0.977   3.567  12.204 -0.4716  0.2600 -0.2037
19698TIP3    H180509   1.025   3.490  12.233 -2.4501 -0.8452  0.3485
19698TIP3    H280510   0.973   3.624  12.281  0.8556  0.8650 -0.5665
19699TIP3   OH280511   2.725   2.784  15.516  0.2244 -1.1287  0.0359
19699TIP3    H180512   2.771   2.728  15.578 -1.4806 -1.6733  0.8807
19699TIP3    H280513   2.706   2.864  15.564 -0.1645 -1.1252 -0.1135
19700TIP3   OH280514   5.069   3.643  17.293 -0.1552 -0.1302  0.5231
19700TIP3    H180515   5.115   3.627  17.375  0.8092 -1.3662 -0.2237
19700TIP3    H280516   4.988   3.593  17.301  0.0425 -0.4368  0.6342
19701TIP3   OH280517   0.632   6.679  11.845 -0.6715 -0.0978 -0.2488
19701TIP3    H180518   0.556   6.677  11.903 -0.1409  0.3161  0.4627
19701TIP3    H280519   0.672   6.592  11.854 -0.4489  0.0486  0.1995
19702TIP3   OH280520   4.963   0.952  16.569  0.2184  0.2300  0.3805
19702TIP3    H180521   4.997   1.034  16.605  0.2825  0.2509  0.2716
19702TIP3    H280522   5.020   0.884  16.606 -0.8602  0.0515  1.8519
19703TIP3   OH280523   6.772   3.917  14.198  0.4514  0.0574  0.7099
19703TIP3    H180524   6.795   3.965  14.278 -0.2046 -1.2766  1.7358
19703TIP3    H280525   6.693   3.961  14.166 -0.5218 -0.6808  2.0000
19704TIP3   OH280526   0.645   6.748   0.642 -0.3875 -0.5821 -0.2964
19704TIP3    H180527   0.591   6.795   0.579 -0.7152 -0.7611 -0.1516
19704TIP3    H280528   0.732   6.747   0.603 -0.2713  0.5226 -0.1039
19705TIP3   OH280529   1.495   3.549  13.001  0.0307 -0.5022  0.5611
19705TIP3    H180530   1.528   3.484  12.939  1.0455  0.4972  0.0009
19705TIP3    H280531   1.561   3.551  13.071 -0.5112 -0.7876  1.0876
19706TIP3   OH280532   6.717   4.194  15.586  0.3870  0.2375 -0.5477
19706TIP3    H180533   6.728   4.149  15.670  1.0844  2.0428  0.3873
19706TIP3    H280534   6.685   4.127  15.526  3.8426 -2.1747  0.0626
19707TIP3   OH280535   0.511   4.064  11.842  0.3328  0.9979  0.4240
19707TIP3    H180536   0.585   4.104  11.888  1.4429 -0.5753  0.0999
19707TIP3    H280537   0.502   3.978  11.881 -1.5147  1.2453  0.6027
19708TIP3   OH280538   2.963   0.417  14.532 -0.3721 -0.1251 -0.4504
19708TIP3    H180539   2.988   0.504  14.501 -1.6577  0.7095  0.7385
19708TIP3    H280540   3.031   0.394  14.596 -0.6331  0.4814  0.0398
19709TIP3   OH280541   2.086   2.562   5.527 -0.0969  0.3899  0.1721
19709TIP3    H180542   2.014   2.622   5.509  0.4822  1.0262 -0.0615
19709TIP3    H280543   2.165   2.612   5.507  0.3866 -0.6035 -0.4841
19710TIP3   OH280544   0.883   1.626  14.989  0.3311  0.4053 -0.6845
19710TIP3    H180545   0.946   1.634  14.918 -0.6142  1.0846 -1.4670
19710TIP3    H280546   0.859   1.533  14.989 -0.1399  0.5114 -1.6869
19711TIP3   OH280547   4.732   6.180  12.264 -0.7774  0.4894 -0.2103
19711TIP3    H180548   4.824   6.197  12.242 -0.6156 -1.8880 -1.7516
19711TIP3    H280549   4.684   6.208  12.187 -0.8092 -2.4897 -1.3938
19712TIP3   OH280550   1.655   0.720  13.155 -0.4277 -0.5465  0.3996
19712TIP3    H180551   1.692   0.787  13.098  0.2941 -0.4029  1.0203
19712TIP3    H280552   1.658   0.640  13.103  1.1698 -0.6259  0.5711
19713TIP3   OH280553   2.619   6.305  15.449 -0.2742  0.7928 -0.2508
19713TIP3    H180554   2.581   6.389  15.475 -0.0722  0.6913  0.3877
19713TIP3    H280555   2.713   6.317  15.459 -0.3280 -0.1705  1.9535
19714TIP3   OH280556   1.040   3.310  11.194  0.1669  0.2319  0.0831
19714TIP3    H180557   1.061   3.361  11.272  0.1575  0.0536  0.2013
19714TIP3    H280558   1.065   3.220  11.216  0.6364  0.2605 -0.2932
19715TIP3   OH280559   2.638   0.657  13.069  0.3616  0.5273 -0.3456
19715TIP3    H180560   2.640   0.744  13.028 -1.3383  0.8873  0.2491
19715TIP3    H280561   2.545   0.634  13.072  0.5604 -0.2298  1.7276
19716TIP3   OH280562   4.020   2.968   3.320  0.6943 -0.1618  0.0342
19716TIP3    H180563   4.087   2.922   3.271  0.9388 -0.0576  0.2718
19716TIP3    H280564   3.955   2.993   3.254  0.7878 -0.4387 -0.1622
19717TIP3   OH280565   5.409   0.475   1.283 -0.1630  0.2863 -0.2090
19717TIP3    H180566   5.439   0.533   1.353 -1.0842  1.4094 -0.7110
19717TIP3    H280567   5.453   0.392   1.301 -0.8163  0.3545  2.0430
19718TIP3   OH280568   0.693   1.007  15.137  0.3190 -0.2415 -0.2681
19718TIP3    H180569   0.758   0.974  15.199 -0.7289 -0.3953  0.7816
19718TIP3    H280570   0.734   0.995  15.051  0.9684 -1.9976  0.2372
19719TIP3   OH280571   0.426   4.167   5.630 -0.2641  0.0168  0.5081
19719TIP3    H180572   0.424   4.250   5.676  0.6747  0.3169  0.0316
19719TIP3    H280573   0.342   4.126   5.650 -1.0180  1.3610  0.2107
19720TIP3   OH280574   1.314   6.539  15.975 -0.0666  0.3894 -0.5854
19720TIP3    H180575   1.234   6.579  16.011 -1.0294 -2.6454  0.9558
19720TIP3    H280576   1.302   6.544  15.880 -0.8841  2.1673 -0.4314
19721TIP3   OH280577   2.451   0.607   4.001 -0.1691  0.0050  0.4290
19721TIP3    H180578   2.402   0.661   3.939 -0.2898 -1.4161 -0.7918
19721TIP3    H280579   2.542   0.613   3.971 -0.1109 -0.0464  0.5952
19722TIP3   OH280580   3.847   3.305  12.254 -0.3726 -0.0901  0.0941
19722TIP3    H180581   3.849   3.210  12.260 -1.6778 -0.2532 -1.2773
19722TIP3    H280582   3.809   3.322  12.168 -1.7080  1.6681  0.9748
19723TIP3   OH280583   3.111   0.680   5.731  0.5328 -0.0727 -0.3355
19723TIP3    H180584   3.119   0.591   5.695  0.8842  0.3786 -1.4019
19723TIP3    H280585   3.131   0.670   5.824 -1.5170 -1.4623  0.0211
19724TIP3   OH280586   2.764   5.297  15.942  0.2256  0.8046  0.7228
19724TIP3    H180587   2.842   5.308  15.996  0.0671  1.6610  0.7952
19724TIP3    H280588   2.788   5.229  15.879  1.8096  2.4387 -0.5924
19725TIP3   OH280589   1.468   4.090   5.703 -0.4761 -0.2580 -0.0693
19725TIP3    H180590   1.404   4.044   5.649  0.3848  0.1774 -1.5323
19725TIP3    H280591   1.533   4.023   5.726 -1.2745 -0.6323  1.1674
19726TIP3   OH280592   6.667   1.638   6.441  0.0230 -0.1081  0.5735
19726TIP3    H180593   6.588   1.648   6.387 -0.3475 -0.5917  1.0143
19726TIP3    H280594   6.671   1.719   6.492 -0.4150 -0.2471  0.8360
19727TIP3   OH280595   1.552   0.797   2.201  0.2647 -0.0828 -0.1161
19727TIP3    H180596   1.602   0.716   2.209 -0.6525 -0.5520  0.9282
19727TIP3    H280597   1.558   0.819   2.108  2.1203 -0.3009 -0.0869
19728TIP3   OH280598   0.850   5.777  17.034  0.1351 -0.4853 -0.2612
19728TIP3    H180599   0.844   5.761  17.129 -0.6618 -0.2092 -0.2525
19728TIP3    H280600   0.807   5.861  17.021  3.3055  1.2448 -0.4568
19729TIP3   OH280601   2.683   2.589   2.352  0.4309  0.1959  0.4361
19729TIP3    H180602   2.661   2.597   2.259 -1.5220 -1.0234  0.7489
19729TIP3    H280603   2.774   2.618   2.357  1.1906 -1.3695 -2.1422
19730TIP3   OH280604   5.834   3.557   0.433  1.0020 -0.4016  0.2680
19730TIP3    H180605   5.879   3.499   0.372 -0.0288 -1.6852  0.6946
19730TIP3    H280606   5.831   3.509   0.515 -0.1334  0.1271  0.5620
19731TIP3   OH280607   2.361   5.820   1.555  0.1699  0.0618  0.0491
19731TIP3    H180608   2.442   5.866   1.533 -0.0990 -0.3504 -2.0135
19731TIP3    H280609   2.300   5.889   1.578  0.2953  0.6495 -1.2633
19732TIP3   OH280610   1.402   3.385   6.060  0.2091 -0.1131 -0.1012
19732TIP3    H180611   1.494   3.407   6.074 -0.5271  2.4419  1.4286
19732TIP3    H280612   1.374   3.344   6.142  0.0051 -1.0878 -0.6395
19733TIP3   OH280613   1.605   6.352  17.269 -0.2684  0.3853 -0.4982
19733TIP3    H180614   1.557   6.293  17.212  0.4677 -0.3023 -0.4225
19733TIP3    H280615   1.605   6.309  17.355  0.4532  0.3769 -0.4921
19734TIP3   OH280616   1.116   1.575   3.189 -0.0556 -0.3874  0.0183
19734TIP3    H180617   1.054   1.522   3.139 -0.1878  0.0093 -0.2437
19734TIP3    H280618   1.121   1.532   3.274 -0.1501 -0.8286 -0.1947
19735TIP3   OH280619   1.330   3.731   1.778 -0.6922 -0.2286 -0.3491
19735TIP3    H180620   1.272   3.655   1.788  0.3111 -0.8552  0.9973
19735TIP3    H280621   1.334   3.770   1.865 -1.0662  1.3095 -0.9866
19736TIP3   OH280622   5.503   2.173   2.869 -0.0598  0.4955  0.3793
19736TIP3    H180623   5.552   2.231   2.926  0.0999  1.0436 -0.2992
19736TIP3    H280624   5.505   2.088   2.913 -0.0365  0.9346  1.2290
19737TIP3   OH280625   4.723   4.224  13.179  0.3432 -0.5279  0.5162
19737TIP3    H180626   4.742   4.132  13.200 -3.2833 -1.4354  0.5545
19737TIP3    H280627   4.686   4.259  13.259 -1.0917  0.0276 -0.3550
19738TIP3   OH280628   6.530   3.918  12.191 -0.0193  0.0154  0.0332
19738TIP3    H180629   6.461   3.965  12.239 -0.1202 -0.2813  0.1828
19738TIP3    H280630   6.483   3.851  12.142  0.1791 -0.2924  0.2610
19739TIP3   OH280631   3.581   6.651  10.935  0.1793 -0.2568 -0.5360
19739TIP3    H180632   3.538   6.684  11.013  2.4226 -1.1735  1.1993
19739TIP3    H280633   3.511   6.642  10.870 -1.9064 -0.2190  1.5988
19740TIP3   OH280634   1.568   6.689  15.879 -0.0991 -0.3653  0.4941
19740TIP3    H180635   1.529   6.679  15.966  0.2019 -0.3229  0.6373
19740TIP3    H280636   1.536   6.774  15.848  0.7825  0.2076  1.0923
19741TIP3   OH280637   5.139   1.039  11.699  0.0875 -0.2425 -0.2393
19741TIP3    H180638   5.049   1.008  11.702 -0.2121  0.6151  2.7199
19741TIP3    H280639   5.133   1.132  11.723  1.8489 -0.5942  1.8708
19742TIP3   OH280640   1.075   5.195   0.278  0.2518  0.5849  0.0162
19742TIP3    H180641   1.150   5.254   0.278  1.5403 -0.9595  1.3639
19742TIP3    H280642   1.106   5.116   0.233 -0.1416 -0.5106  1.5579
19743TIP3   OH280643   1.508   5.839  16.542  0.3798  0.1217 -0.3928
19743TIP3    H180644   1.479   5.844  16.633  0.6176 -0.3640 -0.2852
19743TIP3    H280645   1.437   5.792  16.497  0.2196  0.4445 -0.4755
19744TIP3   OH280646   4.293   2.179   5.559  0.1208 -0.7322  0.0603
19744TIP3    H180647   4.251   2.109   5.508 -0.5380 -0.1596 -0.1965
19744TIP3    H280648   4.223   2.242   5.575  0.7787  0.0116  0.0383
19745TIP3   OH280649   3.967   3.103   2.277  0.3336  0.2264 -0.6070
19745TIP3    H180650   3.898   3.049   2.238  0.7459 -0.0708 -0.9317
19745TIP3    H280651   4.015   3.139   2.203  1.3612 -0.6510 -0.3842
19746TIP3   OH280652   1.187   0.522   2.423  0.2472  0.2084 -0.2981
19746TIP3    H180653   1.196   0.600   2.369  1.8166  1.0175  1.0396
19746TIP3    H280654   1.244   0.538   2.498 -0.7985 -1.4481  0.9246
19747TIP3   OH280655   2.447   2.311   4.562  0.3423 -0.5202  0.1304
19747TIP3    H180656   2.522   2.337   4.615  0.7360  1.2961 -1.2350
19747TIP3    H280657   2.375   2.365   4.594  0.0003 -1.1009  0.3581
19748TIP3   OH280658   1.818   2.494   1.536 -0.2141  0.2724 -0.5625
19748TIP3    H180659   1.822   2.430   1.607 -0.9733 -0.3135 -1.0337
19748TIP3    H280660   1.859   2.451   1.461 -0.2699  0.5202 -0.7384
19749TIP3   OH280661   5.858   3.054  15.460  0.6801  0.2043 -0.0333
19749TIP3    H180662   5.819   3.003  15.389 -0.0008 -0.6967  0.9590
19749TIP3    H280663   5.794   3.122  15.480  0.3044 -0.2984  0.5236
19750TIP3   OH280664   5.888   2.501   4.631  0.3815  0.4072  0.1771
19750TIP3    H180665   5.826   2.495   4.704 -0.1599  1.0547 -0.2129
19750TIP3    H280666   5.920   2.591   4.635  1.2742  0.0857  0.3493
19751TIP3   OH280667   5.094   2.338  12.483 -0.0012 -0.2464  0.3435
19751TIP3    H180668   5.085   2.385  12.400 -2.9383 -0.5181  0.4159
19751TIP3    H280669   5.005   2.323  12.512  0.9096  0.7042  4.1174
19752TIP3   OH280670   2.953   5.590  16.902 -0.7369  0.0894 -0.1773
19752TIP3    H180671   2.903   5.565  16.980 -0.9660  2.0080  0.3275
19752TIP3    H280672   2.896   5.568  16.829 -1.0252 -0.5960  0.2376
19753TIP3   OH280673   4.636   0.853   5.154 -0.2000  0.7303 -0.4145
19753TIP3    H180674   4.693   0.778   5.137  0.5175  0.9586  0.8589
19753TIP3    H280675   4.565   0.817   5.207 -0.2013  0.8188 -0.3553
19754TIP3   OH280676   6.369   6.543  12.426 -0.4933  0.1432  0.1850
19754TIP3    H180677   6.328   6.608  12.483 -1.1348 -1.4805  1.6989
19754TIP3    H280678   6.417   6.594  12.361 -2.5510  2.1136  0.0987
19755TIP3   OH280679   6.324   1.447  14.757 -0.2541 -0.0821 -0.3202
19755TIP3    H180680   6.262   1.381  14.726  1.4567 -1.0091 -1.9970
19755TIP3    H280681   6.333   1.508  14.683  1.2957 -0.3388 -0.3747
19756TIP3   OH280682   2.286   4.734  13.205  0.1727 -0.3998 -0.4683
19756TIP3    H180683   2.366   4.719  13.155  0.3500  0.8696 -0.6109
19756TIP3    H280684   2.316   4.754  13.294  0.0659  0.5956 -0.6430
19757TIP3   OH280685   1.657   3.808   4.478 -0.1597  0.5787 -0.1619
19757TIP3    H180686   1.594   3.737   4.465 -0.6051  0.8932  0.2430
19757TIP3    H280687   1.711   3.807   4.399  0.5665 -0.9262  0.3285
19758TIP3   OH280688   3.081   3.349  15.535 -0.4761  1.0089 -0.1030
19758TIP3    H180689   3.144   3.382  15.600 -0.7504 -0.0751  0.7378
19758TIP3    H280690   2.997   3.351  15.580 -0.5529 -0.4929 -0.1278
19759TIP3   OH280691   6.170   2.851  16.554  0.3578 -0.3665 -0.3570
19759TIP3    H180692   6.167   2.761  16.522  1.2397 -0.3381 -0.5418
19759TIP3    H280693   6.257   2.860  16.593  0.2426  0.3782 -0.2496
19760TIP3   OH280694   4.013   2.175  12.730  0.1168 -0.0910 -0.0512
19760TIP3    H180695   4.001   2.083  12.754  0.8353 -0.3432 -0.5994
19760TIP3    H280696   4.019   2.221  12.813  2.0822 -0.8827  0.3148
19761TIP3   OH280697   5.204   5.635  15.687 -0.2164 -0.4296 -0.1884
19761TIP3    H180698   5.174   5.707  15.743 -0.6819 -1.1483  0.5033
19761TIP3    H280699   5.269   5.589  15.740  1.0031  0.1864 -1.0902
19762TIP3   OH280700   5.643   2.370   0.078 -0.2673 -0.3773 -0.2777
19762TIP3    H180701   5.592   2.431   0.132 -2.0251 -0.3088 -1.9067
19762TIP3    H280702   5.734   2.390   0.100 -0.8604 -0.3367  2.5790
19763TIP3   OH280703   2.259   3.196  14.846  0.7599 -0.5920 -0.0885
19763TIP3    H180704   2.291   3.231  14.929  0.8699 -2.1020  0.5480
19763TIP3    H280705   2.203   3.264  14.811  1.0688  0.2604  1.0095
19764TIP3   OH280706   5.883   6.184  16.370 -0.5915 -0.0806  0.2248
19764TIP3    H180707   5.845   6.234  16.442 -0.7961 -0.5873  0.4757
19764TIP3    H280708   5.924   6.249  16.314 -0.5583  0.3328  0.7249
19765TIP3   OH280709   2.637   2.219  12.409  0.2049  0.1617 -0.5570
19765TIP3    H180710   2.620   2.129  12.382  0.3493  0.5703 -2.1037
19765TIP3    H280711   2.714   2.245  12.358  0.4676  1.0049  0.2423
19766TIP3   OH280712   2.541   2.733   5.283 -0.0575  0.1213  0.1901
19766TIP3    H180713   2.491   2.787   5.223 -0.7031  0.5272  1.0678
19766TIP3    H280714   2.586   2.795   5.340 -1.3832 -0.2139  1.6806
19767TIP3   OH280715   3.703   1.500   0.924  0.4406 -0.2141 -0.4418
19767TIP3    H180716   3.696   1.521   1.017 -0.6295 -1.4275 -0.2191
19767TIP3    H280717   3.637   1.554   0.881 -1.0308 -1.6742 -0.1063
19768TIP3   OH280718   3.787   6.701  14.012  0.2359  0.1555  0.4315
19768TIP3    H180719   3.814   6.790  13.987 -1.1998  1.1390  2.1235
19768TIP3    H280720   3.693   6.698  13.993  0.2864 -1.0304  0.3265
19769TIP3   OH280721   2.121   4.325  14.107  0.6688 -0.0739  0.1513
19769TIP3    H180722   2.177   4.372  14.045 -0.3520  1.4595  0.3290
19769TIP3    H280723   2.033   4.331  14.070  0.3865 -1.1727  0.5998
19770TIP3   OH280724   2.078   5.296  11.789  0.2278  0.1705  0.1799
19770TIP3    H180725   2.045   5.242  11.861  2.6352  0.9891  2.0509
19770TIP3    H280726   2.068   5.386  11.820 -0.0551  0.6259 -1.1709
19771TIP3   OH280727   0.406   0.344  16.521  0.1969 -0.5912 -0.3252
19771TIP3    H180728   0.394   0.322  16.428 -0.1487  0.3717 -0.5214
19771TIP3    H280729   0.449   0.429  16.520 -1.0360  0.0577  0.3854
19772TIP3   OH280730   6.301   0.620  15.818 -0.0397  0.6325  0.2948
19772TIP3    H180731   6.345   0.599  15.901 -0.9020  0.2766  0.6732
19772TIP3    H280732   6.209   0.630  15.842 -0.1729  1.3939 -0.4814
19773TIP3   OH280733   2.779   4.796  12.524 -0.2176  0.1640 -0.4435
19773TIP3    H180734   2.868   4.828  12.541 -0.6240  1.2204 -0.2272
19773TIP3    H280735   2.786   4.750  12.441  0.2628  1.4314 -1.1321
19774TIP3   OH280736   2.233   1.020   5.886 -0.1145  0.1081  0.3308
19774TIP3    H180737   2.310   0.971   5.912  3.4116  4.2951 -1.0307
19774TIP3    H280738   2.194   1.051   5.968  1.9562  0.9408  1.0507
19775TIP3   OH280739   2.825   0.720   5.736 -0.2044 -0.6196  0.3092
19775TIP3    H180740   2.788   0.676   5.812  0.9056 -1.8335  0.1814
19775TIP3    H280741   2.910   0.679   5.724 -0.5697 -0.8210 -1.9075
19776TIP3   OH280742   4.341   6.123  12.409  0.6769 -0.0876  0.0666
19776TIP3    H180743   4.316   6.035  12.381 -0.7468  0.0857  0.6853
19776TIP3    H280744   4.284   6.141  12.485  1.8100  0.8800  0.7222
19777TIP3   OH280745   6.461   5.833  15.878 -0.6602 -0.1166 -0.5300
19777TIP3    H180746   6.414   5.750  15.890 -0.8491  0.2428  1.6070
19777TIP3    H280747   6.442   5.883  15.957 -2.4634  2.9921 -2.6944
19778TIP3   OH280748   2.701   0.888   2.655 -0.0755 -0.0458 -0.0062
19778TIP3    H180749   2.769   0.822   2.664 -0.0015  0.0345  0.0348
19778TIP3    H280750   2.730   0.959   2.713 -0.0655  0.0939 -0.1824
19779TIP3   OH280751   2.489   3.064   5.375  0.2273 -0.4728 -0.3469
19779TIP3    H180752   2.463   3.063   5.467 -0.8717  0.8171 -0.6050
19779TIP3    H280753   2.573   3.020   5.373 -0.2925 -1.6101  1.0930
19780TIP3   OH280754   5.197   0.059   3.353 -0.4658  0.1783  0.3902
19780TIP3    H180755   5.188   0.135   3.410  3.4066 -0.7406  2.6250
19780TIP3    H280756   5.290   0.056   3.332 -0.2854 -4.1143  0.8070
19781TIP3   OH280757   2.084   2.008   1.698  0.3970 -0.0943  0.0599
19781TIP3    H180758   2.152   1.941   1.697  0.2064 -0.3025  0.6368
19781TIP3    H280759   2.039   1.996   1.782  0.2068  0.6029  0.0654
19782TIP3   OH280760   5.512   2.050   2.074 -0.1772 -0.8256  0.5599
19782TIP3    H180761   5.441   1.996   2.108 -1.1405 -0.4491 -0.7526
19782TIP3    H280762   5.541   2.003   1.995  0.6240 -0.6536  0.7450
19783TIP3   OH280763   5.776   6.555   1.809  0.3949  0.2962  0.1583
19783TIP3    H180764   5.750   6.642   1.780 -1.8246  0.7064  2.9305
19783TIP3    H280765   5.826   6.571   1.890  0.5681 -0.9656  0.3190
19784TIP3   OH280766   0.893   3.619   0.812  0.1435  0.3822  0.2375
19784TIP3    H180767   0.858   3.706   0.793  0.8099  0.7416  0.6005
19784TIP3    H280768   0.907   3.580   0.726  1.4742  1.3159 -0.0114
19785TIP3   OH280769   3.099   2.834   6.616 -0.0519 -0.4789 -0.3563
19785TIP3    H180770   3.116   2.794   6.531 -0.5609  0.7912 -1.0825
19785TIP3    H280771   3.183   2.871   6.643  0.2480 -1.3844 -0.0190
19786TIP3   OH280772   6.348   3.841  12.467  0.0120 -0.4515 -0.1870
19786TIP3    H180773   6.254   3.830  12.458 -0.0904 -0.5604  0.8347
19786TIP3    H280774   6.359   3.931  12.497  0.2382 -0.3922 -0.4485
19787TIP3   OH280775   2.301   2.204   6.191  0.5321  0.9807  0.0348
19787TIP3    H180776   2.254   2.196   6.108  2.9091  0.2422 -1.3172
19787TIP3    H280777   2.258   2.140   6.249  0.4696 -0.3662 -1.4478
19788TIP3   OH280778   0.224   2.989   3.351  0.3741 -0.4253  0.8142
19788TIP3    H180779   0.158   2.949   3.409  0.0982 -1.5378 -0.2262
19788TIP3    H280780   0.174   3.025   3.279  0.9101 -2.2715 -0.5675
19789TIP3   OH280781   0.968   0.524  10.889  0.2271 -0.0180 -0.5145
19789TIP3    H180782   0.979   0.480  10.804 -1.1942 -2.1598  0.3287
19789TIP3    H280783   0.956   0.453  10.951 -0.8987  1.5711  1.1772
19790TIP3   OH280784   5.773   1.993   3.784  0.1503 -0.1863  0.5438
19790TIP3    H180785   5.766   2.088   3.792 -0.6749 -0.0537 -1.1514
19790TIP3    H280786   5.715   1.959   3.852 -1.6636  0.6096 -0.5205
19791TIP3   OH280787   4.978   5.065  12.883  0.1120 -0.3782  0.5518
19791TIP3    H180788   4.994   5.149  12.926 -1.5469  2.1936 -3.2911
19791TIP3    H280789   4.887   5.044  12.906  0.1986 -0.5739  0.7121
19792TIP3   OH280790   3.088   2.390   0.456  0.3532  0.0205  0.0109
19792TIP3    H180791   3.101   2.327   0.385 -0.0134 -0.8655  0.7209
19792TIP3    H280792   3.158   2.371   0.519  0.3327  0.4247  0.1595
19793TIP3   OH280793   4.498   4.556  13.499 -1.1423 -0.0382 -0.0968
19793TIP3    H180794   4.532   4.498  13.430  1.5326  0.5879  0.5868
19793TIP3    H280795   4.441   4.499  13.551  2.6386 -2.8181  1.5666
19794TIP3   OH280796   4.288   3.029   2.759  0.2698 -0.2808 -0.1144
19794TIP3    H180797   4.317   2.950   2.806  1.3825 -0.9139 -1.7640
19794TIP3    H280798   4.369   3.065   2.722 -0.5960 -0.0995 -1.9338
19795TIP3   OH280799   0.737   4.126  17.266 -0.2231 -0.2812 -0.4172
19795TIP3    H180800   0.813   4.089  17.311  0.0194  0.6864  0.0009
19795TIP3    H280801   0.685   4.166  17.336 -0.4861  0.1380 -0.8444
19796TIP3   OH280802   4.767   0.812   5.465  0.1261 -0.2783 -0.1237
19796TIP3    H180803   4.813   0.850   5.540  0.1424 -1.8486  0.7098
19796TIP3    H280804   4.710   0.745   5.503  1.1365 -2.0825 -1.5924
19797TIP3   OH280805   5.250   1.672   4.245 -0.0256 -0.5616  0.3493
19797TIP3    H180806   5.346   1.678   4.239 -0.1135  1.9285  0.4285
19797TIP3    H280807   5.234   1.639   4.334  0.7995  2.7731  1.8763
19798TIP3   OH280808   0.035   2.562  14.326 -0.4525 -0.1217 -0.2266
19798TIP3    H180809   0.116   2.610  14.308 -1.3031  0.5012 -2.8397
19798TIP3    H280810   0.012   2.586  14.416  1.8716  0.2124  0.3431
19799TIP3   OH280811   2.844   2.040  12.044  0.1078  0.3461  0.2790
19799TIP3    H180812   2.772   2.050  11.982 -1.1480  0.9255  1.7541
19799TIP3    H280813   2.906   2.109  12.020 -0.7391  1.0841  0.1548
19800TIP3   OH280814   3.832   2.114  15.727 -0.9252  0.1351 -0.8013
19800TIP3    H180815   3.824   2.208  15.713  0.6884  0.4852  0.2811
19800TIP3    H280816   3.913   2.091  15.681  1.7576  0.3988  3.2377
19801TIP3   OH280817   2.131   6.385   4.358 -0.1830 -0.3708 -1.0880
19801TIP3    H180818   2.208   6.332   4.336 -0.8972 -1.3274 -1.3792
19801TIP3    H280819   2.166   6.470   4.382  1.2224 -1.5443  1.4703
19802TIP3   OH280820   4.838   4.054   0.494  0.4477 -0.4248  0.3778
19802TIP3    H180821   4.912   4.033   0.552 -0.0680  1.0312  1.6448
19802TIP3    H280822   4.866   4.024   0.408  2.6944  0.3869  0.7408
19803TIP3   OH280823   1.405   5.681  11.997 -0.6428 -0.3201 -0.3177
19803TIP3    H180824   1.339   5.742  11.965 -0.0560  0.1633 -0.6309
19803TIP3    H280825   1.384   5.598  11.952  0.2116  0.3682 -2.0778
19804TIP3   OH280826   3.996   3.386  16.563 -0.6266 -0.7560 -0.6644
19804TIP3    H180827   4.061   3.369  16.495  2.2141 -0.4962  1.7409
19804TIP3    H280828   4.039   3.448  16.622 -2.4121 -1.8278  1.9540
19805TIP3   OH280829   6.362   4.173   2.599  1.0892  0.0924 -0.1604
19805TIP3    H180830   6.345   4.088   2.560  1.2657  0.0713 -0.1941
19805TIP3    H280831   6.429   4.157   2.665 -1.0053 -0.3163  1.9749
19806TIP3   OH280832   4.503   5.523  13.386 -0.1977  0.3258 -0.1240
19806TIP3    H180833   4.578   5.496  13.439  0.0299  0.1417 -0.5334
19806TIP3    H280834   4.529   5.505  13.296 -0.7668  0.1870 -0.2663
19807TIP3   OH280835   0.910   6.250  12.568  0.3559 -0.1384  0.6575
19807TIP3    H180836   0.987   6.256  12.625  1.8170 -1.5897 -1.0125
19807TIP3    H280837   0.919   6.165  12.525 -1.6144  0.1295 -0.4135
19808TIP3   OH280838   4.957   4.046  12.643  0.1795  0.4856 -0.0328
19808TIP3    H180839   4.914   4.093  12.572 -0.3500 -0.4146 -0.3186
19808TIP3    H280840   4.889   3.992  12.681  0.4426  0.9990  1.2186
19809TIP3   OH280841   4.274   3.364   2.670 -0.0809  0.6032 -0.3840
19809TIP3    H180842   4.285   3.434   2.734  2.2715 -0.1223  0.0794
19809TIP3    H280843   4.216   3.301   2.714  0.5182  0.6912  0.5507
19810TIP3   OH280844   3.762   4.954   1.070  0.2522  0.2232 -0.1411
19810TIP3    H180845   3.853   4.955   1.100  0.3198 -0.3173 -0.3112
19810TIP3    H280846   3.753   5.032   1.016  0.5118  0.4739  0.1778
19811TIP3   OH280847   1.409   2.641  13.317 -0.1129  0.6428  0.2195
19811TIP3    H180848   1.478   2.577  13.335 -1.2776 -0.9928 -0.8767
19811TIP3    H280849   1.428   2.671  13.227 -0.5040  0.6426  0.1382
19812TIP3   OH280850   6.705   5.146   4.230  0.0425 -0.2066 -0.4019
19812TIP3    H180851   6.681   5.137   4.322 -1.4068 -2.9523 -0.9415
19812TIP3    H280852   6.647   5.215   4.197 -1.1639 -0.8826  0.2428
19813TIP3   OH280853   1.396   4.735   1.148  0.0278  0.1583 -0.1633
19813TIP3    H180854   1.313   4.774   1.121  0.0414 -0.4258 -1.0964
19813TIP3    H280855   1.411   4.665   1.084  1.6599  0.7951 -0.5301
19814TIP3   OH280856   2.009   5.022  13.192  0.1845 -0.0554 -0.2673
19814TIP3    H180857   2.098   5.041  13.163  0.4390  2.9842  1.9257
19814TIP3    H280858   2.013   4.934  13.229  2.2556  0.0074 -0.2473
19815TIP3   OH280859   2.915   2.351  11.318 -0.1237  0.4780 -0.3607
19815TIP3    H180860   2.931   2.345  11.224 -1.6777 -0.4102 -0.6151
19815TIP3    H280861   2.945   2.438  11.343 -1.0712  1.3149 -1.9957
19816TIP3   OH280862   0.403   2.668   6.098  0.3284 -0.2995 -0.6906
19816TIP3    H180863   0.390   2.586   6.049 -0.3969 -0.0286 -0.9692
19816TIP3    H280864   0.496   2.669   6.118  0.3185 -1.2806 -0.5354
19817TIP3   OH280865   5.320   2.518  13.301 -0.9901  0.2703  0.1734
19817TIP3    H180866   5.258   2.578  13.342 -0.7115  1.2229 -0.7528
19817TIP3    H280867   5.375   2.487  13.373 -1.5999  0.5523  0.7744
19818TIP3   OH280868   3.226   0.205  11.148 -0.3788  0.0317  0.7282
19818TIP3    H180869   3.247   0.251  11.229 -0.5495  0.9493  0.2664
19818TIP3    H280870   3.273   0.254  11.080 -0.7323 -0.3583  0.1944
19819TIP3   OH280871   1.321   6.071   2.043  0.0996  0.5097 -0.4849
19819TIP3    H180872   1.309   6.023   1.960  0.5379  0.6182 -0.6142
19819TIP3    H280873   1.387   6.020   2.090 -1.4000 -0.5399  0.5764
19820TIP3   OH280874   1.372   2.656  14.990  0.0382  0.3774  0.3452
19820TIP3    H180875   1.321   2.586  14.949  0.2024  0.2935  0.2840
19820TIP3    H280876   1.410   2.615  15.068 -0.3746  0.5697  0.6541
19821TIP3   OH280877   3.289   2.492   3.531 -0.2472 -0.1595 -0.1028
19821TIP3    H180878   3.234   2.553   3.579 -0.1523 -0.9437  1.0494
19821TIP3    H280879   3.355   2.463   3.595 -0.1735 -1.3081 -0.6639
19822TIP3   OH280880   2.830   3.197  11.338 -0.7817 -0.9650  0.5094
19822TIP3    H180881   2.901   3.197  11.273 -1.7494  0.5752 -0.6331
19822TIP3    H280882   2.873   3.219  11.420  0.2464 -1.3936  0.1125
19823TIP3   OH280883   3.672   3.119   6.215  0.3383 -0.2523 -0.2194
19823TIP3    H180884   3.752   3.099   6.165 -0.6106 -0.0515 -1.8782
19823TIP3    H280885   3.660   3.043   6.272  0.7997 -1.0784 -1.1746
19824TIP3   OH280886   2.912   1.686  14.091  0.4166 -0.0602 -0.4552
19824TIP3    H180887   2.904   1.679  14.186 -0.2219  0.4038 -0.4721
19824TIP3    H280888   2.826   1.661  14.057  0.9014 -1.1091 -0.9701
19825TIP3   OH280889   5.371   3.715   1.322  0.6750 -0.1763 -0.0690
19825TIP3    H180890   5.342   3.797   1.284  0.0507 -0.3098  0.1050
19825TIP3    H280891   5.455   3.696   1.279  0.1090 -0.2001 -1.2009
19826TIP3   OH280892   3.169   2.723  12.257 -0.8493  0.0352 -0.0206
19826TIP3    H180893   3.172   2.779  12.334 -1.8865  0.5940 -0.3689
19826TIP3    H280894   3.105   2.764  12.200  0.6953  0.2568 -1.6855
19827TIP3   OH280895   3.875   3.304   0.738  0.1695 -0.1926 -0.0863
19827TIP3    H180896   3.837   3.362   0.804  0.6540  1.9562 -1.6294
19827TIP3    H280897   3.833   3.329   0.656  2.3162 -0.1440 -1.2387
19828TIP3   OH280898   4.462   3.553   1.219 -0.5811  0.3401 -0.1389
19828TIP3    H180899   4.405   3.587   1.150 -0.5188  0.9670  0.1116
19828TIP3    H280900   4.406   3.554   1.298 -0.5082  0.0755 -0.0836
19829TIP3   OH280901   4.272   4.437  10.988 -0.2512 -0.1095  0.3812
19829TIP3    H180902   4.263   4.356  10.938  0.5790 -2.0490  3.1899
19829TIP3    H280903   4.332   4.490  10.935 -0.0417 -1.7134 -1.0804
19830TIP3   OH280904   0.826   0.149   4.972  0.1503 -0.9367  0.5242
19830TIP3    H180905   0.872   0.178   5.051  1.4736 -1.2043 -0.1314
19830TIP3    H280906   0.734   0.171   4.989  0.7633  1.5118  1.0164
19831TIP3   OH280907   2.829   1.064  13.474  0.0810 -0.2474  0.1427
19831TIP3    H180908   2.887   1.005  13.523  0.9831  1.1357  0.8228
19831TIP3    H280909   2.844   1.150  13.513 -2.4408  0.1935  0.3040
19832TIP3   OH280910   1.334   4.935   2.335 -0.7064  0.6267 -0.3364
19832TIP3    H180911   1.311   5.027   2.346  1.4475  1.1439  0.1447
19832TIP3    H280912   1.344   4.925   2.240  1.5216  1.5931 -0.2717
19833TIP3   OH280913   3.922   3.601   2.588 -0.2388  0.1708  0.7515
19833TIP3    H180914   3.853   3.568   2.645 -0.0820  0.3496  1.0438
19833TIP3    H280915   3.967   3.668   2.640  1.9946 -1.9044  1.6594
19834TIP3   OH280916   4.077   0.626   5.496 -0.1820 -0.0615  0.1698
19834TIP3    H180917   4.082   0.717   5.468 -0.4386 -0.1616 -0.2143
19834TIP3    H280918   4.106   0.626   5.587  4.0780 -0.1837 -0.9690
19835TIP3   OH280919   6.258   5.561   6.114 -0.1426 -0.2917 -0.4851
19835TIP3    H180920   6.282   5.650   6.141  0.4678 -0.2459 -1.1465
19835TIP3    H280921   6.216   5.523   6.191  2.2126 -0.4288  0.8301
19836TIP3   OH280922   4.203   1.769  13.776 -0.2798 -0.1248  0.1588
19836TIP3    H180923   4.261   1.696  13.753  0.0313 -0.7598  2.6831
19836TIP3    H280924   4.250   1.847  13.745  1.4977 -0.7022  1.2405
19837TIP3   OH280925   3.804   1.334   3.153  0.1082  0.3299 -0.6308
19837TIP3    H180926   3.872   1.292   3.100  1.2818  2.4004 -0.8799
19837TIP3    H280927   3.812   1.427   3.133 -0.4177  1.0402  2.0349
19838TIP3   OH280928   6.381   6.773   3.464 -0.1020 -0.1564 -0.4696
19838TIP3    H180929   6.378   6.678   3.466  0.9894 -0.2060  0.6983
19838TIP3    H280930   6.447   6.794   3.398  0.4860 -0.2622  0.0739
19839TIP3   OH280931   0.242   0.395  11.442 -0.0159 -0.5272  0.1165
19839TIP3    H180932   0.296   0.404  11.521  0.4281 -1.9655  0.0074
19839TIP3    H280933   0.283   0.323  11.393 -2.1262 -1.8042  0.1211
19840TIP3   OH280934   2.873   2.481  16.098  0.0405 -0.0087 -0.2900
19840TIP3    H180935   2.954   2.497  16.049  0.3129 -1.7029 -0.4426
19840TIP3    H280936   2.895   2.504  16.188  0.0694  1.4211 -0.6268
19841TIP3   OH280937   4.703   3.896  16.856 -0.3907 -0.0282  0.1811
19841TIP3    H180938   4.747   3.866  16.777  0.3850 -0.0695  0.6152
19841TIP3    H280939   4.656   3.975  16.829  1.0660  0.8155 -0.0113
19842TIP3   OH280940   3.594   2.199   2.623 -0.3228 -0.4905 -0.1226
19842TIP3    H180941   3.580   2.198   2.718  2.2714  3.1519  0.5079
19842TIP3    H280942   3.518   2.247   2.588 -0.2912 -0.0728  0.3782
19843TIP3   OH280943   1.322   0.018  12.907  0.7899 -0.1257 -0.3003
19843TIP3    H180944   1.251   0.007  12.971  0.8349 -0.6591 -0.3390
19843TIP3    H280945   1.278   0.029  12.823  0.6953  1.4776 -0.0857
19844TIP3   OH280946   1.036   5.680   1.254 -0.2478 -0.1961 -0.4604
19844TIP3    H180947   1.118   5.643   1.222 -0.4379 -0.4244 -0.6817
19844TIP3    H280948   0.973   5.665   1.184 -0.1469  1.2600 -0.9087
19845TIP3   OH280949   5.604   4.244   5.105 -0.3767  0.0980 -0.0520
19845TIP3    H180950   5.693   4.247   5.069  0.2444  0.8727  1.4630
19845TIP3    H280951   5.603   4.312   5.172 -2.3904  0.6576 -0.5944
19846TIP3   OH280952   5.651   6.042   3.121  0.1933 -0.3483  0.4354
19846TIP3    H180953   5.614   5.980   3.059 -3.8382  0.3379  1.8596
19846TIP3    H280954   5.672   5.989   3.198  1.2907 -0.5855 -0.0104
19847TIP3   OH280955   2.859   1.724   6.051  0.4034 -0.3491  0.0289
19847TIP3    H180956   2.783   1.763   6.094 -0.1923  0.3766 -1.6032
19847TIP3    H280957   2.927   1.792   6.057  0.6311 -0.6103  0.5908
19848TIP3   OH280958   6.598   6.647   2.626 -0.7371  0.4154 -0.4143
19848TIP3    H180959   6.664   6.606   2.570  1.4139  2.5763  0.3490
19848TIP3    H280960   6.565   6.720   2.575 -1.4065  0.2918 -0.1729
19849TIP3   OH280961   0.465   4.242  13.731  0.0313 -0.0400 -0.6424
19849TIP3    H180962   0.515   4.315  13.768  1.0227  0.1172 -2.2037
19849TIP3    H280963   0.425   4.199  13.807 -0.3792  1.9657  0.3394
19850TIP3   OH280964   4.520   1.767   1.638  0.1458 -0.3737 -0.1021
19850TIP3    H180965   4.465   1.699   1.676 -0.8492  0.5304  0.1300
19850TIP3    H280966   4.470   1.848   1.650  0.7200  0.2280 -1.5148
19851TIP3   OH280967   5.555   4.566   0.520 -0.5261  0.0180  0.2967
19851TIP3    H180968   5.632   4.517   0.490 -0.5199  0.0434  0.2699
19851TIP3    H280969   5.546   4.542   0.612 -1.4372 -1.2614 -0.1012
19852TIP3   OH280970   3.576   2.919  13.578  0.3715 -0.7708  0.1568
19852TIP3    H180971   3.573   2.823  13.583  2.4640 -0.9593 -1.0502
19852TIP3    H280972   3.582   2.947  13.669 -0.7796 -1.7344  0.5561
19853TIP3   OH280973   0.055   3.098   5.451  0.0849  0.4394  0.4078
19853TIP3    H180974   0.114   3.173   5.442 -0.5724  0.8550 -0.7200
19853TIP3    H280975  -0.021   3.121   5.397  0.4945 -1.6445 -1.2126
19854TIP3   OH280976   2.759   1.985  11.525  0.4490  0.2508  0.2175
19854TIP3    H180977   2.722   2.073  11.536  0.8781  0.3304  1.0406
19854TIP3    H280978   2.843   1.988  11.569  0.4888 -0.5682  0.2148
19855TIP3   OH280979   6.697   1.220  13.280  0.0547  0.1428 -0.3802
19855TIP3    H180980   6.778   1.213  13.331  0.4822  1.9404 -0.7376
19855TIP3    H280981   6.690   1.313  13.259 -0.5973 -0.3683 -2.7861
19856TIP3   OH280982   1.807   2.460  13.231 -0.5900  0.2108 -0.7645
19856TIP3    H180983   1.863   2.535  13.252 -0.7978  0.2192 -0.2083
19856TIP3    H280984   1.753   2.449  13.309 -0.7142 -0.3819 -0.9337
19857TIP3   OH280985   4.206   6.095   4.066 -0.7910  0.0950  0.3291
19857TIP3    H180986   4.166   6.150   3.999  3.6420  1.6719 -1.4206
19857TIP3    H280987   4.206   6.149   4.145 -1.8074  0.1230  0.3269
19858TIP3   OH280988   0.766   3.335  14.738  0.6159 -0.1488 -0.1238
19858TIP3    H180989   0.715   3.255  14.750 -2.3443  1.4539 -0.9265
19858TIP3    H280990   0.759   3.380  14.822  0.8198  0.0333 -0.2059
19859TIP3   OH280991   0.522   3.632   0.590 -0.8197 -0.1533  0.3559
19859TIP3    H180992   0.573   3.575   0.532 -0.5948  1.2222 -0.8581
19859TIP3    H280993   0.476   3.571   0.648 -0.9014 -1.6161 -1.1370
19860TIP3   OH280994   6.485   0.632   0.931 -0.4534  0.4929  0.0504
19860TIP3    H180995   6.529   0.578   0.865  2.6665  0.0632  2.2763
19860TIP3    H280996   6.396   0.597   0.935  0.4304 -2.1615 -1.0367
19861TIP3   OH280997   0.383   0.656   1.947  0.1760 -0.5911 -0.4912
19861TIP3    H180998   0.299   0.614   1.965 -0.4044  1.2382  1.5109
19861TIP3    H280999   0.441   0.624   2.016  0.5034 -0.2152 -0.5864
19862TIP3   OH281000   6.094   3.881  12.789 -0.3544  0.7480 -0.3335
19862TIP3    H181001   6.162   3.815  12.804  0.9212  1.6601 -1.7966
19862TIP3    H281002   6.012   3.833  12.799  0.4415 -0.3285  1.8051
19863TIP3   OH281003   2.169   0.205   4.337  0.3014 -0.2276 -0.3646
19863TIP3    H181004   2.146   0.259   4.413  1.4273 -1.7655  1.1279
19863TIP3    H281005   2.162   0.265   4.263  1.5344  2.0132  1.1947
19864TIP3   OH281006   3.857   0.838  15.961 -0.3321 -0.8020  0.5102
19864TIP3    H181007   3.892   0.872  15.878 -1.6256 -1.6461 -0.4224
19864TIP3    H281008   3.859   0.743  15.950 -0.8838 -0.9096  1.3022
19865TIP3   OH281009   6.189   6.759   6.106 -0.4149 -0.0301  0.2569
19865TIP3    H181010   6.264   6.738   6.161 -0.3575  2.4929  1.2646
19865TIP3    H281011   6.113   6.732   6.158 -0.2785 -1.1938 -0.1211
19866TIP3   OH281012   5.003   5.053  14.255  0.0338 -0.0330  0.0065
19866TIP3    H181013   4.924   5.097  14.287 -1.5944 -1.9542 -1.2004
19866TIP3    H281014   5.045   5.019  14.335 -0.3697  0.9313  0.6500
19867TIP3   OH281015   5.527   3.641  15.249 -0.3750  0.0291  0.0150
19867TIP3    H181016   5.497   3.687  15.327  1.9180  0.2618  0.8120
19867TIP3    H281017   5.507   3.549  15.265 -1.2847  0.2501  0.1894
19868TIP3   OH281018   4.037   3.684  14.239 -0.1312 -0.5191  0.2705
19868TIP3    H181019   3.995   3.607  14.276 -0.1360  0.2177  1.9189
19868TIP3    H281020   4.067   3.734  14.315  2.5729 -0.3558 -0.7741
19869TIP3   OH281021   2.493   3.225   6.120 -0.4888  0.3054 -0.4078
19869TIP3    H181022   2.551   3.155   6.091 -0.6673  0.4797 -1.1983
19869TIP3    H281023   2.446   3.187   6.195  0.1825 -0.0472 -0.1591
19870TIP3   OH281024   1.589   3.396   3.099 -0.1825 -0.2220  0.1875
19870TIP3    H181025   1.669   3.427   3.056 -0.0305 -1.2587 -0.2959
19870TIP3    H281026   1.619   3.349   3.176 -0.4323  1.0945  1.1362
19871TIP3   OH281027   5.093   5.136  11.687 -0.2494  0.2276  0.2949
19871TIP3    H181028   5.160   5.201  11.663  0.9270 -1.1102 -0.1710
19871TIP3    H281029   5.133   5.052  11.667 -1.6249 -0.6783  1.1982
19872TIP3   OH281030   6.224   3.204   1.973 -0.1562 -0.4432  0.6955
19872TIP3    H181031   6.131   3.197   1.950  0.0702 -0.1747 -0.3825
19872TIP3    H281032   6.267   3.222   1.889  0.8152 -0.1210  1.2573
19873TIP3   OH281033   1.733   5.575  13.198 -0.7566  0.0502  0.4567
19873TIP3    H181034   1.709   5.662  13.229 -1.7433  0.5066 -1.3903
19873TIP3    H281035   1.827   5.580  13.180 -0.9462  1.0093 -0.3449
19874TIP3   OH281036   1.250   2.344   0.654  0.4910 -1.2279  0.1737
19874TIP3    H181037   1.297   2.400   0.716  2.5574 -1.8986 -0.6962
19874TIP3    H281038   1.164   2.386   0.643  1.5432  1.1250  0.3750
19875TIP3   OH281039   3.891   4.246   0.681 -0.2170 -0.2497 -0.3624
19875TIP3    H181040   3.860   4.182   0.745  0.4549  0.3921  0.6294
19875TIP3    H281041   3.977   4.213   0.654  0.0788  0.1670  0.0634
19876TIP3   OH281042   0.646   4.651  14.079  0.0183  0.1048  0.1070
19876TIP3    H181043   0.731   4.681  14.046 -0.0354 -0.5297 -0.6214
19876TIP3    H281044   0.657   4.649  14.174  1.1645 -0.9899 -0.0296
19877TIP3   OH281045   4.761   4.046  13.789 -0.0104 -0.1711 -0.3454
19877TIP3    H181046   4.743   3.980  13.722  2.2959 -1.6930  0.3859
19877TIP3    H281047   4.789   4.123  13.740 -0.8536 -0.3730 -1.1793
19878TIP3   OH281048   0.567   0.692  15.707 -0.5571 -0.5910 -0.2074
19878TIP3    H181049   0.525   0.742  15.637 -1.0841 -1.1673 -0.3147
19878TIP3    H281050   0.587   0.757  15.775 -0.0282 -0.0195 -0.8866
19879TIP3   OH281051   3.240   0.940   4.261 -0.0413  0.1553 -0.2577
19879TIP3    H181052   3.228   0.876   4.190  0.5056 -0.5020  0.2363
19879TIP3    H281053   3.195   1.019   4.229  1.4643  0.3644 -1.9993
19880TIP3   OH281054   0.695   1.411  15.052  0.0874 -0.1100  0.5474
19880TIP3    H181055   0.648   1.495  15.059  0.8235  0.2545  1.5191
19880TIP3    H281056   0.653   1.365  14.980 -0.4403  1.0378  0.0991
19881TIP3   OH281057   2.994   4.937  12.073  0.0431 -0.2805 -0.2629
19881TIP3    H181058   3.029   4.850  12.095 -0.2416 -0.1268  0.8439
19881TIP3    H281059   2.905   4.919  12.044  0.3362 -0.4586 -1.0814
19882TIP3   OH281060   4.720   2.406   0.108  0.2708  0.2571  0.6640
19882TIP3    H181061   4.656   2.453   0.055  0.1688 -3.0805 -2.5606
19882TIP3    H281062   4.670   2.336   0.150  1.0045  0.7118  2.3859
19883TIP3   OH281063   2.099   3.901   3.526  0.9681 -0.4576 -0.0136
19883TIP3    H181064   2.122   3.825   3.579  1.0923 -1.5550 -1.5648
19883TIP3    H281065   2.135   3.975   3.574 -0.5437 -1.1535  2.3847
19884TIP3   OH281066   3.016   1.839   2.628 -0.1534  0.1772  0.4417
19884TIP3    H181067   2.930   1.868   2.598 -0.5714 -0.6386  0.8230
19884TIP3    H281068   3.076   1.906   2.596 -0.6155 -0.4127 -1.8832
19885TIP3   OH281069   0.837   3.251  10.927 -0.2245  0.3707  0.1838
19885TIP3    H181070   0.930   3.273  10.922  0.0458 -0.7293 -0.0333
19885TIP3    H281071   0.836   3.155  10.930 -1.3780  0.3538 -0.3891
19886TIP3   OH281072   0.274   4.886  15.986  0.4037  0.1258  0.8957
19886TIP3    H181073   0.305   4.804  16.024 -1.0175 -0.3233  1.1588
19886TIP3    H281074   0.349   4.920  15.936  1.5436 -0.4559  2.1654
19887TIP3   OH281075   5.866   2.506   5.621 -0.0055 -0.1690  0.4172
19887TIP3    H181076   5.861   2.439   5.689 -2.2861 -0.1478  0.3354
19887TIP3    H281077   5.860   2.457   5.539 -1.0647  0.0856  0.3402
19888TIP3   OH281078   0.052   0.061  16.422  0.0184 -0.3449  0.1578
19888TIP3    H181079   0.005   0.059  16.505 -0.7029 -0.1335 -0.2416
19888TIP3    H281080  -0.008   0.022  16.358  0.5041 -0.3708 -0.3000
19889TIP3   OH281081   4.677   2.963   2.033 -0.7040 -0.0332 -0.0932
19889TIP3    H181082   4.710   3.041   2.076  0.0276  0.1636 -0.9798
19889TIP3    H281083   4.585   2.959   2.058 -0.6776  0.9508  0.2057
19890TIP3   OH281084   0.206   2.925   5.589 -0.8887  0.4287 -0.0539
19890TIP3    H181085   0.157   2.958   5.514 -0.5230  1.6937  0.2445
19890TIP3    H281086   0.190   2.830   5.589 -0.9446  0.4203 -1.6802
19891TIP3   OH281087   5.323   2.173   1.405 -0.6933 -0.0050 -0.1860
19891TIP3    H181088   5.278   2.256   1.421 -1.0979 -0.1144 -0.7302
19891TIP3    H281089   5.326   2.164   1.310  0.0716 -0.2311 -0.1504
19892TIP3   OH281090   3.363   6.462   5.542  0.5136 -0.5133  0.2979
19892TIP3    H181091   3.365   6.368   5.557 -1.1481 -0.4755  1.0055
19892TIP3    H281092   3.406   6.474   5.458  0.7437 -1.9067  0.1949
19893TIP3   OH281093   1.833   0.203   4.252 -0.2477 -0.5829 -0.0251
19893TIP3    H181094   1.770   0.272   4.276 -0.7651 -1.1620  0.3263
19893TIP3    H281095   1.917   0.234   4.287 -0.2291  0.4177 -0.9061
19894TIP3   OH281096   4.392   4.982  13.564  0.4475  0.1086 -0.1733
19894TIP3    H181097   4.369   5.073  13.583  1.7265  0.3971  0.0625
19894TIP3    H281098   4.351   4.931  13.634 -1.3615  0.3292 -1.0009
19895TIP3   OH281099   2.830   2.131  12.789 -0.7832  0.3308  0.3974
19895TIP3    H181100   2.914   2.153  12.749 -1.1395 -1.3159 -1.4333
19895TIP3    H281101   2.770   2.196  12.754 -0.4864  0.8430  0.8297
19896TIP3   OH281102   3.869   4.504   1.065  0.3138 -0.0971  0.7662
19896TIP3    H181103   3.871   4.496   0.969  2.0693 -0.9831  0.8320
19896TIP3    H281104   3.802   4.570   1.082 -1.5905 -1.4319 -0.9570
19897TIP3   OH281105   6.772   1.161   4.181 -0.2341 -0.7253  0.9886
19897TIP3    H181106   6.801   1.086   4.234 -1.9089 -1.3115  1.1441
19897TIP3    H281107   6.827   1.158   4.103 -0.6341 -2.4761  0.7372
19898TIP3   OH281108   0.451   0.525   4.257  0.2770 -0.3569  0.4535
19898TIP3    H181109   0.502   0.575   4.194  0.1816  0.6625  1.1558
19898TIP3    H281110   0.498   0.443   4.267  0.7352 -0.1955 -0.3190
19899TIP3   OH281111   4.953   3.768  15.745  0.5111 -0.2760 -0.0720
19899TIP3    H181112   4.937   3.843  15.687 -2.0281  1.5518  2.7075
19899TIP3    H281113   4.888   3.702  15.718 -0.8449  0.6734  0.7082
19900TIP3   OH281114   2.227   0.140  17.190 -0.3185 -0.5767  0.0269
19900TIP3    H181115   2.164   0.211  17.176 -0.4283 -0.7275 -0.2598
19900TIP3    H281116   2.224   0.090  17.109  0.6259 -0.2347 -0.2301
19901TIP3   OH281117   5.220   4.841   0.569  0.1300 -0.3253 -0.2538
19901TIP3    H181118   5.183   4.788   0.639  0.5132  1.1019  1.0779
19901TIP3    H281119   5.150   4.901   0.544  0.1818 -0.4463 -0.6932
19902TIP3   OH281120   0.136   6.540   3.484  0.2662 -0.3186  0.3446
19902TIP3    H181121   0.199   6.514   3.551 -0.5960 -1.2827  0.8171
19902TIP3    H281122   0.178   6.611   3.436  1.2118 -0.1510  1.4096
19903TIP3   OH281123   5.150   4.596   4.298  0.6323  0.5397 -0.1932
19903TIP3    H181124   5.107   4.682   4.290  2.3055  1.5975  1.3633
19903TIP3    H281125   5.175   4.591   4.390  1.7550 -1.0559 -0.5546
19904TIP3   OH281126   4.631   1.854  11.889 -0.2651  0.3450  0.3571
19904TIP3    H181127   4.694   1.839  11.960  1.0007 -0.2209 -0.8587
19904TIP3    H281128   4.577   1.775  11.889  1.3378 -0.7993 -0.8968
19905TIP3   OH281129   4.565   1.369   3.900  0.0483 -0.3315  0.9857
19905TIP3    H181130   4.522   1.283   3.901  0.9876 -0.9258 -1.4741
19905TIP3    H281131   4.509   1.423   3.845  0.9034 -0.2580  0.1570
19906TIP3   OH281132   0.001   2.917   3.522 -0.8086  0.0486  0.1742
19906TIP3    H181133  -0.062   2.987   3.503  0.0537  0.3081 -2.1045
19906TIP3    H281134  -0.053   2.845   3.554 -1.7404  1.6557  2.5275
19907TIP3   OH281135   5.040   3.681  12.691 -0.0670 -0.4722  0.2791
19907TIP3    H181136   5.094   3.745  12.736  1.3359 -2.3567  1.3781
19907TIP3    H281137   4.961   3.673  12.745 -0.5895  0.8122 -0.2579
19908TIP3   OH281138   2.740   6.380  17.024  0.2682  0.4474 -0.1808
19908TIP3    H181139   2.696   6.312  16.973  0.9877 -0.0431 -0.1715
19908TIP3    H281140   2.672   6.415  17.081 -0.4363  0.6634 -1.1203
19909TIP3   OH281141   0.264   0.464   0.270 -0.0681 -0.1188 -0.1325
19909TIP3    H181142   0.201   0.461   0.342 -0.6459  2.1760 -0.4545
19909TIP3    H281143   0.349   0.468   0.312 -0.4774  3.7835  0.6764
19910TIP3   OH281144   5.117   1.838  14.002  0.0373 -0.1069  0.0658
19910TIP3    H181145   5.181   1.874  13.941  1.8010  0.0147  1.8717
19910TIP3    H281146   5.043   1.898  13.999 -0.0124 -0.2272 -2.0572
19911TIP3   OH281147   0.966   1.424  12.504  0.0357 -0.0897  0.1702
19911TIP3    H181148   0.916   1.393  12.429 -0.1964  0.5290  0.0630
19911TIP3    H281149   0.990   1.345  12.552  0.5225 -0.5204 -0.7662
19912TIP3   OH281150   1.910   5.811   1.922  0.2685  0.0282  0.1593
19912TIP3    H181151   1.861   5.789   2.001  0.1820  0.0647  0.1160
19912TIP3    H281152   1.996   5.771   1.935  0.0342 -0.5467 -0.0289
19913TIP3   OH281153   6.298   6.250  15.037 -0.5879 -0.3909 -0.0874
19913TIP3    H181154   6.333   6.333  15.003 -2.2792  1.3544  2.1686
19913TIP3    H281155   6.289   6.264  15.131 -0.7074 -3.2748  0.4166
19914TIP3   OH281156   2.551   5.164   1.162  0.1155  0.1312  0.3017
19914TIP3    H181157   2.532   5.190   1.072 -1.5530  0.6237  0.7562
19914TIP3    H281158   2.588   5.242   1.203  1.1413 -0.1774 -0.0166
19915TIP3   OH281159   5.526   5.830   1.707  0.4396  0.1232  0.5859
19915TIP3    H181160   5.448   5.883   1.724  0.7645  0.3003  1.6012
19915TIP3    H281161   5.571   5.877   1.637 -0.4567 -0.0880 -0.1467
19916TIP3   OH281162   2.040   5.364   3.387  0.0881 -0.1166 -0.1930
19916TIP3    H181163   2.109   5.325   3.334  0.2995 -0.3536  0.2551
19916TIP3    H281164   1.960   5.320   3.359 -0.3537  1.9598 -2.6237
19917TIP3   OH281165   3.140   6.271  13.270 -0.4482  0.1208  0.0654
19917TIP3    H181166   3.198   6.217  13.216 -0.3041 -0.6642  0.9822
19917TIP3    H281167   3.173   6.360  13.258  0.6267 -0.2483  0.1620
19918TIP3   OH281168   6.219   5.653  16.996 -0.0226  0.3501 -0.0305
19918TIP3    H181169   6.292   5.679  17.052  0.1853  0.9127 -0.5510
19918TIP3    H281170   6.260   5.618  16.918 -0.3084 -1.0064  0.4029
19919TIP3   OH281171   4.491   5.576   5.981 -0.5904  0.2887 -0.0358
19919TIP3    H181172   4.397   5.554   5.979 -1.2483  2.4786  2.3204
19919TIP3    H281173   4.533   5.495   6.010 -1.9253 -0.2662  0.4410
19920TIP3   OH281174   5.642   1.571   0.151  0.6609 -0.3100 -0.2082
19920TIP3    H181175   5.621   1.513   0.078  0.2310  0.5041 -0.7442
19920TIP3    H281176   5.576   1.640   0.148  1.0644  0.1340  0.5111
19921TIP3   OH281177   6.506   4.922  12.970  0.2112  0.0330  0.2596
19921TIP3    H181178   6.533   5.007  13.005  2.0891 -0.1734 -0.5583
19921TIP3    H281179   6.438   4.943  12.906 -0.9229  0.6889  1.6219
19922TIP3   OH281180   5.334   4.825   1.370 -0.0788  0.4891  0.0933
19922TIP3    H181181   5.415   4.786   1.404 -2.3366 -4.5466  0.5853
19922TIP3    H281182   5.293   4.865   1.446 -0.1146 -1.1485  0.9937
19923TIP3   OH281183   3.244   4.730  15.535 -1.1767  0.2512 -0.1366
19923TIP3    H181184   3.253   4.825  15.524  1.0562 -0.1008 -2.2340
19923TIP3    H281185   3.249   4.695  15.446  0.3280 -1.9578  0.7266
19924TIP3   OH281186   0.423   1.786   3.370  0.2905  0.0202 -0.1936
19924TIP3    H181187   0.372   1.776   3.450  0.4373 -0.9588 -0.2130
19924TIP3    H281188   0.364   1.757   3.300 -0.0983  1.5525 -0.5476
19925TIP3   OH281189   3.487   4.302   6.916  0.0159  0.0728  0.5560
19925TIP3    H181190   3.497   4.397   6.924 -0.4364  0.0104  2.2488
19925TIP3    H281191   3.393   4.289   6.904  0.2566 -0.0958 -1.4334
19926TIP3   OH281192   5.995   0.186  16.090 -0.2533  0.0030 -0.0689
19926TIP3    H181193   5.998   0.257  16.153  1.1773  0.5904 -0.7619
19926TIP3    H281194   5.903   0.181  16.064 -0.3113  1.8843 -0.3253
19927TIP3   OH281195   2.335   3.556  14.943  0.4683 -0.2542 -0.2611
19927TIP3    H181196   2.255   3.513  14.911  0.3269 -0.1168 -0.0966
19927TIP3    H281197   2.396   3.484  14.960 -0.5470 -0.6374  2.2407
19928TIP3   OH281198   5.457   1.848  17.070 -0.3223 -0.1376  0.1484
19928TIP3    H181199   5.446   1.910  17.142 -0.8481 -0.4768  0.3660
19928TIP3    H281200   5.368   1.823  17.045 -0.1204 -1.4998  0.6846
19929TIP3   OH281201   0.940   0.147  13.741 -0.7210 -0.0663  0.0083
19929TIP3    H181202   0.871   0.169  13.803 -0.9774 -0.3788 -0.1629
19929TIP3    H281203   0.902   0.079  13.686 -0.0063 -0.8162  0.4151
19930TIP3   OH281204   3.932   5.556   4.182  0.1925  0.2368  0.5196
19930TIP3    H181205   3.981   5.592   4.256  1.8414  1.1903 -0.9662
19930TIP3    H281206   3.884   5.631   4.146  0.7387  0.1834 -0.3607
19931TIP3   OH281207   0.440   1.466   0.344 -0.2143  0.1209 -0.8807
19931TIP3    H181208   0.524   1.513   0.335  0.3367 -0.2647  1.5592
19931TIP3    H281209   0.374   1.535   0.348  0.1551  0.4974 -1.1849
19932TIP3   OH281210   0.400   2.467   5.905 -0.4627  0.5762  0.1263
19932TIP3    H181211   0.452   2.388   5.894 -0.5725  0.3514  1.1017
19932TIP3    H281212   0.404   2.511   5.821 -1.6984 -1.2529 -0.9492
19933TIP3   OH281213   2.093   6.479   0.402 -0.4889 -0.1778  0.2372
19933TIP3    H181214   2.185   6.506   0.404 -0.4317 -0.2742 -0.6292
19933TIP3    H281215   2.066   6.494   0.311 -1.4269  0.1703  0.5601
19934TIP3   OH281216   5.214   5.244   5.479 -0.3641  0.3489 -0.0446
19934TIP3    H181217   5.288   5.298   5.451 -0.9758  1.1361 -0.1652
19934TIP3    H281218   5.180   5.288   5.556 -0.6106 -0.1012  0.1071
19935TIP3   OH281219   2.813   5.525  13.371  0.0944  0.0966  0.0053
19935TIP3    H181220   2.741   5.587  13.360 -1.3327 -1.3559  0.7293
19935TIP3    H281221   2.791   5.451  13.315  1.7397  0.1714 -0.8123
19936TIP3   OH281222   2.987   4.348  13.353 -0.0393  0.6026  0.8441
19936TIP3    H181223   2.930   4.316  13.423  1.1120  0.4381  1.7443
19936TIP3    H281224   2.959   4.300  13.275 -1.5442  1.0026  1.1011
19937TIP3   OH281225   0.553   4.537   4.796  0.0843 -0.1621 -0.0365
19937TIP3    H181226   0.513   4.475   4.858  1.1223 -0.1606  0.6615
19937TIP3    H281227   0.546   4.494   4.711 -2.9071  0.5511 -0.2740
19938TIP3   OH281228   6.105   4.533  11.528  0.7211  0.0480  0.0579
19938TIP3    H181229   6.076   4.525  11.437 -2.7564 -0.6572  1.0598
19938TIP3    H281230   6.105   4.443  11.561  0.2207  0.4419  1.1855
19939TIP3   OH281231   1.326   1.536   2.068  0.1545  0.9407  0.5021
19939TIP3    H181232   1.234   1.545   2.094  0.1416 -0.7677  1.2152
19939TIP3    H281233   1.360   1.466   2.124  1.5929  0.7777 -0.5087
19940TIP3   OH281234   4.225   3.876  16.426 -0.2055  0.0373  0.4000
19940TIP3    H181235   4.180   3.934  16.489  1.1725  0.1924  1.2912
19940TIP3    H281236   4.183   3.791  16.438  0.9173 -0.2950  2.5972
19941TIP3   OH281237   0.857   3.430  15.900  0.2570 -0.1084  0.2740
19941TIP3    H181238   0.814   3.392  15.976  1.0354 -0.5256  0.5084
19941TIP3    H281239   0.803   3.506  15.878 -1.4210 -1.4090 -0.3065
19942TIP3   OH281240   3.212   5.616   2.756  0.2523  0.3216  0.4198
19942TIP3    H181241   3.180   5.705   2.770  1.2098  0.6789  0.4556
19942TIP3    H281242   3.231   5.611   2.662  2.1765  0.8868  0.7239
19943TIP3   OH281243   4.735   5.553   3.694 -0.2569  0.0284 -0.4471
19943TIP3    H181244   4.704   5.623   3.637  0.7769  1.0376  0.1927
19943TIP3    H281245   4.822   5.581   3.723  0.2584 -1.5855 -0.2786
19944TIP3   OH281246   0.314   6.726   4.132 -0.0590 -0.0570 -0.1618
19944TIP3    H181247   0.296   6.680   4.050 -0.2138 -1.4728  0.6519
19944TIP3    H281248   0.344   6.813   4.104  0.1934 -0.6217 -1.7186
19945TIP3   OH281249   1.153   6.095   2.655  0.1677 -0.3207  0.2439
19945TIP3    H181250   1.231   6.056   2.697  1.0258  0.2004 -0.8247
19945TIP3    H281251   1.124   6.029   2.592  1.2838  0.4735 -1.1617
19946TIP3   OH281252   0.510   0.643  13.832 -0.0793 -0.3865  0.2152
19946TIP3    H181253   0.590   0.593  13.818  0.7903  0.8728  0.5183
19946TIP3    H281254   0.540   0.727  13.865 -1.5801 -0.1452  1.0567
19947TIP3   OH281255   3.295   4.192  13.382  0.2373  0.6292 -0.5440
19947TIP3    H181256   3.327   4.225  13.466  0.1348 -0.4039 -0.0849
19947TIP3    H281257   3.215   4.240  13.365 -0.5205 -0.1723  0.6692
19948TIP3   OH281258   5.287   3.723  15.766 -0.1386  0.4584 -0.1972
19948TIP3    H181259   5.233   3.776  15.708  0.4535  0.0209 -1.1805
19948TIP3    H281260   5.354   3.783  15.798 -2.2504  1.5525  2.6388
19949TIP3   OH281261   0.097   0.323   4.170  0.3616 -0.3782  0.0955
19949TIP3    H181262   0.137   0.365   4.093  1.1477  0.7218  1.0801
19949TIP3    H281263   0.004   0.318   4.148  0.1248  2.3737  0.1156
19950TIP3   OH281264   4.828   4.963   0.920 -0.7976  0.6634  0.3333
19950TIP3    H181265   4.874   5.040   0.885  0.3929  0.3421  1.1438
19950TIP3    H281266   4.806   4.911   0.842  3.2533 -0.8593  0.0016
19951TIP3   OH281267   6.617   5.616  11.227  0.0786 -0.4928  0.2160
19951TIP3    H181268   6.674   5.653  11.160 -0.1893 -0.3345  0.0724
19951TIP3    H281269   6.633   5.522  11.225 -1.0071 -0.6781 -1.0962
19952TIP3   OH281270   2.154   3.623  14.022 -0.0962  0.2768  0.8565
19952TIP3    H181271   2.095   3.636  13.948 -2.2865 -0.9370  2.3033
19952TIP3    H281272   2.197   3.708  14.034 -0.7832  0.9013 -0.8624
19953TIP3   OH281273   4.040   6.204   5.312 -0.1400  0.5099 -0.2814
19953TIP3    H181274   3.951   6.176   5.290 -0.6237  1.2036  0.7472
19953TIP3    H281275   4.060   6.272   5.247  0.1752 -0.5669 -1.3536
19954TIP3   OH281276   4.314   2.138   3.451  0.1261  0.0201 -0.0226
19954TIP3    H181277   4.224   2.106   3.463  0.2835 -0.2027  0.5831
19954TIP3    H281278   4.367   2.059   3.445  0.1392  0.1288 -1.6424
19955TIP3   OH281279   1.229   5.618  16.712  0.5447 -0.1671 -0.3283
19955TIP3    H181280   1.169   5.548  16.685 -1.1700  1.0712  0.0687
19955TIP3    H281281   1.295   5.575  16.765 -0.8726 -1.4016  0.4868
19956TIP3   OH281282   5.781   4.997   1.780 -0.0916  0.3563  0.2736
19956TIP3    H181283   5.734   5.014   1.698  2.1883 -1.6366 -1.6126
19956TIP3    H281284   5.820   5.081   1.803  0.3222  0.6898 -1.4892
19957TIP3   OH281285   3.722   0.523  16.412  0.3527  0.0456  0.7412
19957TIP3    H181286   3.690   0.567  16.490  1.6857 -1.6855  2.3451
19957TIP3    H281287   3.784   0.585  16.373 -0.8188  1.1886  0.6106
19958LIG     O181288   2.121   1.837  16.450  0.4358  0.1219 -0.8936
19958LIG     O281289   1.917   1.779  16.301  0.5334  0.2404  0.2467
19958LIG     O381290   2.047   1.581  16.606 -0.0107  0.1951 -0.2736
19958LIG     O481291   1.735   1.703  16.154 -0.1125  0.0845 -0.6502
19958LIG     O581292   2.057   1.526  16.218 -0.0152  1.1647  0.2818
19958LIG     O681293   1.863   1.313  16.171 -0.1945  0.0650 -0.0793
19958LIG     O781294   1.662   1.403  15.998 -0.0403  0.1166  0.2437
19958LIG     O881295   1.506   1.660  15.888 -0.2586 -0.3294 -0.6305
19958LIG     O981296   1.458   1.643  16.101 -0.0175 -0.2900 -0.2267
19958LIG      N81297   1.975   2.265  16.641 -0.5841 -0.2581  0.2941
19958LIG     C181298   2.016   2.036  16.474 -0.4783 -0.3637  0.4912
19958LIG     C281299   1.913   2.146  16.427 -1.0113  0.5934  0.3719
19958LIG     C381300   2.077   1.942  16.365  0.5137 -0.8942 -0.4353
19958LIG     C481301   1.868   2.202  16.564  0.2784  0.1867  0.6700
19958LIG     C581302   2.136   2.100  16.549  0.2020 -0.0277  0.1224
19958LIG     C681303   1.949   1.941  16.563  0.3804  0.2469  0.8575
19958LIG     C781304   1.779   2.096  16.648  0.5020 -0.2171  0.6956
19958LIG     C881305   2.079   2.169  16.677 -0.2014 -0.1922 -0.9399
19958LIG     C981306   1.973   1.903  16.266  0.2256  0.6485  0.6720
19958LIG    C1081307   1.833   1.956  16.635 -0.6784  0.0168 -0.6855
19958LIG    C1181308   1.815   2.093  16.325  0.3779 -0.8710  0.7296
19958LIG    C1281309   2.014   1.818  16.538  0.7051  0.0471  0.7052
19958LIG    C1381310   1.845   1.986  16.255  0.0808  0.1384 -0.1119
19958LIG    C1481311   2.028   2.391  16.586 -0.0908  0.3915 -0.2789
19958LIG    C1581312   1.791   1.843  16.704  0.1191  0.5137 -0.4993
19958LIG    C1681313   1.968   1.703  16.612 -1.1387  0.3748 -0.3712
19958LIG    C1781314   1.854   1.717  16.696 -0.7319  0.7459 -0.4044
19958LIG    C1881315   1.877   1.692  16.189 -0.2648 -0.4817  0.5408
19958LIG    C1981316   1.917   1.542  16.226  0.7780 -0.7793  0.2406
19958LIG    C2081317   1.852   1.452  16.130 -0.3932 -0.6912 -0.0657
19958LIG    C2181318   1.709   1.489  16.101 -0.4001  0.1001 -0.6301
19958LIG    C2281319   1.697   1.629  16.044  0.2268 -0.3215  0.2646
19958LIG    C2381320   1.548   1.647  16.019 -0.5509 -0.1346  0.4607
19958LIG     H181321   1.979   2.221  16.377  0.4507 -0.2013  1.0356
19958LIG     H281322   2.165   1.994  16.321 -0.3936  1.5909  0.4666
19958LIG     H381323   1.797   2.283  16.537  0.2515  0.5987  1.9417
19958LIG     H481324   2.185   2.184  16.494 -0.7832  0.8916  0.6087
19958LIG     H581325   2.211   2.022  16.573  0.5078  0.3166  0.3082
19958LIG     H681326   1.672   2.106  16.619  0.0412  0.4795  2.5218
19958LIG     H781327   1.775   2.126  16.755 -1.3124  0.0711  0.5793
19958LIG     H881328   2.044   2.100  16.757  3.1012 -0.8425  0.0971
19958LIG     H981329   2.164   2.223  16.722 -0.3297 -0.9563  0.2525
19958LIG    H1081330   2.025   1.886  16.169  0.3950 -1.4386  1.0844
19958LIG    H1181331   1.715   2.137  16.339  0.3461 -0.5143 -0.5227
19958LIG    H1281332   1.776   1.945  16.179 -0.0485 -2.2475  1.1941
19958LIG    H1381333   2.088   2.441  16.665  0.6831 -0.4945 -0.2917
19958LIG    H1481334   1.948   2.462  16.554 -0.0133  0.8079  0.4303
19958LIG    H1581335   2.102   2.373  16.505  0.4226  0.7583  0.1030
19958LIG    H1681336   1.698   1.855  16.759  0.0086 -0.9319 -0.3203
19958LIG    H1781337   1.818   1.633  16.752 -0.9947  0.9892 -0.2002
19958LIG    H1881338   1.924   1.721  16.092  1.8008  0.8525  1.8654
19958LIG    H1981339   1.873   1.523  16.327  0.3903  1.0454  0.4540
19958LIG    H2081340   1.909   1.458  16.034  0.4565 -0.5013  0.4348
19958LIG    H2181341   2.032   1.536  16.690  1.0495 -0.7452 -0.5624
19958LIG    H2281342   1.652   1.472  16.194  0.9424  3.0670  0.8819
19958LIG    H2381343   1.755   1.655  15.952 -0.2851  0.1892  0.0797
19958LIG    H2481344   2.079   1.446  16.265  1.0013  2.5118  2.2286
19958LIG    H2581345   1.892   1.278  16.087 -0.9235  3.7841 -2.0627
19958LIG    H2681346   1.678   1.312  16.026 -0.1916 -0.7378 -2.2433
19958LIG    H2781347   1.412   1.678  15.895 -0.0364  0.5554  0.1469
   6.77359   6.77359  17.34683
